5.6467590613 6.3551138626 2.5655620454 3.2593308571 4.5156640415 5.3419523135 2.0498754855 1.1502040950 2.3553865543 7.7623160995 1.6897594558 -0.1630564889 8.9553688975 4.9439127034 2.8224187836 1.4259290215 4.5652040388 2.5226344201 4.0954924827 1.2116172155 4.8756046638 9.5888296608 1.5816338815 2.6837230547 6.9138931657 4.9387253365 0.3335122274 1.8467942255 4.7890443982 4.0908262745 3.6059129702 0.9820074600 1.0617243845 9.1845631517 1.4484390083 1.1155077924 7.3617567974 5.1078960490 4.1030887297 5.4026578557 5.2861973190 0.6027100516 0.1580168793 1.2566660437 2.9459376857 5.6419552035 0.8833372379 4.6154121472 10.7889321488 4.8731660349 2.2860079510 2.2416970515 5.5869207356 1.7059110791 3.3102406836 0.5332804514 3.6711244553 9.2123884464 3.0562784252 3.1601845005 7.2557482650 3.3735427542 0.3753116516 8.7156266702 0.5880278217 3.5247179828 7.7044315473 5.6483051087 1.5319805134 1.7851699005 3.0762606238 2.0753316302 3.7518927312 2.8063494373 4.8716505710
5.6419349160 6.3530661412 2.5689722676 3.2126732046 4.4729070089 5.3449408575 2.0575150406 1.2169790978 2.3759674991 7.7945764948 1.7323798689 -0.1652727604 8.9461935048 4.8854393943 2.8006274606 1.3965019316 4.5653732453 2.5105554757 4.1107552061 1.2153769887 4.9073080123 9.5941467849 1.5680759561 2.7038174197 6.9161922407 4.9411930363 0.2912642282 1.8653503497 4.7974133130 4.0043229673 3.6489223301 1.0398812288 1.0200707102 9.1658631487 1.4363624914 1.1935547294 7.3482753558 5.0679861488 4.1292884853 5.4570319257 5.2168091232 0.5315875499 0.1269410990 1.2720065547 2.9819265708 5.5503337639 0.9521242709 4.6872658808 10.8524031014 4.8428356802 2.2615700635 2.1902924261 5.5544639257 1.5929693861 3.3690053286 0.5187805542 3.7376139720 9.2221678110 3.0150776602 3.1734515194 7.3055715899 3.4477768096 0.4359807827 8.7748957562 0.6126359656 3.6134768163 7.6657751728 5.6457061561 1.4719230577 1.7763122236 3.1481914575 2.0764678116 3.7238654064 2.7159739299 4.8274825016
5.6251684444 6.3537349909 2.5875804125 3.1491158574 4.3799778868 5.3199785648 2.0866358071 1.3462937564 2.4172913138 7.8353163283 1.8204360418 -0.1291467931 8.9091087488 4.7770156353 2.7628287293 1.3711130663 4.5581809553 2.4813972159 4.0712880118 1.2536774288 4.9371410756 9.6354176130 1.5905724392 2.7396726680 6.9435483111 4.9067934234 0.2520043161 1.9133691580 4.8378039716 3.9212102973 3.6546511151 1.0822855024 1.1849468531 9.1090548274 1.3568095713 1.2800840851 7.3733294656 5.0428244304 4.0046314847 5.3518991907 5.0658818481 0.3668199685 0.2211404145 1.2382910402 2.9641084100 5.7121557099 1.0871975794 4.8239355596 10.7536573197 4.8816527414 2.2636084848 2.1287522223 5.5559885142 1.4513279681 3.3651379284 0.4841521526 3.7188909367 9.1423024415 2.9918513593 3.2768963919 7.4098299869 3.4083907499 0.5447291347 8.8332990894 0.5665829415 3.7091614341 7.6942575985 5.6778693819 1.4318445620 1.8762424650 3.1256811496 1.9941821531 3.6281608465 2.7867118811 4.7298513151
5.6185860571 6.3303108684 2.6103948542 3.0355319189 4.4970434559 5.1625851752 2.3412237301 1.4360479574 2.5187281305 7.9736160335 1.6617790489 0.0450290426 8.6787745116 4.7018882291 2.6559188214 1.2906071354 4.7306581716 2.3127777857 4.2156353052 1.3114164201 4.9179892526 9.7275125027 1.4113283606 2.8896668037 6.7788666074 4.8675163776 0.2791407532 1.6219353399 4.6844277713 3.8294094914 3.9989543371 1.5454854797 1.2338363608 9.3795490322 1.4580967306 1.3743555601 6.9892807830 4.6317374262 3.9590660667 5.2587155172 4.9176301330 0.5682010852 0.3335921325 1.3717921679 3.1077947748 5.7047062657 1.2535802911 4.6383726773 10.7150751901 4.7771165334 2.0924013484 2.0733996727 5.8840137804 1.6734847543 3.4863191841 0.1922497753 4.0929095206 8.9891321566 2.6065090720 3.6052818735 7.4813041297 3.6292023653 0.9016937382 8.9559843414 0.2471722320 3.5294368039 7.4915240449 6.0055772773 1.0946707413 2.0021314302 3.5297938811 1.6041532344 3.5411000528 2.5607259769 4.3095035830
5.6081836953 6.3436336328 2.6220353018 3.0406613118 4.4207834403 5.1783052931 2.2870228404 1.4429928704 2.5200940964 7.9762454272 1.7264777321 0.0310382305 8.7117072998 4.7026857549 2.6751662860 1.3328663957 4.6934225846 2.3514870644 4.1674389862 1.2997927852 4.9571313597 9.6453836559 1.4507165263 2.8515915889 6.8685300215 4.8743030810 0.2308095151 1.7538521748 4.7751932204 3.7966843610 3.8520804938 1.4278624341 1.2235356481 9.2328701676 1.4168710228 1.4020592855 7.1620011793 4.6881061704 3.9574141734 5.3269764136 4.9925506518 0.3773514229 0.2586994313 1.3810096879 2.8772904967 5.6644983591 1.2124436949 4.8004128256 10.7687018491 4.7208663656 2.2916189267 2.1163463077 5.8661052713 1.5910775429 3.5241040104 0.2912292097 3.9709071464 9.0870681877 2.7136736678 3.5469947853 7.5473791327 3.5764558212 0.7881473707 8.9063301515 0.2733938025 3.6038216131 7.4747792580 5.9101425511 1.2083266198 1.9062556846 3.4365548255 1.6609691085 3.4997689436 2.6120351822 4.4398099372
5.6515535796 6.3877053958 2.6077998723 3.4157883904 4.6697824140 5.3425627504 1.9959934687 0.9970680500 2.2464669938 7.6436895856 1.5373915051 -0.1443631108 8.9823533039 5.1064648094 2.9554258577 1.4473692304 4.4937987678 2.6939036781 4.1028283617 1.3172241978 4.8489753365 9.5670769267 1.6535587496 2.5224798121 6.8800637975 4.8388205260 0.3422018980 1.8126228097 4.6503076318 4.2957312845 3.6180853541 0.9162686965 0.9619652070 9.2056098994 1.4980534896 0.9222106609 7.3591051427 5.1953982473 4.1911983028 5.4104306562 5.2309368330 0.6089990556 0.1215563189 1.1914249707 2.7114652671 5.5849439470 0.9177453890 4.6022018264 10.8571392810 4.9897933434 2.4635218806 2.3637545351 5.4716109283 1.8835347409 3.2521775963 0.7092870207 3.6364834973 9.0864817304 3.0269648049 3.1578639282 7.0080791772 3.2672737684 0.3087769325 8.6532965050 0.6397316900 3.2757877503 7.7750462140 5.4783297357 1.5035294075 1.9147937011 3.1085734949 2.0657949270 3.9515045401 2.9061667163 4.9515358862
5.6055138610 6.3491068765 2.6211506764 3.0627572436 4.3708179884 5.2038215199 2.2421253938 1.4351953223 2.5070649664 7.9486854123 1.7771277259 0.0021296474 8.7451810351 4.7101742234 2.6923737407 1.3700978907 4.7055453165 2.3417163709 4.1283667356 1.3168891437 4.9684260091 9.6279520625 1.4374942359 2.8527250300 6.8993529542 4.8625617899 0.2275618636 1.8231149277 4.7957255233 3.8995106297 3.7755259234 1.3184339608 1.2593097840 9.1790405742 1.4039513740 1.2988193587 7.2549920401 4.7875114375 3.9014309804 5.3630828036 4.9843269658 0.2852320498 0.2453216383 1.3881517601 2.8142278326 5.7118270882 1.2026373323 4.8819756156 10.7037102377 4.7255169382 2.3585542563 2.1194594370 5.7670912047 1.4886917903 3.4830329907 0.3545444035 3.8769570332 9.1295358720 2.7958303951 3.5221634649 7.5362265769 3.5053541862 0.7321777248 8.8706427452 0.3520846437 3.7111951668 7.5402018889 5.8657593934 1.2937202900 1.8983958646 3.3435506313 1.7049901113 3.4880221975 2.6866099373 4.5071356213
5.6508824634 6.3966638372 2.6190734312 3.4361193593 4.7026226245 5.3559975909 1.9836998607 0.9892217744 2.2084579347 7.6194700723 1.5027074084 -0.1526202134 8.9899219364 5.1260035633 2.9968119717 1.4880733572 4.4730104331 2.7442825260 4.0540896039 1.4022534609 4.8622551668 9.5138004445 1.6821202869 2.4587220906 6.9289064031 4.7699454997 0.3106363150 1.8351318210 4.5997673610 4.2922621213 3.6058528411 0.9169111482 0.9450566174 9.1883651490 1.5415626891 0.9194362986 7.3585647047 5.1943525822 4.2214383155 5.3868152330 5.2371268455 0.6014110500 0.1080066576 1.2166682545 2.6356408628 5.6423155495 0.9156543867 4.6116189562 10.8905365036 4.9660396388 2.5452364018 2.3822252833 5.4492795509 1.8844706358 3.2598803096 0.7822544320 3.6420306473 9.1024801971 3.0094498488 3.0956654316 6.9788974366 3.2807700266 0.3103504552 8.6351617668 0.6383289149 3.2978848342 7.7655120120 5.3908350324 1.4803777121 1.9113078564 3.0947727767 2.1178998762 3.9787416180 2.8705228928 4.9550617629
5.6343636562 6.3531267185 2.5775380392 3.1745483148 4.4253183662 5.3368050745 2.0695048896 1.2857780735 2.3966778741 7.8194505408 1.7787541216 -0.1523669032 8.9312439326 4.8262140213 2.7813531064 1.3734138259 4.5494814000 2.5375286178 4.0751897712 1.2526034507 4.9300303222 9.6005482400 1.5982417378 2.6888801264 6.9510825620 4.9207146982 0.2575707231 1.8709409184 4.8051272550 3.8911080252 3.6621711806 1.0664858157 1.0732805805 9.1520105789 1.4076043152 1.2988520521 7.3496381485 5.0486251174 4.1047437006 5.4006839524 5.1426188391 0.4523343188 0.1679262100 1.2550296290 2.9910947531 5.6262493789 1.0179523285 4.7560557847 10.8493830648 4.8520919596 2.2544372652 2.1711401912 5.5633535886 1.4825073145 3.3788449360 0.4971064321 3.7397294443 9.1975974187 2.9698395175 3.2047767755 7.3503095685 3.4710053473 0.4931889593 8.7996863875 0.5856899352 3.6905448781 7.6646865118 5.6514451319 1.4345387147 1.8108073781 3.1706487561 2.0525905055 3.6920034905 2.6900802791 4.7831383303
5.6065685188 6.3518103403 2.6170845749 3.0821201248 4.3446370220 5.2256923512 2.2052620190 1.4295293377 2.4924703538 7.9202475922 1.8111602092 -0.0239459469 8.7776900886 4.7147106634 2.7046245938 1.3601282961 4.6503055394 2.3965258450 4.1088243611 1.3027424020 4.9779554653 9.6323312135 1.4880701891 2.8124345348 6.9279632907 4.8762826244 0.2242493471 1.8460774027 4.8128694383 3.8845548428 3.7321600992 1.2531268743 1.2769526431 9.1637124982 1.3794655753 1.3149040509 7.2969658836 4.8554024012 3.9000280659 5.3402559500 4.9698080654 0.2467077848 0.2666820821 1.3544465273 2.8086208687 5.7481902473 1.2049468143 4.9132240626 10.6899418995 4.7685870731 2.3690239583 2.1424649526 5.7580156336 1.4103553593 3.4379718509 0.4003204457 3.8139919206 9.1312608041 2.8171600132 3.4858890575 7.5241431903 3.4463652811 0.7003172544 8.8368416364 0.3809153767 3.7678847442 7.5998381816 5.8190737092 1.3341588403 1.9117058170 3.2919402398 1.7555052136 3.4925466891 2.7471426851 4.5425295884
5.6491472535 6.4018625273 2.6212225826 3.4477858335 4.7464451782 5.3920503978 1.9622030766 1.0173378518 2.1593256543 7.5852859288 1.4568759371 -0.1846385442 9.0067848263 5.1221705082 3.0399823123 1.5022858516 4.4042556511 2.7879360521 4.0652724952 1.3680392651 4.8775785832 9.4968815770 1.6988449710 2.4022614356 6.9396005693 4.7690213879 0.2989660457 1.9184535460 4.5633273673 4.2426573450 3.5870618194 0.9900932090 0.8636040631 9.1095981356 1.5838735028 0.9296075699 7.3696380470 5.1301208072 4.2525914655 5.5176593593 5.2534642139 0.5695318637 0.0116638919 1.2787344199 2.5100526231 5.5018540000 0.9344512981 4.6501126456 11.0164294558 4.8800332780 2.6965768538 2.4191052130 5.5101924069 1.8828681389 3.2874118436 0.8906941993 3.6482435576 9.1223417829 3.0627907825 2.9897638170 6.9983773064 3.2222219256 0.2791623671 8.6092320412 0.6106478795 3.3301643043 7.7767097354 5.2757709528 1.5058110877 1.8743605962 3.0673927278 2.2435939834 3.9700493556 2.9340229985 4.9828613413
5.6380756466 6.3845420026 2.5899616896 3.4801225923 4.7825410411 5.5232320658 1.9250981328 1.1465627276 2.1326528409 7.5075354112 1.4030019864 -0.3078103506 9.0706509079 5.0011830851 3.0497441676 1.5700475439 4.4345659265 2.8467609337 3.9541694436 1.3919417127 4.8084475754 9.4450639394 1.7119432639 2.3587324329 7.0382031323 4.7739619040 0.3809596727 2.1621977135 4.6845991565 4.1922467066 3.4492417129 1.0002164699 0.7964710812 8.8824327014 1.4514928116 1.0041039104 7.4882173146 5.0590456453 4.3186523530 5.5691244528 5.3656992263 0.6045348850 -0.0323978604 1.2406582392 2.3377371816 5.4748902023 0.8245343861 4.6406278406 11.0467268577 4.8209844124 2.8983791503 2.3469315751 5.4369041217 1.9177084239 3.2877712374 0.9708180654 3.5591372728 9.0856803440 3.0925705444 2.8715663012 7.0862463843 3.2563805809 0.0960481140 8.6376528975 0.6904018314 3.2988073267 7.8504683900 5.2138806836 1.5659147157 1.9018140178 3.0885184144 2.3281454673 3.9272965466 2.9094424397 5.1685973447
5.6084073565 6.3527013928 2.6141276937 3.0923240771 4.3408219297 5.2417213130 2.1840806809 1.4253109833 2.4836039488 7.9051295088 1.8227346310 -0.0406834280 8.7969914286 4.7180260897 2.7111419668 1.3507532567 4.6220940515 2.4227294786 4.1075544651 1.2922377846 4.9831707510 9.6327292142 1.5112885593 2.7918014715 6.9400884006 4.8842228795 0.2193200271 1.8397866798 4.8231814199 3.8373842709 3.7338311402 1.2357956303 1.2377861639 9.1680761929 1.3641238910 1.3568240675 7.2954805045 4.8785375189 3.9454145686 5.3591679086 4.9647872218 0.2372980106 0.2621879207 1.3302758012 2.8173113195 5.7066789883 1.2052199937 4.9212500096 10.7301096479 4.7946880981 2.3641766793 2.1313738886 5.7271073930 1.4076620528 3.4306135194 0.4435755180 3.8124966176 9.1284405797 2.8192054211 3.4602898619 7.5029411472 3.4642785053 0.6815828741 8.8410456088 0.4188099616 3.7619461691 7.6173358421 5.7757195473 1.3315626581 1.9116515529 3.2889027538 1.7941458447 3.5194743129 2.7147960034 4.5611002225
5.6055618812 6.3505865429 2.6194364608 3.0719226097 4.3552401762 5.2130980952 2.2247076166 1.4326098536 2.5002663759 7.9352822738 1.7953453247 -0.0095629202 8.7603161409 4.7122404506 2.6984938887 1.3679195758 4.6806313165 2.3662738858 4.1156614309 1.3116295816 4.9726983920 9.6309943455 1.4608639115 2.8347866939 6.9130144530 4.8682361962 0.2271123356 1.8423084006 4.8033169228 3.9102536845 3.7463420447 1.2810673349 1.2837415717 9.1655025400 1.3934202319 1.2906429941 7.2839427384 4.8246424470 3.8844835824 5.3442415965 4.9769915619 0.2631616969 0.2598127668 1.3747057446 2.8076747358 5.7490259402 1.2034348963 4.8998883988 10.6795752390 4.7443287020 2.3673358505 2.1371715687 5.7684711170 1.4394538181 3.4562245397 0.3700739582 3.8362762491 9.1316149763 2.8123595812 3.5074030249 7.5351430421 3.4618401620 0.7173291705 8.8476499142 0.3599198894 3.7499278483 7.5735633645 5.8500105663 1.3218734211 1.9069261246 3.3093575294 1.7252265046 3.4822545377 2.7357982430 4.5244682148
5.6332537122 6.3771430020 2.5805646414 3.5034429405 4.7810987571 5.5798946397 1.9073436399 1.1967950730 2.1375646894 7.4837103498 1.4019284241 -0.3552676550 9.1017769336 4.9498965128 3.0444217177 1.5561972147 4.4785427431 2.8849231269 3.9931899751 1.3809065543 4.8271214903 9.4489855929 1.6769989827 2.3341606650 7.0129783790 4.7843778736 0.3711205884 2.2506974357 4.7700506059 4.2588831743 3.3804969913 0.9292559774 0.7531224570 8.7802236451 1.3588369369 0.9494171736 7.5748227196 5.1436028812 4.3278428801 5.6290422862 5.3213170795 0.6433273116 -0.0219002207 1.2202256906 2.3064701150 5.3713855674 0.8491198497 4.6212490654 11.0094730644 4.8360924067 2.9471863477 2.3654106167 5.4925615592 1.8166421280 3.2536822977 0.9572093380 3.4586758522 9.0706709223 3.0827981109 2.8776829158 7.0920289888 3.2566795075 0.0435976515 8.6116145507 0.6625455896 3.3688500120 7.8939215264 5.2535422282 1.6281586349 1.9327124353 3.0822063087 2.3002437659 3.9245430126 2.8969081558 5.2367202686
5.6179653000 6.3538447274 2.5974429096 3.1298213763 4.3566561186 5.3021142376 2.1091643273 1.3870652513 2.4391400852 7.8533007702 1.8370418559 -0.1050331004 8.8776343705 4.7459883076 2.7447263615 1.3659521926 4.5818314866 2.4097971666 4.0964263036 1.2535049822 4.9566228729 9.6540700974 1.5507927210 2.7946776832 6.9262456722 4.8978002019 0.2386074665 1.9087250338 4.8590428489 3.9077382920 3.6957221333 1.1434872322 1.1822827295 9.1072779941 1.3250439302 1.2960196909 7.3456388950 4.9913713066 3.9967283263 5.4025637578 5.0019314419 0.2910642440 0.2292119595 1.2482705393 2.9121742370 5.6512480918 1.1527648835 4.8828085137 10.7524266530 4.8810138672 2.2954452836 2.0654622660 5.5363476522 1.4885896853 3.3915867599 0.5126807561 3.7698554640 9.1083283585 2.9577377775 3.3535156418 7.4381289380 3.4537744290 0.5956433305 8.8808649128 0.5750576538 3.6825577746 7.6853760597 5.6841169567 1.3850943245 1.9089304085 3.1767207670 1.9345785353 3.6006073430 2.7288544201 4.6634185540
5.6481536883 6.4012467654 2.6183464247 3.4493223203 4.7551438680 5.4072854673 1.9564606196 1.0348923434 2.1486987264 7.5724451801 1.4459834026 -0.1998809418 9.0136466106 5.1109371892 3.0468564621 1.5173633845 4.4008592449 2.7801121419 4.0841406679 1.3720303794 4.8683825392 9.4882686406 1.6988718129 2.4161654526 6.9325299742 4.7615990052 0.3179116015 1.9817221951 4.5730375364 4.2788158725 3.5498919742 0.9898938088 0.8915721523 9.0547551190 1.5783721339 0.8910612616 7.3985699377 5.1220855143 4.2166774120 5.5436716938 5.2731536570 0.5617948427 0.0112946503 1.2840060798 2.4732916807 5.4703540937 0.9272438074 4.6606752548 11.0045124607 4.8658997012 2.7396359398 2.4185375696 5.5234495741 1.8929023151 3.2663077273 0.9080150805 3.6002552284 9.1198477711 3.1017898101 2.9632908283 7.0196849870 3.1980048609 0.2546849952 8.6142642469 0.6168743305 3.3228669898 7.8072598960 5.2550577660 1.5489068387 1.8749244262 3.0106722842 2.2633227985 3.9559706470 2.9599205710 5.0040607718
5.6521783162 6.3760959583 2.5915965987 3.3787791345 4.6336312917 5.3360242476 2.0077515951 1.0266259307 2.2814746719 7.6763921475 1.5746573150 -0.1442600072 8.9760773430 5.0694717420 2.9127370630 1.3960291409 4.4754418469 2.6693552938 4.1048365424 1.2618934390 4.8556476912 9.6108010145 1.6597419360 2.5488002287 6.8893335130 4.8914873644 0.3527057400 1.7758619507 4.7001801964 4.1687085769 3.6512800652 0.9633878190 0.9135851802 9.2334299170 1.4694519297 1.0361151054 7.3256344175 5.1441529614 4.2330849281 5.4523024035 5.2559484478 0.6241745287 0.1076366230 1.1931909576 2.7802899495 5.5209926260 0.9058168991 4.5908064386 10.9075641754 4.9656132663 2.4083725042 2.3608825603 5.5534919721 1.8600790238 3.2935510777 0.6628284413 3.6886126153 9.1098277957 3.0063973562 3.1666002203 7.0522035859 3.3578259110 0.3114342774 8.6424904926 0.5961086210 3.3047216234 7.7368106519 5.5368417312 1.4838423470 1.8721777064 3.1612308683 2.0740986934 3.9198915688 2.7928671962 4.9319476659
5.6445970987 6.3537129434 2.5663545487 3.2353660754 4.4943932795 5.3444330376 2.0536920735 1.1827310561 2.3658242350 7.7789118562 1.7110278713 -0.1657220048 8.9512604598 4.9152642712 2.8108591468 1.4171982032 4.5733578167 2.5060390649 4.1100139327 1.2066492363 4.8896011595 9.5913598009 1.5649546805 2.7029428596 6.9071359589 4.9440180593 0.3151101048 1.8610286842 4.7947833319 4.0616730638 3.6246215006 1.0097471063 1.0428883509 9.1719812590 1.4437962528 1.1412100180 7.3586154833 5.0896435355 4.1091901639 5.4391883309 5.2535961008 0.5691398765 0.1371271896 1.2686315388 2.9668600629 5.5879584750 0.9156649362 4.6497323999 10.8125969127 4.8548899162 2.2708636289 2.2086950705 5.5624249015 1.6549840210 3.3408453287 0.5243670176 3.7055060420 9.2204427460 3.0455130666 3.1666477730 7.2850147316 3.4030822477 0.4049895159 8.7504813976 0.6075983220 3.5682521029 7.6848803493 5.6495529384 1.5062911360 1.7778080308 3.1052006543 2.0760249760 3.7333184859 2.7715864112 4.8500448779
5.6211710620 6.3538575368 2.5925690321 3.1392119227 4.3651939016 5.3111468992 2.0969635351 1.3693860886 2.4279140817 7.8434920948 1.8323144550 -0.1170774441 8.8946021492 4.7592201412 2.7538110361 1.3703235160 4.5703811702 2.4388836030 4.0815761377 1.2515339838 4.9449140970 9.6497126543 1.5712613642 2.7724053289 6.9327346704 4.9020314942 0.2472053304 1.9206468783 4.8520385447 3.9296245057 3.6688225314 1.1079776903 1.1993070071 9.0998979014 1.3362643636 1.2759342259 7.3672505654 5.0229432534 3.9860672245 5.3678573973 5.0310157622 0.3263639891 0.2295546030 1.2397130052 2.9398669413 5.6991670801 1.1217181190 4.8553919248 10.7373052427 4.8864936863 2.2774608219 2.0941621649 5.5415374435 1.4691976308 3.3729039091 0.4946394142 3.7356387556 9.1198934379 2.9873418491 3.3170269173 7.4290034893 3.4144215326 0.5702551931 8.8584563803 0.5710490708 3.6965782328 7.6966165944 5.6841509961 1.4152823135 1.8986764400 3.1360364917 1.9637595698 3.6082588881 2.7812454116 4.6975799245
5.6520529924 6.3703161767 2.5834669334 3.3559562223 4.6114701782 5.3345679350 2.0163101963 1.0466044560 2.2984710179 7.6946814953 1.5962211956 -0.1461572539 8.9720806631 5.0464868333 2.8918255453 1.3883359830 4.4745088703 2.6587241442 4.0779090760 1.2619022173 4.8630702147 9.6084440480 1.6668880722 2.5575024678 6.9185245539 4.9003835879 0.3483834555 1.7647037806 4.7213476599 4.0969379232 3.6526964342 0.9760851014 0.9187016580 9.2430594344 1.4630679766 1.1018289420 7.3136326928 5.1211871881 4.2442972789 5.4286266697 5.2822543968 0.6365893449 0.1234408217 1.1983593566 2.8163920180 5.5644829220 0.8837975051 4.5785674078 10.9142051052 4.9467572059 2.3842078327 2.3539358583 5.5936754727 1.8414862954 3.3022617470 0.6380239520 3.6953866342 9.1351404199 2.9917071158 3.1567021989 7.0828770169 3.4048992310 0.3149643878 8.6376610452 0.5726063378 3.3378932015 7.7196195720 5.5620490022 1.4819897444 1.8445909448 3.1679986302 2.0840346434 3.8967584901 2.7331339707 4.9212792811
5.6513969638 6.3651183774 2.5762743313 3.3321361895 4.5872674453 5.3345711113 2.0263520446 1.0687804089 2.3150371672 7.7123885214 1.6195713517 -0.1493664012 8.9675888436 5.0221373541 2.8715689017 1.3950095813 4.4872678800 2.6376373429 4.0628638258 1.2608090475 4.8646890613 9.5985721906 1.6637244885 2.5767521857 6.9371964887 4.9059645844 0.3466765491 1.7703625500 4.7419421856 4.0616404040 3.6366183332 0.9717349903 0.9620081441 9.2408766439 1.4591891771 1.1376271861 7.3181168415 5.1135830614 4.2198331252 5.3960340826 5.3045925729 0.6443330705 0.1484323176 1.2074884100 2.8531581973 5.6224051234 0.8640080513 4.5712623467 10.8852349322 4.9301856461 2.3575410375 2.3401269533 5.6221225755 1.8157803941 3.2961675720 0.6072554736 3.6792563155 9.1614719613 2.9918925903 3.1482901217 7.1223683117 3.4183316664 0.3214098187 8.6402822796 0.5568077447 3.3810358355 7.7147714230 5.5897245527 1.4981111653 1.8228291548 3.1453358829 2.0862188839 3.8636727709 2.7235225280 4.9118865704
5.6499145962 6.4012993316 2.6224543958 3.4450759865 4.7341760576 5.3781159573 1.9690496924 1.0035187277 2.1731798638 7.5976525065 1.4701346350 -0.1714808782 9.0004669495 5.1281452662 3.0292673490 1.4982570208 4.4195623492 2.7885398425 4.0440677664 1.3885983764 4.8771823765 9.4966649385 1.6999248939 2.4007306302 6.9500936360 4.7639730457 0.2911692146 1.8711695055 4.5651828891 4.2283904586 3.6059923857 0.9730004289 0.8690996162 9.1535410414 1.5788726382 0.9567548485 7.3523432589 5.1453846095 4.2695457940 5.4697970289 5.2448970473 0.5818926037 0.0369811062 1.2619429640 2.5507796117 5.5608913035 0.9292527197 4.6352148980 10.9916625939 4.9058758158 2.6476962468 2.4111649532 5.4874635656 1.8790888110 3.2940497768 0.8647163583 3.6733990445 9.1213148568 3.0262377404 3.0194186166 6.9822445087 3.2611048009 0.2970886289 8.6123345643 0.6153083408 3.3268075941 7.7560768278 5.3039665300 1.4730482826 1.8818233261 3.1003635389 2.2099337758 3.9808606792 2.8872462994 4.9666839198
5.6130837738 6.3536022724 2.6066001959 3.1114431556 4.3465003757 5.2764431313 2.1419043402 1.4112775063 2.4624198941 7.8771651542 1.8344700916 -0.0759837793 8.8384592007 4.7284882722 2.7267678971 1.3427914882 4.5892064937 2.4206904986 4.1153974208 1.2713529417 4.9817763672 9.6428116901 1.5320466526 2.7898593118 6.9395772442 4.8924411452 0.2171177596 1.8555507686 4.8473609338 3.8200426474 3.7432554499 1.2090497425 1.1490275671 9.1508754253 1.3340392625 1.3721896302 7.2950129826 4.9211077142 4.0299896574 5.4252378781 4.9684417942 0.2447219835 0.2368115388 1.2822372640 2.8563653782 5.5911884356 1.1943037911 4.9183403862 10.7988970294 4.8439246142 2.3365125008 2.0799943421 5.6163606972 1.4581840895 3.4267654761 0.5199797701 3.8250216213 9.1140998379 2.8640144495 3.4100933827 7.4553850733 3.5184712381 0.6399058781 8.8766212740 0.5222417278 3.7059737560 7.6449723890 5.6984139928 1.3284392860 1.9082271986 3.2709145074 1.8739099024 3.5836284607 2.6365353049 4.6064198435
5.6385344307 6.3529359804 2.5728793723 3.1921030538 4.4498132025 5.3424073051 2.0626967309 1.2517261806 2.3862532489 7.8083764265 1.7550230768 -0.1607457816 8.9395964308 4.8553096274 2.7909193211 1.3787545361 4.5541359727 2.5272083148 4.0933326285 1.2358295622 4.9227822842 9.5953445855 1.5840816686 2.6929543106 6.9366596125 4.9315492864 0.2692180876 1.8650722062 4.7992070183 3.9362837220 3.6636468847 1.0603399041 1.0256410460 9.1620172913 1.4250345875 1.2567272108 7.3422628668 5.0522686320 4.1354381197 5.4395163521 5.1800413561 0.4928431162 0.1391384345 1.2662505011 2.9905807859 5.5684010373 0.9858167719 4.7224273750 10.8731976820 4.8413301554 2.2569963075 2.1805552730 5.5577582612 1.5314596724 3.3820646814 0.5101798559 3.7496672950 9.2152402267 2.9830580069 3.1841950722 7.3248529139 3.4781937703 0.4653951286 8.7889568808 0.6025417104 3.6569676424 7.6576805384 5.6444020700 1.4449498732 1.7862030951 3.1763051832 2.0705278945 3.7138023988 2.6767842913 4.8057784781
5.623647396088 6.325231844487 2.604789496047 3.045183020441 4.512148587556 5.166599502617 2.360677797975 1.430155427062 2.515289781718 7.957836072719 1.649875909138 0.038303116154 8.666608310452 4.704625144652 2.651635723427 1.298508544716 4.722221448762 2.320410428958 4.207544203390 1.324263549244 4.906572995692 9.741260172049 1.401938554282 2.889168563136 6.758725168848 4.875625058110 0.293658428948 1.525170306943 4.608010611247 3.912721893629 4.046406958778 1.537192203550 1.327880894689 9.514598409821 1.516149391797 1.296857098466 6.919862608098 4.662697169785 3.872340171567 5.194578994254 4.870832096147 0.651058485251 0.364035928499 1.413638090089 3.200106963058 5.845189722510 1.253327906898 4.558520506844 10.602222614444 4.786250900255 2.000119282390 2.141235286134 6.033964364906 1.578864095679 3.432980661956 0.113073316065 4.129569914884 9.000353354258 2.627554168030 3.621837761554 7.464965200505 3.543627007739 1.002073471847 8.898533125784 0.090188728811 3.630720075607 7.533277880986 6.086815674280 1.070656330564 2.039415265187 3.496605452024 1.587746409733 3.501304269052 2.656261982605 4.198152773601
5.6207669569 6.3287439082 2.6086812926 3.0395647322 4.5035448351 5.1645981494 2.3472954109 1.4339305903 2.5173412695 7.9676894663 1.6566510163 0.0422144435 8.6746800302 4.7030419883 2.6547750796 1.2798013339 4.7338655192 2.3128209323 4.2257850403 1.3187193988 4.9149548404 9.7258572088 1.4019086321 2.8895441579 6.7785887539 4.8668811065 0.2770238434 1.5774715098 4.6633967083 3.8137946496 4.0285061303 1.5503298198 1.2139091608 9.4307354685 1.4733961103 1.3826675200 6.9552357353 4.6349709421 3.9804230628 5.2635709272 4.9025020818 0.5923090074 0.3281754679 1.3836017899 3.1377983874 5.6815716052 1.2563664763 4.6226795319 10.7411685838 4.7783855224 2.0703985961 2.0724319470 5.8921447215 1.6641867285 3.4867159225 0.1951853218 4.1233050866 8.9992310760 2.5896697369 3.6020856812 7.4587644057 3.6411851157 0.9193253055 8.9576419334 0.2358533877 3.5427504537 7.4901680161 6.0054859932 1.0709806396 2.0019001635 3.5481464211 1.6110206920 3.5510022330 2.5444306814 4.2911568226
5.6502010886 6.3607862216 2.5706090622 3.3080515665 4.5624892398 5.3361612146 2.0362828741 1.0931738198 2.3303887907 7.7291395511 1.6436427556 -0.1537817270 8.9631783773 4.9970514169 2.8527334753 1.4080412295 4.5117421614 2.6005992964 4.0649675704 1.2457893286 4.8642307523 9.5914720427 1.6439826005 2.6107035328 6.9383883587 4.9155666185 0.3473560439 1.7933042296 4.7622938499 4.0694657069 3.6152766257 0.9636593596 1.0170223747 9.2253039495 1.4552275129 1.1344579462 7.3351908491 5.1164302226 4.1700550387 5.3743773628 5.3142574051 0.6420765451 0.1678516510 1.2218388601 2.8881604890 5.6642927655 0.8556183466 4.5744949410 10.8370769903 4.9133673573 2.3303639859 2.3165514104 5.6306317574 1.7833854060 3.2877434404 0.5758109580 3.6583054042 9.1831707004 3.0132813353 3.1477658848 7.1688032347 3.3982017393 0.3328098750 8.6539270537 0.5538735160 3.4300963829 7.7169351817 5.6168436826 1.5224621817 1.8073954709 3.1065485919 2.0819878312 3.8227546103 2.7622685045 4.9021918680
5.6486158398 6.3574457167 2.5669559335 3.2837505035 4.5383051586 5.3388622288 2.0443555429 1.1202427573 2.3438239760 7.7456169861 1.6673256716 -0.1586788440 8.9591639427 4.9711137931 2.8362258231 1.4206229028 4.5411793732 2.5577005768 4.0780808849 1.2263330824 4.8671400674 9.5886664950 1.6122913909 2.6501102884 6.9276494637 4.9279827124 0.3441589412 1.8224356621 4.7785705247 4.0892034000 3.6025130189 0.9655664665 1.0546486658 9.2037560851 1.4517092785 1.1176831540 7.3529271455 5.1169355122 4.1244565959 5.3761333079 5.3078462536 0.6279452590 0.1715571884 1.2395662653 2.9194733781 5.6722837375 0.8622056138 4.5895298300 10.7982317774 4.8938559841 2.3060693805 2.2819162065 5.6160315557 1.7468122110 3.2906662851 0.5501612265 3.6529046907 9.1997715984 3.0419786647 3.1532635008 7.2157309041 3.3741750675 0.3506657256 8.6801723337 0.5659364601 3.4792559216 7.7156517900 5.6375272261 1.5375489720 1.7953189845 3.0773811496 2.0772684666 3.7827876246 2.8012991213 4.8893289318
5.6154068562 6.3537644709 2.6021592760 3.1206469093 4.3512417544 5.2909297286 2.1239984970 1.4006603675 2.4507860048 7.8646122733 1.8369911217 -0.0916454139 8.8587197192 4.7361218507 2.7356209318 1.3539779173 4.5859463508 2.4059532579 4.1106338084 1.2609342194 4.9704423989 9.6503915809 1.5375567597 2.7994416110 6.9294544038 4.8944199002 0.2270921404 1.8833703154 4.8572104893 3.8640001915 3.7253760960 1.1806447984 1.1544170701 9.1272228577 1.3246722983 1.3340266620 7.3168131801 4.9543382490 4.0212349875 5.4295168007 4.9807748586 0.2632436332 0.2295760700 1.2628194950 2.8834995961 5.5989337418 1.1777791174 4.9045329601 10.7829358182 4.8657058674 2.3159561126 2.0610129961 5.5622981945 1.4847460827 3.4130207697 0.5261149663 3.8058923196 9.1076201479 2.9110346715 3.3842745115 7.4437086324 3.4997930799 0.6186638846 8.8880771476 0.5612661063 3.6837288313 7.6652305206 5.6850200880 1.3512218240 1.9098642840 3.2299433480 1.9057826885 3.5968660278 2.6647964626 4.6327168836