-28925.452113867
-28925.7622715103
-28925.2156454297
-28924.9109014884
-28925.2091314359
-28925.239586129
-28925.4539968938
-28925.3710552777
-28925.5561369476
-28924.9610558527
-28925.3434444448
-28925.4741103139
-28925.4885599595
-28924.9391324683
-28925.6612532451
-28925.4339139504
-28925.3574124492
-28925.6545372069
-28925.7430956579
-28925.104760866
-28925.4175161067
-28925.5122365724
-28925.2443928814
-28925.0229731481
-28925.4636346167
-28923.8916517361
-28924.3451738424
-28925.8114412312
-28925.553780307
-28925.2945653413
-28925.3390133454
-28925.32116568
-28924.5470496896
-28925.3623555306
-28924.9922134155
-28925.3665134279
-28925.4874214358
-28924.9468890693
-28924.3116158287
-28925.3597818792
-28925.800426885
-28925.4024148849
-28925.1333002868
-28925.5463365007
-28924.8749752691
-28925.5706604721
-28925.4301639515
-28925.7052817859
-28924.8625166794
-28925.0178878873