-0.0310702229801466 0.0947767270663878 0.222592626895964 0.112490333138822 0.338895389831463 -0.150697934804951 -0.421247781514467 0.634490853708087 -0.278192704015695 -0.0255606088640832 -0.288201232117613 0.423417791460782 -0.0775035507377971 -0.357934656008541 0.555793540389634 -1.92537140675903 -2.17692466758188 2.53354086257091 -0.396426107316937 1.33706551237161 0.758781001595269 0.324665112521194 1.91732977155869 -1.97420537229734 0.960027826860555 -0.747533716630633 -1.0637679291341 -0.717312728585638 -0.335479938157666 -2.18054632162262 1.08464296201932 0.800531838696252 -1.83589886277232 0.468405388658228 -0.0972431850539465 1.97518213388336 -0.848166642340055 -0.652762903098459 1.94625415294974 0.708939678359135 -0.77599092881879 -0.590548923625767 -0.520718054975401 -0.363774142489666 -0.392656614920857 -1.67693817800947 0.793263848037197 0.597844425074425 2.33559224673587 0.171024551669374 0.34838686935494 0.511351016780599 0.32698090394139 -0.71035661257882 0.78151468399493 0.564501862295046 1.14509702228792 -0.323265661793967 -1.77591325725753 -0.0324308500697078 -0.761722084981039 2.13773207680387 0.35652286399252 -0.0424836011231382 -0.178608016523231 -0.136598526577937 -0.590264559763134 -0.675223020263181 -1.42560680327473 0.197479646860854 2.12984959280693 0.186353717902694 0.87294229381479 -2.82085377900552 -0.278259295553147
-0.0751653907316615 0.0525983157307229 0.131270175141038 0.52495883033731 -0.397551221478675 -0.752146016207284 0.33601884110168 0.123415201933709 0.0352374648296568 -0.461151024838883 0.319322620024219 1.00844321702059 -0.37840576879593 -0.0754006465493011 0.129475546062214 0.404481626467172 -0.446155587623373 1.66468893466085 -2.49143829873929 1.60823088085974 -0.306231083715398 -0.217979813098947 1.76728926749221 -1.60999337116566 1.56519809238526 -0.93528817081147 0.246860228648671 -0.325905412045011 -0.0592518130518993 -0.757347355213676 -0.678498089776944 -0.685524653973962 2.01134416693185 0.160993654981517 -0.275907765817484 0.767168964212398 0.306621634083698 0.420851574722136 -0.988291949301119 -2.5052667128332 0.00136114130992764 -0.0844632662871797 1.58590986030413 -0.646954269839319 -0.454323463923672 3.94588695103626 -0.196035716071932 -0.16805981414675 -1.34701002003791 0.747396934013164 0.33440778869367 0.61396703333314 0.79746091466796 0.035774568002388 -1.06991054852123 -0.213564459922636 -1.4209083717867 -0.613057377504933 -0.112247106905502 0.279142983252849 -0.090374229399238 -1.01159615919733 -0.111728001445596 -0.733547179774049 -1.07212478141906 -0.122849302420458 0.780118575700085 0.180155048495621 0.523942730893254 0.80676856041044 -1.05407024724369 -0.452230587032321 -0.0432145653740117 1.16359070065622 0.0608160714065649
0.0573872500032413 -0.0157857939187056 -0.00661878744644263 0.35161694458664 1.55701247548232 0.0315978130760989 0.309737295283869 -1.31654811975124 0.0848497028925483 0.192860919529623 -1.71525710838493 -0.0283782793619104 -0.604133083045623 1.19444160865009 0.0288351641574792 0.0473686946041781 0.68936279478896 -0.464851097485496 0.986115254490041 0.0586838566571826 0.499005871333645 -0.729827052533146 -1.23027582621498 0.0134157522498516 -0.331151231113099 0.144654302838355 -0.359858097289155 -1.05257155198574 -0.270430547584506 -1.23927622528852 1.01099812091118 0.928502261745939 -2.35634360962297 0.890121624926508 0.393443886301854 0.989208547104272 -1.05867663328613 -0.930955350003971 1.94622972748234 2.06430680779219 0.229784512940788 0.17489611680819 -0.960148411536482 0.514524270661809 -0.44793041921809 -2.92990912009662 -0.0619558408487464 -0.164593968877043 2.00889724931822 -0.592917165523339 0.423979320100918 -0.570270129255421 -0.444795731864362 1.47536713680315 0.844747848233876 0.863925439689523 1.50163197045905 0.439983143454988 -1.2360494924892 0.041220933013381 -0.665501684235912 2.39256452090341 0.0245586504801036 0.368493399902534 0.666170427822448 -0.940385894414026 -0.79665101759084 -0.463070609466749 -0.958117498199285 -0.673406022598418 2.04468852948251 0.0275436997072022 0.799611127130167 -3.39971704480428 -0.295986528465291
-0.0399976027616554 0.0231900529748628 0.0206965984180667 -0.149708574819949 -0.585164779279112 -0.173065492303716 -0.122766770051647 0.113620332394041 0.0236708490174704 0.16197504455084 0.474942929286775 0.127205777364813 0.113497176616282 -0.0799175582479805 0.068124685474567 0.301347532895457 -1.36399934672423 0.858865768394082 -0.853423774256203 -0.369338778184937 0.166343346563622 0.322357805737044 1.30941459771801 -0.570164714080304 0.0607443376654486 0.431194603172414 -0.108157255221139 0.568896132436333 -0.100270914571458 1.25667847092908 -0.715899136798335 -0.496087156533815 1.67830060487031 -0.377753223150937 0.171693809476277 -1.08046286466065 0.594943450877237 0.346627721481399 -1.4155080294985 -0.995272747885525 0.0757387464402257 -0.102119536788757 0.492405081600027 0.136128529163024 -0.308777502969936 2.29541800927835 -0.161181088305079 -0.0921740006817264 -1.80519785001527 -0.0613994544122743 0.120240919611766 1.38784914442922 2.37936628386856 -1.39033128613795 -0.538708311604972 -0.871162062906226 -0.792453693849894 0.0914175825227148 0.901864104104012 0.108456274364216 0.714477317485169 -1.67662964578961 0.475660009587755 -1.20543666852499 -2.22155668139595 1.26995152702725 0.444237031436241 0.782802034682275 0.680191417443582 0.198106481487527 -1.14556419149082 -0.273028131765503 -0.943507726258594 1.98568765596943 -0.548143226888142
-0.0123996528057953 -0.0241472741869634 -0.079174509818496 0.0855050767495573 -0.193155567799584 0.0416397655018344 -0.335367323897419 -0.234113734205722 -0.331511956700146 -0.286897683488725 0.357321705331762 -0.141321640643553 0.419543140999767 0.0798993034249724 0.121959701186543 1.17539102962495 0.499468669663427 -1.10393368195558 -0.832330969045806 0.212657118086079 -0.310098792201466 1.14739687287676 -0.20750720111633 0.984591876654506 -1.04849584136145 -0.297661344198738 0.935799305855697 1.10119777249601 -0.137828541694426 2.90537026710063 -0.601876684077749 -0.407954413711825 1.89757342508063 -0.868766824439417 -0.000193346857775895 -2.61676974286849 0.620539540946604 0.572484105043065 -2.04123065462849 -0.76197431007077 -0.3254690960641 0.127415322164131 0.978081075485013 -0.161252564936012 0.489412319067432 2.54376510611654 0.112933333984497 -0.258112912927155 -3.11795513722522 0.417351019577696 -0.475211095207866 0.177392913797368 -0.0852191702258248 -0.563289844891381 -1.0083894809923 -0.861096456343635 -1.02756578689703 -0.600388016116948 0.870467608301368 0.482472401002157 0.209543770877557 -1.31300539853676 0.258839249194731 -0.43737913151941 -0.191252952443811 0.634269996060708 1.03246630698906 0.945027247441381 0.855400437344742 0.876693788498045 -1.21236784484404 -0.489236198591931 -0.455295340416216 1.58461479631129 -0.297287248882164
0.00275904937605469 -0.0708279419408645 -0.131426755242615 -1.0873863276742 -0.156222718421824 0.435317622070411 -0.0844303561837285 1.39273063836769 -0.233041070521359 0.567937625673316 0.124401733706696 -0.51327188695938 0.100705430781088 -1.12327119594518 -0.0493445863621672 -0.528502322882347 -1.56081282110038 1.00215455904939 -1.50220172662505 1.16607335658532 0.718198987387172 -0.188505215915818 1.43974760624124 -1.45332610923706 2.10905760651089 -0.701643405579927 -0.76448164857746 -0.335977189252 -0.00727210442198591 -2.54252429237236 0.496585436068881 0.95542966834398 -1.41153079207438 0.251407993569336 0.271040155828903 2.16270930266224 -0.721208462081675 -1.01128094211271 1.50564108954589 0.532580090388099 0.567885689416307 0.13669802821884 -0.627238289660026 0.524804564227383 -0.14518934912962 -0.537544630915751 -0.186040043479175 0.0162128539330218 1.74159470422268 -0.913444346755908 0.502790533230534 0.337656890078928 1.15832199878183 -0.42771538817318 1.05919445319512 0.538503909009318 1.2637448872045 0.75419287037584 -0.831484819432853 -1.02588840006175 0.21175363290227 2.24819766724989 0.108485584925102 -0.633778915610772 -0.932102318531282 0.992928160124809 -1.0196097693877 -0.581778381056018 -0.964199953803546 -0.891812381491314 0.858579861870349 1.16643639616402 -0.00722968124175583 -3.16953632507116 -0.349377000670492
0.0773611116962973 -0.0161269791318287 -0.0673376712037531 0.329234217587065 0.424040769434706 0.339634838718382 -0.375325588801043 0.00686612744269317 -0.282593401911562 -0.620259033736719 -0.0279085390571809 -0.443879134061209 0.536510276648687 -0.0182424817193022 0.0128670791188759 -1.43245441878423 -1.97756245995955 1.98278256800931 0.664871764287041 -0.790321993320878 0.150891795883093 0.169712775514624 1.67393795928156 -1.28250698860407 0.548691128688569 0.663220602690449 -0.255740814376835 -0.696958858041793 0.108243387132515 -2.06134335582048 0.411373722038369 0.288882831213309 -0.897605073919094 0.60426086680668 -0.281834926871085 1.9910761711892 -0.59391526725457 -0.13626505467031 1.31684019691937 -0.376057581492649 -0.10831974885693 0.323248178301509 0.183889573906785 -0.601034648227728 0.508491437322908 -1.13931949936095 0.163605380222591 -0.280359371529628 1.47215814460647 0.58915024422909 -0.491363785358016 0.0976892712218204 0.621926907495219 0.127712798646108 0.0306097386420127 0.458406630743272 0.408926804424735 -0.296947863440323 -0.816177764675289 -0.437774052760825 -0.267805195503721 0.383757003039135 -0.0646539551113797 0.124298632523228 -0.00938066503451265 -0.567463257385289 -0.0124150794167881 -0.631137879808812 -0.57933994807843 0.0708811637487895 0.591183471557936 0.517848191110382 0.489916255026529 -0.558907916038889 0.0316410075868786
-0.00772873210737153 -0.112008508655481 -0.206220621759534 -0.709629762090878 -0.0313332466975731 0.546979031978556 -0.160546283262727 1.38851171737136 0.163949650757913 0.156913573484116 0.0927645827725658 -0.668581350010433 0.184533892025915 -1.05296287368459 -0.562339822764411 -1.12651361246568 -1.29702240110753 -0.0625518222534333 1.37555542101891 -4.03839596628671 0.0417197267688135 1.33456897249262 -0.515413100565175 -0.019585625316405 -1.04389716862451 2.63288515204207 0.379251918408883 0.145611524050455 0.24828307640257 -1.37665765237434 0.302518155559624 1.14695721446346 -1.27940186892142 -0.232926142269463 -0.0705808590547972 1.00192367410487 -0.167255830603844 -1.00029693797568 0.48692477804485 2.1237146867253 -0.0381145277798061 -0.245992224670145 -1.19581869079137 0.402392863338752 -0.186013304020121 -2.70671279849048 0.343048233510713 0.269858477426857 1.39726271956718 -0.708981330208816 0.409877597882255 0.197151831377258 1.12700777823781 -0.108036156324846 0.593458639569184 0.255956272710368 0.667206838970978 0.0356665817254387 0.654741108848097 -0.253873166005979 0.606772319076301 -0.803687094864637 -0.272894177360049 -0.0545068446207103 -0.374459641703983 0.0885603170566729 -0.0467148634082684 -0.0293617258126987 0.210088073135418 -0.512447334601817 0.541733470020652 0.816029412099576 -0.489030510445361 1.23833700178925 0.159778038035288
-0.0471753477464022 0.0142464752518116 0.0336043009458902 0.852710036387605 0.0579354089138506 -0.560106820823209 0.308508308608112 -0.4827703917045 -0.0224691160211346 -0.644041725683887 -0.213507895682329 0.657121692034463 -0.425105719813572 0.623838778817588 0.0435572932482342 0.572640942254825 0.847638795133919 -3.7483108878567 1.5283233499089 -1.80078403950006 -0.586008357790232 1.37848647710753 -1.57569667249638 3.0494270458732 -1.85965352970952 0.374438301558776 1.13248551069116 1.02210219550376 0.61677133410144 3.49815322110833 -0.421329542552729 -0.207850957431285 1.16263193678302 -0.795596351619302 -0.514826375127084 -3.03114136964311 0.52804878051916 0.324825292165335 -1.65684373164048 0.228491762939595 -0.0853924624893102 -0.147450118970609 0.174350528999413 0.0228342124812965 -0.67882590526054 -0.021675159775374 0.121490732212363 0.033437179326802 -1.9275712414866 0.396036842499553 0.273625912941472 -0.455690518767814 -0.339178982363546 1.46851926418346 -0.448530514385708 0.129323851054119 -0.457317254897 -0.640025150401739 1.57959677686553 0.849457078349599 0.389502644303387 -1.96178232246487 -0.101537439333964 0.207369390058128 0.189949660925106 -1.10883497337816 0.634992218565352 0.465060128064448 0.762115720671537 0.630045675750524 -1.47428264605036 -0.684403910685338 -0.769177508963655 2.8920858981544 -0.180885755636312
0.084724747343507 -0.0338760664095459 -0.0615935726005999 0.00159202625445258 1.67872020868931 0.849419283152667 -0.429257020831723 -0.281392954466142 -0.264710874448758 -0.0206256360075001 -1.04868687422758 -0.582267918844855 0.476653226225505 0.209025436748201 0.0956249335608062 -0.217235736228729 0.290005631383399 -0.555287033328705 0.763619558133148 -0.221855234890511 -0.00573175731435907 -0.128779291686074 -0.546999857903396 0.235799091456681 -0.387315665084981 -0.0145632349975296 -0.283427724456087 -0.712751336825263 0.0538095618038376 -1.52131452631453 1.12321540303543 0.751683989208051 -2.29401341634746 0.436004363369772 -0.0982736826682627 1.2511721992454 -1.02795762281625 -0.540234774762705 2.1143659033535 1.62234057349408 0.153228156117946 0.499090974804288 -0.805124855009162 -0.277138038044157 0.548700127544981 -2.88194418697758 -0.087767132141462 -0.376203877186897 2.11146595759705 0.13055566594189 -0.463045155558611 -1.16087047491783 -1.4491182439786 1.87085710594301 0.771886678964167 0.921683956797323 1.472943359106 -0.174724624315987 -0.195198822425575 -0.289446416734911 -0.72284548261819 2.36561320305833 -0.122039919563705 1.06364760156836 1.19733435532141 -1.69304124589425 -0.621878827890958 -0.879790423544658 -1.05439086364215 -0.342495446616806 1.01883741039733 0.59245873806667 1.17865607184156 -3.0956022350069 0.0360820717815103
-0.0230314159918206 -0.1200275181597 -0.167407782722122 -0.290177638095968 -0.882984760460892 0.321651781173942 0.273063870080969 0.923774262586842 0.798122202059183 -0.11726486924108 0.585163493728196 -0.515564024242721 0.134511049000433 -1.30046742045239 -0.949851662919183 1.51549123777494 1.63367090504789 -0.990345231224255 -0.320492985578202 3.36742297735204 -1.31571765385947 -1.21110543384446 0.151808907906612 1.69716709300427 0.469442056916941 -1.71054247895536 1.52921089426135 1.13254104649073 0.819452062858502 1.55106603116498 -1.29228900263458 -1.22518504458737 2.3709649515219 -0.772294455714742 -0.744103866786577 -0.807643763474096 0.824511734153944 0.512154228992955 -1.34333385863833 -1.54811543470243 0.788035255351385 0.327599511042199 1.76761296921288 -0.816200390371412 0.281002146987659 1.95107882553773 -0.878994410417432 -0.307153080832399 -2.59912375677424 0.82960303000192 -0.41246618320684 -0.602801766516948 -0.67108688874584 0.443168224404626 -1.02495766119852 -0.613362567292407 -1.61775192805428 -0.249465269024982 0.173302805002822 0.225437551073212 0.366650691219449 1.03910154948723 -0.464158956872288 0.576361583716094 0.771359345978397 -0.754858785750361 0.702656933922152 0.530142171630877 0.732109676739708 0.568697643374892 -1.68270824474112 -0.987066562167928 -0.231500723413732 -1.47932740495517 0.355819153421068
0.00611253749569697 0.0255570093215182 0.0782946787715424 0.110626541420713 -0.769975578972347 0.0917942489411213 -0.118908060421992 0.234770393613647 0.342246563959456 0.104557198435796 0.882447657288161 0.0189500489435034 0.215066754723148 -0.0558098790292318 -0.186269385762601 -0.0393648546007691 1.41943204511469 -1.01326634694748 3.5625408100699 2.41732268888569 1.75616822362754 -0.213012958579645 -1.00522779706933 1.80792913149153 -2.446580027964 -2.00926337421911 -0.440311216048767 1.15303272809278 0.744164030569448 3.11338268972697 -1.10341149117347 -1.59397926340426 1.49308125709595 -1.13097884501753 -0.580183783699733 -2.97344301631819 1.22408924098652 2.04126536450322 -2.01081143463224 0.401523830919494 -0.821020177865916 0.202134626727919 1.32242308743765 -0.0679799324414183 0.24897213169358 -0.92671046087913 0.739592097291561 -0.0848363331630212 -2.22385113267093 0.708449883460115 -0.0959365511028599 0.577664618124616 1.41391806012551 -1.28896945305912 -1.57402159965275 -0.727268291989814 -2.85960748270079 0.109937486129703 0.267318743037083 0.447376346773267 -0.190961389496048 0.461267238641695 0.371187400402236 -0.156725625940187 -0.499576398830193 0.764146634008734 0.897833901982154 0.71311129108176 1.66305345678543 0.391277475898104 -2.6277126093762 -1.06046303483909 0.0478404917903733 -1.31061967314673 -0.384803184374627
0.047269450073458 -0.0325360081346417 -0.0565123040497687 -0.118646579365665 1.33044029717059 0.407879337538327 -0.122835932690931 -0.424250571344207 -0.299770933251998 0.178414155445089 -1.05150557316614 -0.275598462267079 0.312753197732953 0.295872885764311 0.20955919748855 0.222095890021998 0.970249756414539 -2.28969807903242 0.662388079917207 0.00211755946893919 -0.359262115884468 0.343126909226776 -1.21879225699197 1.57897559866289 -1.0010870375687 -0.319740681182122 0.0844365268281256 0.379303597555709 0.0661603636748225 1.12201392714927 0.506733060779917 0.435879664930914 -1.03487131564283 -0.415890890847232 -0.00763668666178141 -1.03072798504036 -0.285079657383228 -0.289731037707728 0.641246680882182 1.13698416756683 0.28242679451284 0.592937477227812 -0.559953583154014 -0.055169160452666 0.536239282515581 -1.69832023217598 -0.213416364457106 -0.417834643832319 0.487869657968156 -0.0591044889169184 -0.427870939834024 -0.895021630798174 -1.36685172709679 1.5778635971205 0.480919455495552 0.149345535241252 0.807447331294121 -0.228823435075939 0.761667063401831 -0.0105212058072439 -0.331534068175902 1.18555948026082 -0.119185739419862 0.829477560232512 0.907159288327276 -1.31930691201712 -0.340218221724092 -0.109165641359699 -0.315944706437171 -0.172488022832221 0.126018956759104 0.214157613115308 0.582564109775916 -1.36499744845546 0.18434774425327
0.0975951688947646 -0.0260496324325536 -0.0649200641510048 0.25525539035093 1.23025680006142 0.820478446709887 -0.501489812813662 -0.12242764171999 -0.246669710002911 -0.403488409829421 -0.594202716439402 -0.665363358957343 0.553676238030878 0.0999076178825789 0.002610696800341 -0.769900245688666 -0.742304609724455 0.781076568242735 0.804914281769111 -0.49758096669828 0.13506460722489 -0.233922701339595 0.526246181024656 -0.605420433732969 0.176577360296218 0.325357510244585 -0.331041445064867 -1.09285428994058 0.138949027872867 -2.58198016397798 1.06291663731748 0.66786246993817 -2.21204926104111 0.832368507132555 -0.242562631936272 2.2982552201501 -1.12849850308008 -0.451401920911827 2.30211392977976 1.05254584096742 0.0107628893794637 0.397935858312761 -0.540020601980089 -0.48272873985482 0.531335162880983 -2.69482248095762 0.0506134251163215 -0.324297959179566 2.44451054809932 0.385902844628227 -0.502587416185796 -0.879892753397577 -0.838561005895231 1.42692423585351 0.606192535613156 1.04272371774833 1.30342521600007 -0.172402405141211 -0.831005308941162 -0.478500820002071 -0.702590599494883 1.98662867923999 -0.153278549713856 0.863299633503584 0.932429105574145 -1.47200542115764 -0.502103791931173 -1.07610176173299 -1.1242587561589 -0.265735201418677 1.18859929395695 0.711517979276392 1.13786939792763 -2.68131236927053 0.0516354380945917
0.00542836729816817 0.0958087673418033 0.179727988481305 0.597644393351886 -0.645228289179413 0.0542067970369011 0.611128794020655 -0.337512137045779 0.0698162133699229 -0.137047183847643 0.553569023084478 -0.0509312133027723 -0.722133030300508 0.612657056949671 0.0060338617796339 2.65465030038157 0.467949532303392 -1.22582499183339 -3.1835449734035 2.23958524744282 -0.70665114061836 -2.54966809881292 -1.1636614059566 0.794664327205156 3.13175861163136 -1.66336353166639 0.0250790414909259 -1.31203866424788 -0.0247486549054977 -1.60469947249331 -0.218743944563455 -0.615355428322488 0.287825594139939 1.10632326399836 0.198805306965499 1.21041766410437 -0.485998667164918 0.627997021810686 0.370005464890007 -1.80161861915476 0.33123376348191 0.219272820210323 -0.0448808964714128 0.120710402806313 0.0602637987330242 3.0885677003942 -0.741517081233274 -0.349505298651915 0.2704428888733 0.334293117551957 -0.00498022424882856 -1.64689202488905 -0.561357404754355 1.90790822600505 0.679405945833867 0.628858340924448 1.41314415847404 0.553015721970205 -1.69549896213558 -0.471125357286434 -0.268478824183739 1.51031715244797 0.498046593240078 1.30043759567114 0.698275519290025 -1.28540796280126 -1.10066401175566 -0.538925312599603 -1.34967136754434 -0.609111507523169 1.3764285672011 0.559959753798411 0.0820166057837284 -1.80932086891326 -0.607575274178474
0.065902225050877 -0.0068666416630596 -0.0160359621269715 0.0534375233687289 0.772436380535875 -0.532162286340378 0.651246981458237 -1.01000439005306 0.103847317219946 0.371656626486599 -1.18165577634911 0.332215153051232 -0.481470956838543 0.832273890585133 -0.00513294769765686 -1.04285612949269 -1.00616470657696 3.46238250975869 -0.088150483424632 0.748677342725563 0.289520207357493 -1.10224961025554 0.992068383672146 -2.40153715207717 1.33018575808921 0.116725709186883 -0.400172716906711 -0.951745536528727 -0.626095177785462 -1.54824938910788 0.195151771262047 0.116765818375464 -0.768133384509629 0.890238867170053 0.768658917724115 1.26977412100084 -0.511129387802669 -0.386930514030528 0.980985135004399 -0.549337760799348 0.561695761755463 0.529911543796535 0.0500750363926742 0.424504081984855 -0.0695722158060541 -0.311420081432995 -0.427416626140287 -0.40329943384476 1.09025284910683 -0.696345907365014 0.178998052671164 1.71820487663546 2.20635401337277 -1.64629218683162 0.194925000080454 -0.326424260394734 0.128961068585606 0.769230473661397 -1.21150035508588 -0.405971579978889 -0.251223645567973 0.472281838890524 -0.167747939494513 -1.07668771584054 -1.26117429959274 1.07634884461906 -0.630937076755722 0.0664005045859431 -0.261055024753657 -0.660346882172682 0.888363762603883 0.0272912175072874 0.277047535259666 -0.8266274938516 0.245126534683269
-0.0339146329370278 -0.119188053411511 -0.144459156209296 -0.0926877068277852 -0.600481090003271 0.454786519363638 0.284258961678413 0.710038310172003 0.761687117996122 -0.00583100184507914 0.284019849208026 -0.587775476079453 0.225966683830264 -1.21110954760739 -0.784771241575501 1.43203918583834 1.05581885359972 0.293359633723408 -4.28837159902537 3.34980861581032 -0.52891472761622 -1.59567130551998 0.552017877349157 -0.121692306596002 2.84616421966134 -1.61135039871266 0.41577390571387 -0.0955169472838569 0.549023057935096 -0.826503052522925 -0.192073133928259 -0.306188146314802 0.171864273527747 0.281716399076624 -0.619013592009237 1.42888907187362 -0.0858025532315343 -0.166413280533456 0.727343368163312 -2.12837917966914 0.937772883622037 0.551633497625254 1.02793602556086 -0.728806325105792 0.236891295514968 3.64295973317515 -1.40502204778636 -0.615235614977111 -1.03554237322102 0.487269048580171 -0.32517624756542 -0.858707902741589 -1.33991120787941 0.583168061596282 0.162617562898688 -0.171302230667244 0.300576716566186 -0.0627834785285079 -1.05236457828826 0.00949944993915689 -0.0675762694537745 2.20211812310434 -0.251094062035634 0.591890524561771 0.952160255254249 -0.749608595809159 -0.331462591544969 0.216405270336953 -0.807808828211719 0.213384225684204 0.636233289419719 -0.39440316439542 0.165386896682071 -2.6015349360724 0.201970333320846
-0.0373172291016637 0.0172551786157657 0.0251929413020891 -0.604549858652611 -0.734457606932805 0.285078628942495 0.512637339027212 0.743475232388622 -0.0535303401448687 0.22346860129017 0.536719564337822 -0.296409217606493 -0.17819098380606 -0.637225220506554 0.0834479381736731 2.03947433496696 1.21048348431127 -0.0726647370897355 -1.98396553196227 2.47579237276025 0.111519227976828 -2.39741079074679 0.0164031154685991 -0.0778928155551811 1.65110297546971 -1.55762002684525 -0.717621517915676 0.534840088898538 -0.191837621000437 0.237276703679604 -1.02140671245817 -0.860749357596297 2.07090142688141 -0.335022539141731 0.374399735031294 -0.092842230047896 0.499354255631898 0.406892291544973 -1.02862482374168 -2.19651543510195 0.534544669298027 0.167066854619183 1.29566537356053 0.154875461061789 0.119191910064259 3.74398063815103 -0.713909618200635 -0.277161177960646 -1.53675527836736 -0.149077626430345 0.0571566221688996 -0.342555353289495 -0.254940687486678 -0.349897905901681 -0.919562797785819 -0.233994177970528 -1.38871380597536 0.564111826147112 0.0280944297196436 -0.540531222803949 0.477485491888565 -0.536916510738163 0.105014340341548 0.180677496387909 0.105778471806056 0.84525229841334 0.390941432888645 -0.0705808590547972 0.734458892483721 -0.110186625897237 -1.36789585155082 0.0293956643568827 -0.450300717997127 0.70449115796919 0.0249366024494262
-0.0509265853194744 0.076775414698939 0.185822014043811 0.314549626583059 -0.0532963698781452 -0.487908738716004 0.00157762808419267 0.425631510138242 -0.0728105185636171 -0.230269936966693 0.0206703731793791 0.77029516693008 -0.237045818735079 -0.29094048400956 0.328408636788769 -1.64123714351948 -2.21361094829394 2.89578802768248 -1.89015296808293 1.8785701543292 0.508929810185285 0.0352300086343436 2.71592531346517 -2.51631910827896 2.16905169666173 -1.11346784176947 -0.746690652339879 -0.702340945506983 -0.220275549924852 -1.99780500179406 0.396225304263848 0.169653383062302 -0.282104635453275 0.457971857423459 -0.197748327002312 1.88767262614548 -0.510050039253543 -0.241242114035292 0.991707143864732 -1.32400225818294 -0.296569397250634 -0.282143201980757 0.758371167963228 -0.608652308735951 -0.41489998820113 1.15998961543014 0.292734598868018 0.227663611039467 1.14365180594808 0.440832635500322 0.414537719952984 1.03439180515114 1.17152743490181 -0.785576767779506 -0.173207931345216 0.235722472622084 -0.16109315662242 -0.448438726050301 -1.39366163434111 0.0241233629399246 -0.617092978940639 1.07376642993887 0.0930571741610617 -0.739720652383168 -1.02968154659469 0.119781977934732 0.0316014126186638 -0.360963413966786 -0.614903171510217 0.415622210705775 0.995524972975257 -0.0177490872777172 0.646252616149332 -1.47722501498704 -0.0677829860410774
0.0805935009196465 -0.0137803344896471 -0.0116818011742657 0.126963322462044 1.54471592385999 -0.0497073688306802 0.463217676491546 -1.33870279001831 0.149183041605462 0.403826252610163 -1.76847968764049 -0.00618401412663008 -0.608661307592364 1.12861523110326 -0.0165648377738398 -0.491292565837266 -0.102859499896043 1.84173397838033 0.625750650139957 0.564356080821164 0.539846281275871 -1.36308711979419 -0.158777365202224 -1.4347843512645 0.593188159656445 0.0727845504351126 -0.521071838587502 -1.36032704197741 -0.512278927431813 -2.14684457591729 0.901817052940484 0.695578947688491 -2.22364878695675 1.17168041546082 0.660678554309026 1.71712064299285 -1.10052748624838 -0.828314136653475 2.07067465569981 1.32834356362649 0.409649541149745 0.365329401987919 -0.620438753754785 0.505569122980513 -0.244526953736017 -2.47488477381351 -0.24612386508395 -0.286226111690173 2.22995878507315 -0.731246557854663 0.292769051632568 0.417329422322306 0.656179897433355 0.10786440672246 0.773481790540818 0.535221383300242 1.23770528206909 0.768313361637877 -1.77799919217394 -0.258028837897245 -0.711924470476051 2.36093739726643 -0.00977198673336227 -0.19475505024935 -0.0324179945605471 -0.101832601824292 -0.96355357880295 -0.44747661974472 -0.965410685656295 -0.862977474444018 2.14886469062679 0.0879661354232685 0.867965926218709 -3.32469486444466 -0.133908896951349
-0.054030162341034 0.0592505275009832 0.0954007334810448 -0.246592576947947 -0.504902436275443 0.360938474279014 0.366814213295972 0.543434253882603 -0.106389622711552 -0.144011013159957 0.441754632617323 -0.324439369780333 -0.122450524526296 -0.337464828772068 0.16195344729545 1.97061097193603 1.87805644818314 -1.4341456895694 1.62981990872374 -0.151148391845939 -0.796059407059268 -1.03077735019554 -1.41412914758593 1.4467412603348 -1.44284938349151 -0.454732012004797 0.358737354000531 1.19151338077348 -0.0405938412765254 2.58419362554526 -1.23951765175056 -1.20784142006858 2.70583733831664 -0.836925270909632 0.177494986540103 -2.11957881231814 1.16805670453862 1.08840294133862 -2.52775074124496 -0.631776541503912 -0.281124531434868 -0.33095608448404 0.650938192128199 0.280620081255405 0.0470534775195594 1.0225289984079 0.157995750245258 0.349581403266146 -2.52311684441292 0.16186140184986 -0.177280299537121 -0.48620049865874 -0.83154704009719 -0.503982238929725 -1.04895246904684 -0.422560328999767 -1.62281751288394 0.0721924256831739 1.05397383092498 0.105281992042272 0.624763089926238 -2.38352298420056 0.206556150548626 0.527895542849965 0.545821521933732 0.706469106608645 0.874520950339715 0.17488248996848 1.27349501957229 0.412710694991075 -2.08520960857719 -0.549223860988185 -0.705164272428841 3.551227190678 0.0903839995862001