3.7066111409 0.0823949921 1.0600362948 3.0044295333 3.8612223354 4.8159947551 1.7434076041 1.5726994944 2.2634160397 7.4132828662 1.5128467159 0.267541466 8.0552857603 4.7288868297 2.8478901855 1.025535851 4.6690305659 2.3224989321 4.3029959951 1.8595661173 3.8590050555 9.1372881755 1.5568748987 3.051661923 6.2286968717 4.496606799 0.5195567967 1.6040932403 4.6298419524 3.763757657 3.4986515227 2.021849774 0.2805979406 8.9183780044 1.4833366289 1.5334063574 6.549703748 4.6286329731 3.9690677196 4.6845465448 4.5529432346 0.664862654 0.2460839728 1.6446049853 3.3978547156 5.7155801965 1.3361301657 4.1357863642 9.9008367037 4.5603244655 2.2973284357 1.4880460013 5.9573576202 1.5665270831 3.4525940072 0.8417440412 3.0433390956 8.3838003829 2.7383012966 3.7491382646 6.7912374271 3.1925635334 1.1627051167 8.4970182755 0.3145241919 3.7849429341 6.9369976254 5.6657541268 1.3111584419 1.6622757914 3.4530645974 1.5119621187 4.1373027577 3.2636656648 3.2329241914