0.32438949040479 0.0582053746062239 0.331358976141134 -0.0830864412560761 0.02783243444295 -0.0239133039202399 -0.0069440318282066 0.0230381008565841 -0.0489954307333644 0.0504573592351114 -0.041619968017727 -0.00281869893856002 0.0229985058883694 -0.0519851079437608 -0.040846066366257 0.0331713273973601 0.0526420244618691 -0.0935042887696685 -0.0866484457343038 -0.0488182818171309 0.0331975526360478 0.0679544785332802 -0.0177413739722208 0.0137548805815091 0.0359069797467425 -0.00900219884482367 -0.0242058953087359 -0.0196465604298264 0.0118450661406057 -0.00812545312006862 -0.0939328914450839 0.0418341408003431 0.0191698781501502 -0.0258555142442281 -0.0221559558179816 -0.0286742131827881 0.00129737798449091 -0.0164630221412876 -0.0281234831703467 0.00822752586280403 -0.0959676614350287 -0.0174716653900308 -0.0654875063253551 -0.0096606580240312 -0.0212290736075001 -0.0707940033966805 -0.0137268555715389 0.0812205926565021 -0.0490458243292741 0.0388922860840243 -0.0500164152709017 0.0407604486752472 -0.0620903094745667 -0.0551141388734585 -0.00730732851708604 0.0230740962822339 0.0479279092526656 -0.0309455245412884 0.0153242811398389 -0.0136695200006825 0.0764923363872219 0.0204495155319994 -0.00083226566305927 -0.0394556144954431 -0.00320282155227968 -0.0199370949368566 -0.0460918854343442 0.032292010570773 -0.0348263456466998 -0.00735437968061395 0.0276115767955703 -0.0489758903594402 -0.0290596213474238 0.0193935640095452 0.0346494538406495