-1.41465960004157 -1.27279401868147 -4.8214316594637 -1.27279401868147 7.41697236631963 5.11914956964194 -4.8214316594637 5.11914956964194 5.01125180353708