5.8232296879 -0.0008128569 2.5350957493 2.9945713932 4.5367104198 4.8140341174 2.3613428857 1.5123740470 2.2652936713 8.6368727425 1.6237315667 0.1586951082 9.2523747169 4.7328150576 2.6613623982 1.1512615644 4.6613883430 2.2039360188 4.4826667558 1.4825774624 4.7651765996 10.4754940843 1.6302954099 2.7500542175 7.1714166940 4.6894247465 0.2417145156 1.4720750311 4.6457603096 3.7325142225 4.0218174487 1.4877815625 1.3871675054 10.1141050257 1.6548190083 1.2609224509 7.5971690470 4.7277067871 3.6401452967 5.6273667056 4.7633146791 0.5936078424 0.4687866969 1.5718328773 2.9476696729 6.0888343251 1.4938713391 4.4108518995 11.0807841662 4.6850253725 2.0064470637 1.9349594137 5.8823616341 1.5043644044 3.7409522776 0.2219389797 4.1198273570 9.6945105930 2.8401460137 3.4510294079 7.9714254847 3.3627892660 0.7872406462 9.6389146021 0.4220738424 3.4389754462 8.0021130769 5.8870176216 0.9411242273 1.9353340511 3.4228933733 1.4833847757 3.6655901960 2.7751156940 4.2009716354
5.8595914168 -0.0158606540 2.4479062266 3.2800530153 4.6316603969 4.8661898027 2.3388630658 1.5524818114 2.3472991849 8.3647722928 1.5795805921 0.0969047672 9.2910352246 4.6850063465 2.6404740905 1.3521457259 4.6607916479 2.2837375231 4.5533861193 1.5352830179 4.7435634946 10.2713809984 1.5847556238 2.6939521583 7.0909622464 4.6524241814 0.2418345101 1.7448748761 4.6204339148 3.7841348894 4.0909301175 1.5150237563 1.3733429342 9.9133483976 1.5471451398 1.1746489027 7.6032935495 4.7404966986 3.6314040373 5.5473568651 4.7136706016 0.5252360982 0.4581133030 1.5844949360 2.7229763062 6.1310912735 1.5163868165 4.4119108442 11.0748488307 4.6628886113 2.2555852615 2.0254462237 5.8748753816 1.5607404996 3.7179289667 0.3108546435 4.0798022916 9.5244267064 2.7567138507 3.4367227011 7.8960174135 3.3887355120 0.8656979746 9.5699061555 0.3724020019 3.4272141367 7.8563364160 5.9084809962 0.9467628828 2.0310203322 3.4593075612 1.5429353108 3.7394634664 2.8026423299 4.1084444309
5.8314508319 -0.0138012685 2.5310090280 2.9946486211 4.5280515107 4.7941951121 2.4173904109 1.5087504471 2.2915033773 8.6468154321 1.6360602206 0.1718505644 9.1833100004 4.7428270978 2.6247979952 1.1065738205 4.6694854226 2.1621857627 4.5268813190 1.4777129601 4.7639591537 10.4645457806 1.6380521118 2.7830480795 7.1340609079 4.6666785108 0.2795034844 1.4809318260 4.6474886061 3.6659814011 4.0018332539 1.5214600966 1.3317589267 10.1006353533 1.6651501780 1.2920370639 7.6326267789 4.7208553013 3.6707957587 5.7422707937 4.7748520983 0.5807027107 0.5781930240 1.5524364198 2.9409302531 5.9666888287 1.4964377611 4.3865882598 11.1045874761 4.6885975442 2.0405586646 1.8938321445 5.8439993957 1.5195374705 3.7347638530 0.1893283801 4.1001603583 9.7221639117 2.8052231757 3.4634439849 7.9747037462 3.3568508652 0.8144176518 9.6796896204 0.4476851442 3.4316581934 8.0101971959 5.8899723689 0.9650615684 1.8784827241 3.4531261194 1.5142670672 3.6462158552 2.7973012936 4.1998396077
5.8134714288 0.0170538764 2.5319178012 3.0603987117 4.5696718477 4.8672868956 2.2359574902 1.5298369626 2.2361653030 8.5492618119 1.6021173614 0.1069366965 9.3806464382 4.7154199351 2.7188628537 1.2280940804 4.6489385213 2.2632981516 4.4979344596 1.5089264400 4.8179391800 10.3478837060 1.6197048279 2.6930534000 7.1290937898 4.6923687117 0.1948391922 1.4116143710 4.6263776288 3.7958296509 4.0481895031 1.4257071089 1.3858327981 10.2203020688 1.5915420996 1.1603596654 7.5986733210 4.7716624248 3.5869667617 5.7024741820 4.7251735172 0.6455147015 0.4396346356 1.6011094780 3.0380736146 6.0421716594 1.4680082065 4.4561191717 11.2586234260 4.6796476996 1.8978153919 1.9347175035 5.8156071785 1.5060307707 3.7424113663 0.2325969817 4.1293798377 9.6895201905 2.8149503984 3.4465735129 7.9021123040 3.4073121199 0.7350901876 9.6357833328 0.4491138509 3.4656356059 7.9826369998 5.9171612633 0.8773520023 1.9613161216 3.4817411008 1.4918002312 3.7152184164 2.7591163749 4.1722205433
5.8569877701 0.0276989679 2.5145518731 3.3499254295 4.6050348441 4.9134719861 2.5473902623 1.5573998691 2.4274648239 8.2800779994 1.6215911851 0.0678431277 9.0719062635 4.6226946520 2.5146506324 1.3148608708 4.6992451325 2.2444771714 4.6881585110 1.5517886129 4.6624490431 10.3472811137 1.5729799513 2.7840936123 6.9088607572 4.6305185664 0.2714857353 1.6661105089 4.6964662114 3.7599769995 4.2708713312 1.5169989080 1.2551028564 9.9939202374 1.5781770470 1.2687171355 7.3243273062 4.6628294508 3.6765011353 5.3123353374 4.7294791755 0.6472797070 0.5235398679 1.5246615569 3.0344718061 6.3459830300 1.5416819742 4.3792045513 11.0765937136 4.6581569849 1.9010858160 2.1018057047 5.8999947636 1.5360591321 3.8769493294 0.3475972141 3.9280660179 9.5626524452 2.7903213218 3.4863127390 7.7492653104 3.4101120301 0.9381046146 9.5593833632 0.3737751610 3.4948611104 7.7220064611 5.8326224800 1.0043493240 2.1007515893 3.4849072282 1.5441500582 3.8472577669 2.7696160470 3.9944476110
5.8146995980 0.0153410340 2.5345102848 3.0402997658 4.5610867739 4.8590073389 2.2552961953 1.5265594306 2.2389111973 8.5726054716 1.6046232685 0.1152492473 9.3604226390 4.7178277641 2.7125084931 1.2652233654 4.6467289792 2.2634041058 4.5378636654 1.5126055863 4.7809300468 10.3326758791 1.6181623696 2.7087114366 7.1077771102 4.6922366302 0.2198676188 1.4137495886 4.6332797486 3.7832480985 4.0616431710 1.4289486097 1.4045302880 10.2053698159 1.6061054473 1.1602427011 7.5887858447 4.7603317150 3.5779694884 5.7378432877 4.7274945451 0.6165061142 0.4850342141 1.5973452229 3.0313531820 5.9723170027 1.4743395011 4.4757969224 11.1674899378 4.6822469639 1.9001832669 1.9251124297 5.8123910330 1.5045260144 3.7465950221 0.2536655452 4.1320191245 9.6969855404 2.8218642696 3.4464597565 7.9050974256 3.4290300114 0.7410985813 9.6390455152 0.4503415492 3.4603282607 7.9865615665 5.8939659700 0.8929651460 1.9472371486 3.4946176936 1.4852504744 3.7180599342 2.7279721925 4.1795476505
5.8136290660 0.0203679256 2.5212715235 3.1244863312 4.5991929382 4.8813843836 2.1885515849 1.5390753927 2.2377408288 8.4703068588 1.5950586830 0.0906505692 9.4253579600 4.7130583536 2.7282627187 1.2581718486 4.6458166705 2.2855140341 4.5049173495 1.4860508470 4.7991708208 10.4069814779 1.6161424206 2.6688041979 7.1675848527 4.6968331474 0.1919743356 1.4613194908 4.6054390645 3.8024302545 3.9388666567 1.4429663076 1.4453722377 10.1867654333 1.5559692634 1.1524710373 7.6597223334 4.7967102621 3.5721475222 5.6767784499 4.7265511456 0.6870116713 0.4291833019 1.6010865326 3.0449135245 5.9901528865 1.4555663980 4.4377840306 11.1101133438 4.6710719051 1.8637788894 1.9995699273 5.8720256704 1.5408454098 3.7445656681 0.1931812893 4.1435844309 9.6444981914 2.8297790760 3.4122581008 7.9149252802 3.3331950429 0.7131103322 9.6307201172 0.4231258950 3.4357931948 7.9588880059 5.9667778345 0.8187851051 2.0180404710 3.4130815178 1.5512596639 3.7216891614 2.8217142273 4.1994939929
5.8662473172 0.0103850270 2.4831525799 3.3100152643 4.6040846091 4.8809299226 2.5267779334 1.5582408881 2.4085084343 8.3333848748 1.6084896969 0.1015904591 9.0977181943 4.6388913814 2.5451662986 1.3886666081 4.6727567257 2.2727161043 4.5975239980 1.5698862965 4.7235339205 10.2752141574 1.5560469756 2.7215116852 6.9995393561 4.6535074203 0.2543762206 1.7363044726 4.6703318801 3.7854132129 4.1012389626 1.5341623106 1.3035865764 9.8524644042 1.5782116762 1.2194501582 7.4961012013 4.6757348409 3.6761398349 5.4103677124 4.6802592357 0.6357026083 0.4535587506 1.5755980708 2.9566755114 6.2106733368 1.5089381078 4.2776570647 11.1370561553 4.6855390382 2.0541256234 2.0219787619 5.9070467358 1.5296044911 3.9804513881 0.2817538098 3.9907200269 9.6139042516 2.7927739308 3.4562934470 7.6917921016 3.3571418838 0.8837066846 9.5756963632 0.3524898147 3.4721489443 7.6995172288 5.9162344011 0.9836095217 2.0659741175 3.4572414268 1.5191288056 3.9050080317 2.8629165952 4.0866446657
5.8286344900 0.0073688868 2.4848403298 3.2511630774 4.6377493964 4.8733586206 2.1982158405 1.5539378297 2.2572739005 8.3597537548 1.5691920339 0.0760037912 9.4140121777 4.7256407502 2.7397668357 1.2281130784 4.6287666553 2.3107530431 4.4386992478 1.4961525967 4.8065683654 10.4135354751 1.5959940667 2.6417104687 7.2063084980 4.6908747831 0.1926823235 1.5656722863 4.6135152543 3.7990394675 3.8761664507 1.5019156996 1.3935111211 10.0514133789 1.5609933540 1.1644428223 7.7106950561 4.7430047466 3.6037965246 5.7101841897 4.7334611878 0.6273754820 0.3877228221 1.5869458600 3.0106310342 5.9269736680 1.4298502083 4.4229288447 11.2071721594 4.6487783690 1.9543192731 2.0007297911 5.8496518765 1.5960204707 3.7453126842 0.1606336732 4.1644440579 9.6301118771 2.8084993065 3.3129631259 7.9304494624 3.3598157989 0.7152992095 9.6870461540 0.3653382740 3.3893996497 7.9408865232 5.9955928621 0.8460157128 2.0159640682 3.4283851749 1.5671158851 3.7260583228 2.8644428186 4.2647877465
5.8672625042 0.0060456979 2.4764521723 3.3009370708 4.6055336726 4.8735065781 2.5145377574 1.5576956224 2.4028303025 8.3447608436 1.6052715755 0.1072121971 9.1098380899 4.6432390219 2.5562067096 1.3970105398 4.6691106161 2.2806671793 4.5986167716 1.5668462179 4.7278862947 10.2674959130 1.5582121673 2.7137158432 7.0032427011 4.6566081942 0.2501531830 1.7628025672 4.6622677532 3.7970943166 4.0698907928 1.5376995607 1.3204410203 9.8276816564 1.5744111829 1.2119943341 7.5394873246 4.6842327989 3.6627108023 5.4396020446 4.6751575481 0.6280145948 0.4431424972 1.5821368962 2.9262593485 6.1850363728 1.5097629985 4.2797870746 11.1247610736 4.6873836837 2.0847424671 2.0199026764 5.9125958208 1.5270883748 3.9650721689 0.2624631831 4.0022416528 9.6106385239 2.7949593796 3.4477411329 7.7017026547 3.3437200613 0.8815398996 9.5712108924 0.3440849074 3.4608985156 7.7112052689 5.9319180071 0.9811779161 2.0677802536 3.4485828849 1.5157004800 3.8926150613 2.8868846148 4.0998239265
5.8502675610 -0.0459365991 2.5230509419 2.9905426468 4.5209362628 4.7603111202 2.4787949914 1.5065116504 2.3786762760 8.6502737788 1.6513403967 0.1748465576 9.0828561705 4.7718058032 2.5225744076 1.1156920632 4.6681624065 2.1845482609 4.4108721760 1.4956991630 4.6842668408 10.5286032327 1.6213925499 2.8072635493 7.2257841203 4.6566846867 0.3265691080 1.4999509481 4.6488872797 3.6888744562 4.0538086705 1.5355798371 1.3433557110 10.1850055017 1.6669589895 1.2904028669 7.6567152110 4.7141892804 3.7268759588 5.7169725043 4.7766344121 0.6856622951 0.5604580785 1.5406053351 2.9929857422 5.9709834957 1.4989872165 4.2535380825 10.9436358942 4.7056990646 1.9838511684 1.8665954026 5.8887419365 1.3994222205 3.7655507385 0.2217015268 4.0727017212 9.7802457826 2.8420054638 3.5968733105 7.9210931761 3.3702793037 0.9203507996 9.7451760796 0.4001859473 3.5333383103 8.0132872059 5.8450647418 1.0228712911 1.8110456834 3.4193324727 1.4112765452 3.6741663929 2.7195946585 4.1401312027
5.8644232884 -0.0128873195 2.4518368129 3.2811055905 4.6242356138 4.8620847778 2.3916497123 1.5538129397 2.3712872435 8.3707570347 1.5866680419 0.1053161288 9.2358091488 4.6717260014 2.6133222651 1.3160169946 4.6627499201 2.2776958681 4.5428727828 1.5514304926 4.7226300871 10.2760005172 1.5727437855 2.7081136822 7.0927522767 4.6507515757 0.2484076529 1.7665809669 4.6284632956 3.7442529478 4.0846648862 1.5333939197 1.3007273275 9.8679309865 1.5481917896 1.2243943757 7.6036156578 4.7311835147 3.6797725288 5.5171253757 4.6950840804 0.5567328703 0.4119906316 1.5879032090 2.7426284294 6.1410824855 1.5276960586 4.3762941708 11.2024680222 4.6733513818 2.2443693040 2.0183459846 5.8526404215 1.5667306073 3.8091960469 0.3198077068 4.0914384445 9.5412858359 2.7617538040 3.4264754788 7.8011879713 3.4121942010 0.8523998854 9.5627428495 0.3788030931 3.4031541382 7.7823403118 5.8823435044 0.9282036421 2.0403697123 3.4913233429 1.5593997483 3.8283709621 2.7804731639 4.1530305966
5.8649915128 0.0145301090 2.4899220592 3.3212645965 4.6035954194 4.8890391878 2.5332054917 1.5586752574 2.4150166152 8.3196987675 1.6112496589 0.0943826462 9.0909566909 4.6350975847 2.5344716381 1.3509987390 4.6770211858 2.2643011429 4.6237970646 1.5713651790 4.7043856415 10.3047205846 1.5553032943 2.7311528272 6.9751179554 4.6498080813 0.2692791842 1.7071821205 4.6779511704 3.7658907207 4.1381333089 1.5302268863 1.2885204154 9.8853178137 1.5804542259 1.2348573878 7.4527435146 4.6691988548 3.6825080725 5.4174536250 4.6873836411 0.6334043370 0.4333842220 1.5672619832 2.9771028598 6.1947953137 1.5115968149 4.2948522851 11.1885430029 4.6823196502 2.0298866391 2.0286576677 5.8984841535 1.5320465978 3.9851972403 0.3104447533 3.9826842696 9.6104683957 2.7896204818 3.4663411321 7.6866771770 3.3817071597 0.8866760136 9.5772655039 0.3622806062 3.4820485901 7.6899450304 5.8888250492 0.9828210124 2.0660055546 3.4692014120 1.5241153233 3.9140085765 2.8247433398 4.0744354016
5.8181546789 0.0096197958 2.5369668714 3.0069327080 4.5473201289 4.8369877965 2.3020401997 1.5191284123 2.2489283786 8.6122148460 1.6121374695 0.1374142788 9.3134744787 4.7244827336 2.6913832609 1.2579555415 4.6483521605 2.2511771269 4.5253832891 1.5031650964 4.7422269254 10.3859382524 1.6197635091 2.7275394416 7.1629284085 4.6947521994 0.2352412211 1.4447451116 4.6421738153 3.7670887367 4.0557425483 1.4512930291 1.4265471598 10.1557728470 1.6342351021 1.1966878354 7.5807371565 4.7404899199 3.5920220934 5.6397904840 4.7439058716 0.6063273998 0.5029313034 1.5860623821 2.9924244832 5.9996432914 1.4852529388 4.4622932433 11.0283170259 4.6844520283 1.9407073282 1.9376804529 5.8607877825 1.4962150044 3.7531822110 0.2645489377 4.1349868755 9.6921960069 2.8512262133 3.4490658860 7.9320107720 3.4179323590 0.7591839047 9.6326073611 0.4260423153 3.4505825348 7.9893261790 5.8711214468 0.9158436980 1.9475763219 3.4569922434 1.4722629869 3.7069774762 2.7173412311 4.1969054322
5.8269789267 -0.0071219615 2.5331371409 2.9946785098 4.5320457462 4.8038665985 2.3911937427 1.5101681867 2.2769196923 8.6432489892 1.6301525773 0.1663633811 9.2178545586 4.7375482135 2.6439969352 1.1005421493 4.6672853081 2.1780533859 4.4987825454 1.4776827403 4.7731191644 10.4779378183 1.6358915676 2.7658498548 7.1462737224 4.6798381112 0.2578558809 1.4768476784 4.6468105880 3.6989666338 4.0072759878 1.5060579605 1.3554046738 10.1030310280 1.6611414063 1.2830978564 7.6144580589 4.7237243987 3.6584186949 5.6869470439 4.7699931173 0.5827368141 0.5135224287 1.5622602219 2.9399410623 6.0504880335 1.4960878936 4.3949607803 11.1383855466 4.6859366328 2.0323638727 1.9170629649 5.8666128612 1.5140479870 3.7337339941 0.1991561277 4.1085936445 9.7064080397 2.8198499277 3.4537205188 7.9804266204 3.3500921075 0.8012935104 9.6560860577 0.4349653733 3.4329863619 8.0088609490 5.8934329244 0.9541195038 1.9111248222 3.4317697434 1.4994834150 3.6492941557 2.7964559644 4.2005824289
5.8544986169 -0.0531286825 2.5221720487 2.9943013764 4.5216507208 4.7585118810 2.4868740791 1.5060347377 2.4036252043 8.6514870045 1.6546784091 0.1712894430 9.0692619260 4.7804046979 2.4941899566 1.0759657749 4.6733967238 2.1804228458 4.4376425555 1.4929094083 4.6755494282 10.5315641568 1.6198990386 2.8144370138 7.1864967443 4.6715374503 0.3356185007 1.4827981458 4.6503552438 3.6919292420 4.0634148098 1.5287638147 1.3421560488 10.2133498989 1.6637689127 1.2992437872 7.6558471309 4.7129981140 3.7388755404 5.7719419543 4.7642022556 0.7049818498 0.5491736214 1.5423671592 3.0203523554 5.9399446068 1.5004560599 4.2322806240 11.0155705275 4.7089414319 1.9643825565 1.8531935078 5.8895418290 1.3737830197 3.7401685944 0.2051163866 4.0496484776 9.8071069255 2.8279442761 3.6225563920 7.9318588168 3.3375176022 0.9666397644 9.7584009540 0.3951478040 3.5642418251 8.0366103207 5.8505310653 1.0513014065 1.7990780320 3.4100556484 1.3744292175 3.6374565996 2.7439849141 4.0911165073
5.8605420767 -0.0637884679 2.5230695976 2.9958802123 4.5263999430 4.7643659625 2.4907533944 1.5056744166 2.4522573024 8.6642726961 1.6633952949 0.1638803344 9.0594922475 4.7962017771 2.4412951782 1.0742277178 4.6785457094 2.1435320536 4.5059108496 1.4900823402 4.6719792011 10.4897829679 1.6139658024 2.8449373713 7.1859095286 4.6717138590 0.3516052716 1.4265060505 4.6536758172 3.6505580371 4.0806745380 1.5092439573 1.2820725764 10.2471430495 1.6509678224 1.3206982755 7.6443480044 4.7123518989 3.7658626514 5.7483852309 4.7455976647 0.7763890252 0.6202215070 1.5446087356 3.0912583889 5.8558872569 1.5050283898 4.2057138605 11.0684365320 4.7172682510 1.9165739916 1.8116213427 5.8462134951 1.3730491205 3.6832273631 0.1879514598 4.0036511621 9.8609957460 2.7802157794 3.6451547751 7.9343033793 3.3285888362 1.0314644483 9.7798562727 0.4068445430 3.5990748633 8.0743426259 5.8552833602 1.0945177038 1.7656518858 3.4453928430 1.3447881216 3.5692754545 2.7635428010 3.9944421486
5.8635210689 0.0183860245 2.4965223866 3.3327687039 4.6037333713 4.8968185255 2.5358581081 1.5588910304 2.4211566768 8.3056556639 1.6136964833 0.0867145590 9.0876224077 4.6317705819 2.5252897455 1.2912534155 4.6815302407 2.2541779542 4.6738175776 1.5698519950 4.6773226389 10.3482048346 1.5566582139 2.7434873377 6.9335470189 4.6464362671 0.2885262170 1.6833687340 4.6844478976 3.7500420306 4.1749566401 1.5262800776 1.2796460768 9.9189408058 1.5812474467 1.2509227767 7.4140500652 4.6649223243 3.6797410317 5.4486659799 4.6955939696 0.6244925003 0.3950360367 1.5577959391 2.9886157418 6.1506255092 1.5174921918 4.3265168856 11.2647209371 4.6780772205 2.0118297051 2.0414608291 5.8923822718 1.5325590070 3.9762711867 0.3375011147 3.9741546237 9.6013374396 2.7871873015 3.4763947698 7.6899365240 3.4060510330 0.8934268858 9.5752851953 0.3699666599 3.4903759436 7.6860600362 5.8593563939 0.9825170719 2.0699280328 3.4794145019 1.5286018722 3.9136110919 2.7883855415 4.0599492756
5.8248990651 0.0106340937 2.4914100857 3.2360432685 4.6346163258 4.8765375918 2.1872366106 1.5524075119 2.2550011944 8.3731304509 1.5741424595 0.0767659237 9.4246369087 4.7232427364 2.7387517726 1.1874352605 4.6314888208 2.2793700000 4.4024581111 1.4968085925 4.8145094777 10.4169712676 1.6016949563 2.6540556157 7.2294177858 4.6833183915 0.1944106110 1.5504570421 4.6094182789 3.7838999404 3.8802122928 1.5016452148 1.3565907794 10.0650808554 1.5542747867 1.1737477640 7.7024116571 4.7559374593 3.6236215473 5.6998918581 4.7331114639 0.6465600238 0.4184023647 1.5883935481 3.0254147484 5.9691148545 1.4324369769 4.4114758747 11.2663568353 4.6515691051 1.9496936737 1.9967020278 5.8285787333 1.6125195141 3.7613116688 0.1723891926 4.1771594198 9.6327597915 2.7970417459 3.3081864145 7.9044494450 3.3749899344 0.6934148922 9.6817889583 0.3900661260 3.3739097895 7.9269665236 5.9859269485 0.8190829792 2.0128276465 3.4470601252 1.5961849675 3.7540345827 2.8277134793 4.2870442731
5.8599337946 0.0245380725 2.5079593876 3.3475359531 4.6045598663 4.9084091146 2.5404386761 1.5583890469 2.4276505684 8.2857448065 1.6182349306 0.0741091195 9.0806429797 4.6261974776 2.5154248049 1.2559287236 4.6912714979 2.2434885006 4.7293645805 1.5604669617 4.6490175921 10.3858753264 1.5644982061 2.7685359411 6.8824087029 4.6389000443 0.2992359092 1.6638332417 4.6929771964 3.7457675193 4.2364294269 1.5200236277 1.2691392313 9.9706621014 1.5800156378 1.2688864672 7.3557927876 4.6621952968 3.6695362525 5.4359527676 4.7140609140 0.6222059486 0.4069977668 1.5385151043 3.0096287938 6.1769991609 1.5319978169 4.3752644931 11.2422465877 4.6672374527 1.9583469728 2.0769391369 5.8929424113 1.5327418357 3.9245914175 0.3575395055 3.9494602009 9.5774813522 2.7877025865 3.4875133162 7.7198688734 3.4230403366 0.9175911041 9.5661796955 0.3751377100 3.4975047118 7.7001360369 5.8283771936 0.9913167754 2.0865014794 3.4873950505 1.5370110248 3.8820481442 2.7593050975 4.0230113662
5.8581337739 -0.0590633407 2.5220910554 2.9971953478 4.5234701175 4.7603591439 2.4910927197 1.5057488080 2.4281743998 8.6558043659 1.6586986765 0.1672615701 9.0612788680 4.7887097461 2.4668007701 1.0505944118 4.6775808917 2.1646582398 4.4836568872 1.4908029627 4.6709594976 10.5111723791 1.6185286556 2.8269990850 7.1648465492 4.6773669255 0.3450187158 1.4555531939 4.6522308805 3.6769673882 4.0719710587 1.5196388003 1.3212518363 10.2347992134 1.6584361691 1.3096406630 7.6519186462 4.7122970387 3.7511818459 5.7942353745 4.7527715607 0.7321961799 0.5787306723 1.5434647263 3.0551661124 5.8827495784 1.5022184834 4.2219085354 11.0836131498 4.7123254412 1.9446913836 1.8325004777 5.8724932248 1.3659253607 3.7090071001 0.1895992787 4.0248907475 9.8363741726 2.8031394270 3.6374203351 7.9374956501 3.3215410833 1.0053021944 9.7709733128 0.3993703975 3.5864418130 8.0598891706 5.8553270053 1.0774200127 1.7825394698 3.4203403771 1.3523700394 3.5977365626 2.7639980912 4.0396721758
5.8529596576 -0.0146462825 2.4493404130 3.2894225884 4.6370886421 4.8730036243 2.2758782609 1.5541009430 2.3127757660 8.3480623345 1.5678272174 0.0850485225 9.3446687095 4.7058594671 2.6815990616 1.2835382528 4.6495140939 2.3224001461 4.5463888921 1.5402763605 4.7817318408 10.3265281074 1.5849875947 2.6384726720 7.1227409605 4.6619489402 0.2258804666 1.6355024903 4.6213840094 3.8051465246 4.0843372191 1.4888794777 1.4005408248 10.0052255635 1.5597695269 1.1461183456 7.5917140854 4.7299246715 3.6172155960 5.6405602823 4.7339095556 0.5064076334 0.3368344249 1.5815188109 2.7834186893 5.9899191991 1.4759370372 4.4534591919 11.2851405759 4.6484369558 2.1912451619 1.9940385706 5.8706429417 1.5440680273 3.6845985745 0.3273214511 4.0842378541 9.5529797648 2.7389846412 3.4373211348 7.9512230992 3.4321604159 0.8391938441 9.6248199611 0.3945739360 3.4696522519 7.9095275346 5.8952775979 0.9488255535 1.9890125492 3.4446943349 1.5005256453 3.6948427910 2.7663092607 4.1022312892
5.8363810921 -0.0006398732 2.4717293882 3.2706647407 4.6396030129 4.8710314929 2.2186770403 1.5559950774 2.2656467055 8.3464759516 1.5616641946 0.0755973081 9.3934423666 4.7273281509 2.7354239418 1.3335931765 4.6266750505 2.3413157365 4.4782365632 1.5100405146 4.7887894199 10.3343098129 1.5836124070 2.6262229278 7.1575404316 4.7002082436 0.2081516645 1.5881533042 4.6204342256 3.8478259372 3.9159802105 1.4938393487 1.4416283424 10.0309887289 1.5716998034 1.1168408686 7.6956827869 4.7230267231 3.5701354624 5.7494064278 4.7350520403 0.5759081005 0.4454238994 1.5852073261 2.9851440458 5.8826168681 1.4291455884 4.4420839451 11.0945563286 4.6442130820 1.9767756682 1.9868501888 5.8598048120 1.5717782375 3.7318874033 0.2033126874 4.1416280835 9.6255530971 2.8078021515 3.3385815595 7.9613085332 3.3717817320 0.7582064250 9.6956229603 0.3518499219 3.4230744790 7.9462228602 5.9693532146 0.8918095175 1.9946990686 3.4289002053 1.5248045537 3.7021733864 2.8567088159 4.2154666003
5.8502797792 -0.0132648335 2.4518406170 3.2888076852 4.6375388739 4.8733624578 2.2609305307 1.5552047620 2.3017752762 8.3473020177 1.5644265620 0.0824837138 9.3563892828 4.7123481853 2.6954358448 1.2861860306 4.6440044196 2.3225346569 4.4781215555 1.5466391203 4.7991485247 10.3101068546 1.5812547739 2.6299064777 7.1727352851 4.6664599150 0.2165994480 1.6082448535 4.6230423175 3.8234469942 4.0743935351 1.4847407492 1.3828693657 10.0203917886 1.5651989826 1.1292954571 7.5935082264 4.7233097907 3.6264172936 5.6285831251 4.7384775384 0.5204112362 0.3610985697 1.5819374179 2.8281796323 6.0139017840 1.4588321458 4.4425608545 11.3173614982 4.6452823258 2.1490779226 1.9729713232 5.8478433707 1.5510096716 3.7055917882 0.3362472208 4.1007252168 9.5752944642 2.7368188587 3.4214787038 7.9418129967 3.4577123935 0.8154853385 9.6517222461 0.4039238319 3.4683666994 7.9071071844 5.8828343082 0.9357345794 1.9683606326 3.4611478238 1.5013759392 3.7118876026 2.7410295203 4.1279530646
5.8471417573 -0.0112387262 2.4554140828 3.2856169300 4.6378736439 4.8730332237 2.2482466360 1.5561103480 2.2910447082 8.3475152923 1.5617784760 0.0803034178 9.3663942459 4.7181043270 2.7088089023 1.3281308932 4.6382567242 2.3222054308 4.4277425672 1.5485220614 4.8055757378 10.2888887601 1.5781376433 2.6273439731 7.2027946187 4.6746402043 0.2119653858 1.5957418052 4.6241385285 3.8484417405 4.0508839647 1.4835260091 1.3800007006 10.0257272579 1.5698600082 1.1088683643 7.6074661675 4.7182621930 3.6215055872 5.6337561761 4.7404847135 0.5359917978 0.4107267115 1.5828434246 2.8778340230 6.0210834308 1.4442982030 4.4331373178 11.2470020138 4.6433167294 2.0955778189 1.9592888204 5.8306235064 1.5603159761 3.7258721612 0.3298955568 4.1174651909 9.5964083839 2.7458097415 3.3999785011 7.9368236014 3.4635726121 0.7946626314 9.6746618269 0.4018059608 3.4603068675 7.9074375681 5.8830971251 0.9223051280 1.9564319630 3.4727819418 1.5072936729 3.7263840774 2.7336530844 4.1572305761
5.8618189344 0.0218090672 2.5026716581 3.3420891030 4.6041476014 4.9034525479 2.5375610846 1.5587919508 2.4255826474 8.2937188548 1.6160085901 0.0796928997 9.0848638124 4.6288106799 2.5187870614 1.2429702015 4.6861891871 2.2446058922 4.7235968932 1.5655052053 4.6550800614 10.3838778646 1.5599271992 2.7572540807 6.8932889984 4.6432029627 0.3012919958 1.6692908370 4.6894578885 3.7440177998 4.2082609285 1.5227925120 1.2745125165 9.9480772278 1.5809386729 1.2625670901 7.3818116347 4.6627499811 3.6732609622 5.4697517842 4.7043674764 0.6172446583 0.3727507264 1.5480288861 2.9968577817 6.1214632297 1.5251499090 4.3595396386 11.3097926394 4.6731208330 1.9926419386 2.0589943501 5.8908631037 1.5320953987 3.9538963948 0.3535966911 3.9626501175 9.5891539876 2.7865168247 3.4840583544 7.7023933510 3.4205308295 0.9045646096 9.5708913603 0.3741537365 3.4958527735 7.6900295413 5.8378008536 0.9853965895 2.0775699193 3.4854274526 1.5325944343 3.9013698426 2.7661753028 4.0419230572
5.8457671150 -0.0375338423 2.5247169120 2.9889128433 4.5212514397 4.7660016837 2.4681603093 1.5069838999 2.3539550778 8.6500497295 1.6483344909 0.1769370969 9.1012056599 4.7634130200 2.5510025375 1.1468683736 4.6640558284 2.1768453640 4.4302304864 1.4942318217 4.7000287115 10.5038136873 1.6244161199 2.8042156595 7.2418568927 4.6413182443 0.3197495260 1.5039077586 4.6480718411 3.6712493433 4.0391839005 1.5391964566 1.3334921375 10.1544146866 1.6683167699 1.2856879832 7.6563080926 4.7155987975 3.7123958089 5.6858329630 4.7846176532 0.6618203339 0.5994649888 1.5392568486 2.9730973739 5.9573169865 1.4976589426 4.2893277667 10.9146677518 4.7018282170 2.0040660808 1.8707952229 5.8700373076 1.4390228652 3.7729744213 0.2233796421 4.0872188587 9.7600750841 2.8397057821 3.5615217828 7.9160495408 3.4007105776 0.8761173332 9.7328463051 0.4158024738 3.4978169580 7.9997552524 5.8467749247 0.9995635134 1.8184066150 3.4442309667 1.4567857719 3.6877440842 2.7189099362 4.1743367102
5.8165209261 0.0181151338 2.5105413303 3.1724695696 4.6168607228 4.8842775632 2.1720815263 1.5454730537 2.2461773517 8.4248063380 1.5878816038 0.0823033421 9.4386768035 4.7156046742 2.7316916089 1.2752858003 4.6388991634 2.2654307224 4.4898613338 1.4859397829 4.7705937112 10.3844097981 1.6100704863 2.6770890677 7.1555779801 4.6913716999 0.2295074623 1.5020634376 4.6006881855 3.7816542359 3.8927064305 1.4719161895 1.4250934089 10.1271203214 1.5452761747 1.1455623517 7.6875686802 4.7922747782 3.5781828495 5.7804609141 4.7280985077 0.6543176858 0.5293619003 1.5955363597 3.0545677524 5.9019504330 1.4486628092 4.4376806567 11.0665430691 4.6639363735 1.8772365314 1.9986712349 5.8346181333 1.6008801002 3.7697227251 0.2088810888 4.1727020153 9.6348313915 2.8080854804 3.3532941255 7.8999081211 3.3522200059 0.6900870007 9.6540421302 0.4314493446 3.3838219651 7.9287758827 5.9627629600 0.7902554884 2.0109163223 3.4470465771 1.6149881373 3.7622914456 2.7881245496 4.2592576982
5.8363157322 -0.0209324862 2.5289103349 2.9928114829 4.5248984150 4.7844611623 2.4384769492 1.5079191531 2.3094231901 8.6486287826 1.6410729629 0.1754287518 9.1511778248 4.7488494562 2.6030434134 1.1415802071 4.6671724662 2.1575410409 4.5351560958 1.4815882310 4.7412259645 10.4612167786 1.6348942602 2.7965181065 7.1675569186 4.6506933330 0.2966384444 1.4884989107 4.6477236121 3.6481377203 4.0072345394 1.5325281316 1.3220209928 10.1086264797 1.6673752428 1.2905847983 7.6467572763 4.7187018210 3.6826257963 5.7318887981 4.7810997405 0.6005137007 0.6212221043 1.5447616424 2.9472745232 5.8946599932 1.4960953696 4.3731251101 11.0131745317 4.6926939952 2.0349814821 1.8761187215 5.8321424358 1.5107422506 3.7461658607 0.1946127522 4.0956106353 9.7358337800 2.8075582787 3.4863296169 7.9542592161 3.3794639995 0.8276396359 9.7027486296 0.4495088969 3.4410695450 8.0053407091 5.8767281467 0.9743049386 1.8472668908 3.4717944942 1.5168882099 3.6574759852 2.7776481115 4.1975296094
5.8400972448 -0.0048347533 2.4655368527 3.2765548185 4.6391785640 4.8715670228 2.2277014308 1.5564952277 2.2725539322 8.3459703182 1.5600673712 0.0765180158 9.3845317069 4.7258596257 2.7294067043 1.3602448154 4.6286492599 2.3348176152 4.4421593902 1.5253201865 4.7951810811 10.2991070387 1.5791627327 2.6256857568 7.1761785565 4.6960348623 0.2103897201 1.5921062761 4.6227903002 3.8662254824 3.9626816868 1.4886708088 1.4275243449 10.0268187330 1.5736957621 1.0988082103 7.6671330277 4.7177326655 3.5793671526 5.7126045178 4.7375548732 0.5614677038 0.4631953147 1.5845767638 2.9598756118 5.9444149199 1.4298140705 4.4344748209 11.1051994652 4.6428782425 2.0052187791 1.9712962809 5.8446035357 1.5683732944 3.7354119711 0.2517845827 4.1351018765 9.6209082168 2.7897466773 3.3566658718 7.9558655442 3.4041981304 0.7716714274 9.6956224187 0.3665047824 3.4371198240 7.9326454909 5.9361636120 0.9043131851 1.9747024035 3.4496364985 1.5168547966 3.7123041674 2.8115345530 4.1962515189