-28925.2770730564
-28924.9707892237
-28925.2456953537
-28925.2718382691
-28924.3850598603
-28925.1156213319
-28925.2858862749
-28924.6302639637
-28925.2395775574
-28924.5997223302
-28925.2641213967
-28925.2903928859
-28925.290227985
-28925.2997682913
-28925.2001391666
-28925.5219643651
-28925.1729990905
-28925.5092276752
-28924.5785185505
-28925.0905011558
-28925.0779647416
-28925.2032179971
-28924.7685718738
-28925.0978739404
-28925.0251308737
-28924.3845594432
-28925.1567536305
-28924.7790315162
-28925.1789382441
-28925.1339713192
-28924.995486263
-28925.2543889782
-28924.7664861223
-28924.0018941115
-28924.9839807516
-28925.0632750917
-28924.8491428353
-28925.0947572862
-28925.056019316
-28925.2032916038
-28924.9037004075
-28925.2931790581
-28924.8653608118
-28925.2556609737
-28924.9556239191
-28925.3615400058
-28924.9354562123
-28925.1675980417
-28925.2938543083
-28925.0439771964