0.0866834127192207 -0.0578821871059256 -0.0545844918960405 0.8257407208297 0.102316483189098 0.22626493164279 -0.198909179479517 0.213209904979986 0.611209269508001 -0.927968243895406 0.0456985068540289 -0.544631873116008 -0.495059487131514 0.0947013937827065 -0.380994868340881 1.38269485658636 -0.172023424731156 0.152357066817222 3.40345285576635 0.642722493333823 -0.905885050259274 -4.85180568272954 -0.0337318275967637 0.359937287225584 -2.14736625247903 -0.640879527540555 1.3722764948524 -0.413554016392012 -0.0252510482034952 -0.739518306668979 0.285840960635721 -0.0562947888347709 -0.353857659833338 0.49450618601724 -0.189423870600436 -0.660146850450142 0.354287033839303 0.108558604217134 -0.428631214645784 2.86930490748103 -0.168032560467329 -0.12827072774368 3.77541287226914 -0.138967025585691 0.839964056165022 -4.18231364845016 -0.124472181896896 0.571405270714305 0.453949111496914 0.0447235450392866 -0.511180038508762 -0.788106731982318 -1.21922445920995 0.187210923253525 0.103428741841676 0.219231168360643 -0.0782882510169621 0.532117549168499 -0.541312580650733 0.135088261361746 -0.693156969762628 1.01622902758864 -0.0370606331388175 0.691636420139109 0.635519037330755 0.0352747458062226 -0.102574878923227 -0.296813394814503 -0.036350237702601 -0.896915504407718 1.30022805087182 0.42745287867612 0.438674966842802 -0.75882908119953 -0.0590407255914817
0.0185366157688975 0.0858809718374141 0.0999222731630221 0.595309318667949 -0.193488011266478 0.0942902745997495 0.512902162515921 0.130419911765154 0.0586728009193044 -0.51504851832538 -0.0617447533883289 -0.0123790839911383 -1.1166362105572 0.0466451865486178 0.0106376767202392 -2.62536416496273 -0.168342892458467 1.0438254348834 1.38186516202513 0.628504557312348 -0.159678279284201 1.92949262588575 -0.370409384987834 -1.03183535859946 -0.567421605535608 0.171128681293576 0.0733604772455089 -1.00646629682187 0.142815450808018 -0.667722344888319 -0.172173834188335 -0.0108078836615259 -0.74718456100183 0.445050785166109 0.153201416658892 0.70575562585023 -0.138084109216539 -0.260536433514117 0.573346195487377 1.55230993023136 -0.0986264378396304 0.0560896149085672 -2.76376966190829 0.0147884635180238 0.861721234088841 -2.81876938675022 -0.230068362583055 0.221448743690851 4.52075909546101 0.00233301780247137 -0.841695693248959 -0.375636177902364 -0.233863308887273 -0.2052271480116 0.917363734388802 0.341545938710202 0.151336596500051 0.503424566942337 -0.121988497527062 -0.0305945691412032 -0.76828713639919 0.851518330688415 -0.431233426810079 0.439866158321626 0.35803621453091 0.188118265090083 -0.493937715402157 -0.576061536132285 -0.207742971154336 -0.246592062727581 0.193860049701587 -0.337038540088301 0.791306468212399 -0.794740946039754 0.53380702018239
0.0400102011606328 -0.0460083246248001 0.00299507652424388 -0.446941573453454 0.20801782194019 -0.0154474369175978 -1.26375954248494 0.145030969256761 0.825040352690629 -0.433548189789542 -0.221313246624298 -0.472103918643741 0.596593841143279 0.183864634219013 -0.632022595949246 3.97430662513767 -0.619033903713711 1.53938525843144 -2.71915153204412 0.527404976620395 -1.86176029055076 1.3802926761446 -0.729495894617168 -0.511376984909103 6.26963490296208 -0.387569432835812 -0.618975282591938 0.246773068296562 -0.0313882682767806 1.07280895161659 0.768320046502641 -0.30707954732 0.985396117307595 0.735925448968766 -0.126379168125784 -0.736256349774561 -0.286116068531758 0.0507028994600795 -0.0387578174582041 -4.65538173028095 0.0983893822507084 1.54776807884491 -1.5333439404565 0.152262707379983 0.379418011587238 0.833953848522244 -0.0490478812107398 -0.360681106985618 -4.08212758023917 0.101710731597449 -0.975771454709214 0.390918550082339 0.762119577324285 -1.01209932382588 0.734887238048954 1.07072353092055 0.275158032523236 -0.147797474828129 1.20178081882989 0.932565373971248 -1.04305847520687 1.1233138762356 0.00693246186996203 -0.0385827254234363 -0.772004435428078 0.76091630166685 -0.438767526508758 -0.693192193857728 -0.120355847863662 0.101053557969158 -0.190450254451821 -0.861737689140567 1.01590609719852 -1.45235988916855 -0.11103766060367
0.0586810284451672 0.001714667811845 -0.034068384826589 0.0991208607219483 0.224842598109258 -0.526354167301605 0.429344695404199 -0.0588586915817672 0.402126754299127 -0.581887138663517 0.0884114502605928 0.473732968764576 -0.620336423901866 0.191935065759874 -0.493462832893764 2.2015658504308 -0.199395374835972 0.711708497922152 2.74461675303023 -0.530907331536118 -2.71374707599299 2.43893100001343 -0.174167980769332 0.188155288956465 1.14969903745724 0.205641095406573 0.676251203885848 0.838620398347553 -0.0564233439263772 -0.163280135840827 -1.10456668722665 0.326807354567721 1.61728527307175 -0.904901346698302 0.0657844685869657 0.213076979015265 0.432561143796189 -0.0460713166196872 -0.20547037424492 -0.738041979996973 0.152618547873549 0.0567838124032413 -0.0688816178539449 -0.131294857718627 -0.52353186882048 -2.55142030471152 0.0796995288126162 0.26483994376073 -4.96449656181126 -0.0256158875534739 -0.191117198267075 0.893448630697279 1.31050448778465 0.0869706047938692 0.0370714317665125 -0.0826213289346445 0.176116875958084 -0.496066330608975 0.746970131109031 -0.20172736419771 0.466853471592356 -0.642446356997053 0.0215499471161494 -0.148541294588163 -0.592724847106296 -0.372576566722134 -0.123997813608869 0.017883041683171 -0.212422376488806 0.583078330142341 -1.08632549105826 0.291693302626007 -0.070454875065023 0.214040370871763 0.457467407243996
0.079280953434346 -0.0807945610829188 -0.170593892112493 -0.0933734196864133 -0.0292645381634443 -0.304314841519914 -0.481752492489161 0.0682745807113799 0.046449525699193 0.299528735459411 -0.218736488368141 0.384928139923668 0.593766657568673 0.223547277006233 0.0055512659657438 -2.22638829595888 -0.287858761353573 -0.0256526543096733 1.6883631261107 0.322398943366358 -0.596345986926662 1.59467526067022 -0.314691808514376 -0.560626954723848 -1.1734742732091 0.313466164271001 1.13389730270718 -0.0741870864845375 -0.0598099992596539 -0.301545507736531 -0.616937941500161 0.0530176624395427 0.277585923983313 -0.399423754943013 0.0353457082167893 0.0340503871137641 0.56320808385312 -0.0161092385291871 -0.163997730362173 2.48970383344334 -0.288539332008537 -0.514163545074762 -2.32817976015385 0.256692379164905 -0.474400941020563 -3.31368797750133 -0.180725833102353 -0.0310735654125283 3.15184405914393 0.168024075831283 1.06146396478233 -0.456508643370796 -0.143037079785947 -0.0689204414916101 0.895494713535285 0.23259215614147 0.403166250769856 0.268155122463074 -0.0507345240126146 0.0412844392286345 -0.555213499816306 0.291342604336104 -0.384065021038623 0.126383281888716 0.0331134776061373 0.0641183945997478 -0.427090867538157 -0.135707896903288 -0.255308869269038 -0.268452856055234 0.0629269460107405 -0.13418503328812 0.664266784025942 -0.254731656907726 0.532699903733476
0.0421033351621668 -0.0553375676226702 -0.0817538391764851 0.373810438491371 0.286237424538235 -0.501407280444851 0.554081700789804 -0.0779632637453813 0.388122476839902 -0.529500424613578 0.184496868159533 0.531551135434882 -0.480542531966963 0.163184233742489 -0.685857097440855 -3.37134545030713 0.168973069517521 -0.321325251241262 -2.80711252526372 -0.786165807209246 0.879174387545681 3.95364807902672 0.127743908978277 -0.617048498878943 5.66217198593367 0.153927238706101 -1.69260750101518 0.76066099125492 -0.111576563547684 0.23301073151974 -0.815439344229103 0.383374165976331 -0.0740641878169618 -0.604560143059939 0.00128143715313173 0.823274777062508 0.26912159964177 0.0438503988570966 0.659753471869827 -5.04738554244663 0.308019285039642 1.3846301249354 -1.5477529093441 -0.101575748751262 -0.655034728677326 2.51174820344181 -0.0184517694084373 -0.964819846455272 0.218689437204614 -0.0767432759260374 0.845543861361103 0.946498689019907 1.60808972736915 -0.204292809605806 0.0206408055083096 -0.616377441300758 0.0092654796724334 -0.566261524388953 0.618589103096753 0.072817717648747 0.50016672381085 -1.2323998134385 0.1084886702473 -0.36484449218238 -0.791039330732041 -0.0035535198421817 -0.178665094983904 0.449837148336795 -0.241240571374193 0.805969204850832 -1.68940853611564 -0.0463667362201985 -0.305901211350336 1.05943562254697 0.153739548272356
0.0505684308342592 -0.0996867602351993 -0.0781946629102727 0.299178551389876 -0.152899312193617 -0.283208152359623 0.766798982658755 0.0234538480228389 0.418994210758608 0.55121543646735 -0.157827343075254 0.0527232712797643 -0.786141124631658 0.205352617781008 -0.126659932445853 -1.60058416690081 -0.105902656024548 -1.66228109779506 -0.932929441990677 0.528446787082773 0.321273314984253 -1.79912079372485 -0.0830607302377548 0.799819900598936 -1.12285853410113 -0.29329741305907 0.756627189590497 -0.0137484528269287 0.156572902491359 -0.295334754150847 0.740831111264463 0.25060555268753 -1.67797536048854 -0.441542259605989 0.200021695242278 0.0502485857663427 -0.394754376905688 -0.353956133033509 0.655222933331438 2.03544490417565 -0.00784777412219898 -0.953422409143639 1.17703010704293 -0.0599149002144046 0.0122423013736692 -0.776683840762548 0.0190580352204527 0.206049900597881 2.87093061516948 -0.0294362877658303 0.901098944198771 -0.902276765948068 -1.53747287288871 0.583088871659853 0.417553108181701 0.681507821581631 0.29693963591446 0.427614343871178 -0.725434325052958 -0.533615473095896 -0.521121717963045 1.24621562913343 -0.140783251919905 0.462697028370541 0.576789672171144 -0.441777515423629 -0.282373058484549 -0.61778614799458 0.189596648643555 -0.85443267461513 1.57239486352356 0.342857200644586 0.628704074814521 -1.23589754037092 0.606469957500843
-0.0244969440361326 -0.0197758868519823 0.00703196351086532 0.536932965789889 0.237381347524171 0.169631528696728 -1.43748837906135 -0.0274251719127412 0.205275227615861 -0.571308340175233 -0.113304858199239 -0.3922439530768 1.3251561686852 0.136968251021396 0.0855058480801069 -4.0222075378211 0.0848157643483642 -0.063628856810911 3.75362586956407 -0.214140900953399 -2.02947506283164 2.9885685512864 0.194981050100394 0.253110062982204 -2.84178486191068 -0.082101966364555 1.46490840877042 -0.185933856973508 -0.0315175946989365 -0.555577824945919 0.392957433835215 -0.0282114148530054 0.126703384066816 0.571822303431476 -0.110383315187394 0.563372891480559 0.00201471539565414 0.139009448765922 -0.500271367655417 2.57336105930615 0.143313473232901 -0.707547940937405 -2.16741724722705 -0.127339474660084 -0.707727146735105 -2.94141865744814 0.246819862349907 1.36923076762206 2.7768138899434 -0.0974031075879048 0.451884002505351 0.326118813497078 -0.213512266555444 -0.0052437621866215 -0.753395057477331 0.666031074103147 0.246980556214415 -0.474820544839566 -0.0685846555923344 0.105949964298259 0.339779848861714 0.789535750380614 0.0568617167887547 -0.20662762717956 0.0981926929605507 -0.095705666158335 0.149911434754503 -0.830792164599278 -0.228151606167205 0.130195711685393 0.233913702483183 0.110401055790036 -0.24035996899669 -1.0064688679237 0.0687260661931013
0.0164568514968905 -0.0519411421024315 -0.00142284775389867 -0.931103702579684 -0.395277596128526 0.316498778881994 -0.0504833273636159 -0.0823907011003027 0.263715343819358 1.06617062379622 0.148459790660085 0.071048542478061 -0.0487478336269307 -0.216708917463327 -0.484670950178808 2.39537062144299 0.112063016014322 -1.00639019220764 0.485707875547704 0.608436336182053 -0.800221506705114 -4.2509304428154 -0.0954285013808318 0.269863362520339 -1.46760960835526 -0.0791577976565872 1.28657884257561 -0.141826605043382 -0.0237970901174278 0.514361005695469 0.95338564238744 -0.240041409479689 -0.0751347946198592 0.133500091760041 -0.0357316306017915 -0.891431858420159 -0.588656078456956 0.118026686713939 -0.273525639970019 1.3595536545463 -0.00271791174674067 -0.558902259614858 3.67466167587545 0.0288336214963799 0.29808326200939 -0.644834396378731 0.145411235217733 0.29601686746691 -1.11556637508485 0.0228560668468696 0.079484070479084 -0.484270886733729 -0.585910655920611 0.10551544808863 0.347019043180249 1.5178965035389 -0.0101933903236478 0.0413638862752473 -0.414631308059673 0.418360948377356 -0.282634539540876 0.810800305193397 0.111447751345894 -0.0155497667705164 0.727848075452958 0.129966112291784 -0.391835919216042 -1.02074491084658 -0.0738849820192626 -0.638523369821594 0.756910010792031 0.252430777878156 0.579382628368843 -1.75306181839396 -0.237592692094772
-0.0323539741249272 -0.00382477108547102 0.034296955779465 0.737369122647505 0.279471312956811 0.411386320437347 -1.5923430141983 -0.0143698881397537 0.298682842956642 -0.763819589855687 -0.108485070704735 -0.583104555381029 1.50398735684746 0.141165574762343 -0.0849281214984282 -3.93015386470511 0.136880833559104 -0.146256356389953 2.99920108580298 -0.0488146822745659 -1.82597415259013 2.92106375846356 0.0580670493276555 0.252192179628135 -2.01915106053492 -0.206288498847902 1.28466388593105 -0.707827933926924 0.0175745094633158 -1.110598749235 0.844968448771073 -0.0471704626529212 -0.586829567715413 0.978504278846581 -0.0958977274651948 0.838366373486539 -0.492254157922481 0.0882150180806184 0.220133625103719 2.31279428679041 0.196502628164646 -0.698046948337149 -2.19091043310792 -0.155285037583647 -0.605438431445794 -2.8685058090316 0.228362950737805 1.37210114570745 3.06897230489084 -0.117897617401966 0.352512202244587 0.145633892636395 -0.60259787814166 0.214153242242193 -0.514308555218094 1.0945219065889 0.395585099907648 -0.446492144853199 -0.221727708239637 0.130608887749815 0.128791632974869 1.2089055991169 -0.14237784927619 -0.0781504399587601 0.407784206770538 -0.123075816491869 -0.045977985623181 -1.13901739489567 -0.393607151268194 -0.0682285579885849 0.58083658645491 0.309040012466996 0.10919135237802 -1.67691169566059 0.186515183097752
-0.027426200353474 0.123256564950667 0.080130959700047 0.526493521020906 0.254633697927922 0.962343104060385 -0.632010768880818 -0.00115313917170863 0.0563187000818096 0.244627998038019 0.0821315340356244 -0.362691194397975 1.17599498144531 0.0509723509320863 0.0108019701273121 -1.17275462180628 0.154685970856762 -1.62242619118509 6.32722552712024 -0.583923194204378 0.96625066462485 -2.99411518926885 0.209870043700054 0.565883058199264 -3.18422297295663 -0.070458474607588 0.30585107486461 -0.934962155099156 0.0462327818147447 -1.03233646634654 -0.355579783840497 -0.226684021241427 -0.783852072670516 -0.159163030477043 -0.129821873479002 0.292337877855321 -0.0903503181521992 0.0154705768340869 -0.175753065048838 1.68839603621415 -0.315214513516847 -0.320421508947269 1.96419041644084 0.0292858783086509 0.529848294691465 -3.16746555965556 0.00995967716710749 1.02963680942281 3.04426067385172 -0.0445291697407779 0.0528767660591422 -0.651985144794241 -1.26858601484421 0.989195948705295 -1.27239253110667 -1.05619217758574 -0.604800026860877 0.474031216577103 -1.15919977294732 -0.685028431320361 0.4054154506526 -0.165115388328599 0.145636206628044 0.0634195691217759 0.749499323981293 -0.327182992545395 0.693723126386062 0.508469582957335 0.36292773576653 -0.326395206944031 1.10682617151672 0.613712751361942 -1.63895503353328 1.67958384179472 -1.04926022993615
-0.0381104140168747 0.0910784541910574 0.090313808506183 0.397919917481402 -0.0581470105946346 0.269142939786977 -0.007457223753899 0.0276254607454638 -0.381429898770877 -0.862768443865066 0.00888109994853052 -0.217637085224724 0.0286736989624217 0.0562238264242042 0.100812388617304 -1.25317765867446 0.00801618129220325 0.587077164821847 4.28863976494646 -0.427450307574288 -0.107696770883005 1.95865714818792 0.249997229994049 -0.67774707093178 -3.52918462045081 0.255383688332353 0.414833653773862 -0.106639533809635 0.0693400453106131 1.04464870169004 -0.459502434344124 -0.183346814310023 1.706152322577 0.173756347366009 0.14692998506997 -0.675824915202082 0.13943830855152 -0.129641125020203 -1.36077184259436 1.99754429206828 0.0250911256695369 -0.310918202355364 -1.33954482586833 -0.0458612576000025 0.692158353811031 -2.66378953895404 -0.245960343007427 0.378496014470238 0.616058367563391 -0.032830142184237 -0.585130840734927 0.220640132164648 1.02350138912081 -0.615614852497349 -0.378876794651576 -0.875000460831407 -0.806161266157692 0.188954130295707 0.273655223502358 0.316169934957665 0.739194090727948 -0.977103285458255 0.47696175844536 -0.0132758843101839 -0.605628950091554 0.804763358091565 0.680900784439066 0.88543759160874 0.714629012493264 0.279420148030352 -1.10034776623031 -0.833910396901281 -1.05746924386576 1.56015641880264 -1.02331678400926
-0.0218520515814243 -0.0294396301982121 -0.0172209829613985 0.0630071643879029 0.155095033158253 -0.0815926310916107 -0.933561161710831 -0.0540599871222867 -0.0910375736719266 -0.0882870089319179 -0.0774405587429101 -0.113828077422077 0.847568089833536 0.115440415381003 0.374114856948295 -3.02824630898014 0.0335497935870491 -0.234308366614414 3.25731014207738 -0.410405702198574 -1.08562023782571 1.91726318002124 0.287853876260092 0.369434937393459 -2.35231006506873 0.0449248623127421 0.595852592485077 0.376150655378972 -0.0795357496259097 0.260296035492813 -0.00503164628547109 -0.000806554644738007 0.438702734742589 0.0545263849946344 -0.102687750293657 0.0466318168190907 0.330470403347952 0.160086827365326 -0.647252517651846 1.70940605194556 0.0769397081060119 -0.46858408023556 -1.28763942208137 -0.0800597401792971 -0.631607620113541 -2.00452843308507 0.229324542823021 1.02518417526993 1.74941213934326 -0.0724845028513035 0.438010337019197 0.433915600241353 0.174345386795749 -0.136722967906612 -0.968681384296942 -0.115813482256845 -0.0349929530454216 -0.403508978644078 0.051032514714958 0.000421660700468706 0.593333684020143 -0.0156868064981687 0.26792989394258 -0.251485383734483 -0.149124934704056 -0.111399928851817 0.402949506885408 -0.145905658100051 0.0343326940949316 0.275687936610837 -0.123771042427276 -0.0354238697124859 -0.66586883757754 0.128628625118712 -0.161320184914197
0.0370431496463591 -0.124943207752542 -0.113596164036819 1.39731594137511 0.199745558905507 -0.0392568683238198 0.861289288981044 0.0375565986822347 0.373152236422347 -0.958917882199626 0.270949395934229 -0.0724150831018361 -0.9398027685185 0.0976388776259107 -0.543685707641785 -3.5766679861967 0.450483780447575 -1.40695345948265 -0.284632542774621 -0.496405973160998 2.26408964767426 1.65885176217137 0.339831013788174 0.22970943676729 -2.3608780048141 -0.265906951021063 -0.322148003827542 -0.0994754156645985 -0.0982651980322167 -0.325772228970107 -0.531677633645023 0.263965769137807 -1.20277377835746 0.178376874468523 -0.138886035877979 0.552609230770546 0.432398135940032 0.131886211140016 0.712910230918488 2.17349096108508 0.0436328836420987 -0.208746215089232 -1.41256206101925 -0.037783112753645 -0.156430720560043 0.48024376993407 -0.0139945072722632 -0.561248390036673 3.71255534600787 -0.028031951945123 0.452455558442632 -0.337408264531761 -0.623628719797904 0.356454729793969 -0.40131068657761 -1.08029625726193 -0.370446151744034 0.155173965984499 -0.860249792510315 -0.0363546085757157 0.266509617290513 -0.898503159789056 0.207955858386036 0.244328978894943 0.458548555564405 -0.0518573241827041 0.228822149525023 0.799909374942694 0.0780751066750788 -0.264617800562435 0.144108200809211 0.484592531572928 -0.65844915191039 1.42863890366535 -0.300319863493157
0.073573364477209 -0.0376895246469556 -0.0172569783870482 -0.0338819799437598 0.165802643848326 0.122671125063492 -0.90369832815105 0.194905973926896 0.731444532695737 -0.694878065329054 -0.126958180258379 -0.5393940244636 -0.00603411888981712 0.134961248931239 -0.453427692045359 7.78424271014751 -0.507077331315238 1.37370525614051 1.64364189506306 0.675527952940471 -2.3458686836487 -2.17210796540958 -0.471244656411444 0.192385522800863 1.77356044197095 -0.49008440508635 0.755261163187088 -0.0487815150609315 -0.026375391034684 0.0398441079822774 0.644662646776345 -0.203647205935759 0.575111514005315 0.614876432051163 -0.163924968180324 -0.937810678818969 0.0623291648347712 0.0788788331078015 -0.417767023854134 -0.301587673806578 -0.128912217650795 0.626113689718654 1.41242450707123 -0.0177943386699626 0.617673533734333 -3.22042845762608 -0.132258506685308 0.532707617038972 -6.47583135636439 0.123966189056334 -1.25563974578891 -0.377950683771644 -0.486377133354607 -0.297160236451657 0.584397048272039 0.917894666917136 0.198415785037932 0.273377030284122 0.401683496343269 0.498256138039397 -1.0432250826056 1.3784900766501 -0.0658019520794241 0.455727542634196 -0.01216953919182 0.330235147530312 -0.383424302462058 -0.699724078062245 -0.14547422721262 -0.597485499258661 0.884233030400389 -0.0931695313111257 0.93650301642715 -1.45210689274827 -0.0250543589133375
-0.060667461720668 0.128016188662299 0.0812326768351131 -0.213858851082415 0.273256702718379 0.90179751256656 -0.954707188729153 0.0472311406561594 -0.0988557801230561 0.76766775796783 0.168724958190721 -0.116420776509593 1.3876732810639 -0.0726696221832166 0.246133635270912 1.96898834956977 -0.144043409043041 -1.59648557347022 2.63959007139989 0.0937259177475978 0.566144539255591 -3.20316505148445 0.0168887966046878 0.73912621363958 2.41919779345186 -1.23767622861839 0.0481204847798918 -0.715048616312267 0.028884529312656 -1.27651452156394 -0.0743868610968937 -0.163596638476362 -1.39610623796309 -0.488530174028829 -0.151812250338994 0.110242418806994 -0.21683567278365 0.0347240157937812 0.021731981125864 -2.31516124313707 0.070955468591738 0.559360429961343 2.89370132143552 -0.0470640190370712 0.527644860421333 -1.85321420517096 0.0208007280422679 0.771249817040349 -0.275756585029755 0.0100355246711552 -0.0157688246466136 -0.516591436534839 -1.26460132122478 1.25985738123433 -0.409478305767726 0.0756721549027736 -0.12076619571607 0.170477164089315 -0.761209664385896 -0.766557299086535 -0.363386163223198 1.18926340956018 -0.540355102328449 -0.0462320104841951 0.656141588016056 -0.616662062273574 -0.00313623001482761 -0.0474980210263341 -0.163775072943511 -0.323858043656089 1.38597455408342 1.04776950509388 -0.213281638721102 -0.31012476032997 -0.172144523627449
-0.170413657874061 0.103624916911467 0.142941691907975 -1.31059601900987 0.24249604039882 0.0862401547633622 -1.06515169614015 0.050094062546232 0.0043333350278656 1.0682431889831 0.115765659762767 0.388864753938837 1.90326533031659 -0.339084622926307 0.704290869136468 3.14202322147576 -0.663059908825942 -0.539275239558956 -6.51289018973193 0.0633491209315757 0.480647690031897 2.38968000175795 -0.845770632542696 0.0866296766909293 1.13314474120091 -1.22746329792082 1.11863164268911 0.435248202320944 -0.099960839690504 0.0534982013719671 -0.242261813021914 -0.00372629788530059 -0.295469994107217 -0.655214448695391 -0.137431820681729 0.200105513162005 -0.0549673289588441 0.0550799432190912 -0.0901939951608059 -0.29867872919371 0.107810927804352 -0.173598995933882 -0.814797082991438 0.0236862756284632 -0.306540387265803 4.77150708719003 0.122929777907804 -1.36412250250199 -3.95268057340729 0.0356704383781869 -0.241475570081649 0.735904623043926 0.540781133902032 0.371165803146846 0.6881767455138 1.20992067012022 0.370144304388942 -0.839324880249556 1.13141850343082 0.0152782584170439 -0.466442095299216 1.49693765273395 -0.9990898056655 -0.517560227705184 -0.311669478310712 -0.494121292072971 -0.875285338914407 -0.276077458538404 -0.903896817212491 0.410220068646294 0.212481768941128 0.633700754115075 1.09885112785383 -1.60780202107414 0.751311693662759
-0.0235880595384759 -0.0440699709535601 -0.045921164272691 -0.540041427904929 0.0683249743072896 -0.283242090903807 -0.23485061199081 -0.0778645334350277 -0.423902958376504 0.520896746552734 -0.0333163375406921 0.15986468416703 0.142370393080877 0.0907858628025614 0.6625811696648 1.57219611735194 0.0205598158005976 0.0755950218478098 -0.0330836528248846 -0.388670635750511 0.661192003344902 -1.07142312772907 0.262542150053359 0.19645172034837 0.180085628746154 0.0189986427681306 -0.888998824756418 0.689778541955214 -0.105338299172396 0.696082369427222 -0.249331057509345 0.0325383221262907 0.265041518144369 -0.317882288777861 -0.0780784491074606 -0.31324196419124 0.457350936331001 0.149085853956208 -0.263075396573342 -0.717486020849123 0.0399022148836835 0.117897360291783 1.13808639892226 -0.0213270325873041 -0.231745492308151 1.06331284410982 0.124865303367029 0.0962278569404398 -2.20393794898112 -0.0505854001063513 -0.0801217037334513 0.335155207996269 0.32469442308208 -0.0691528690972343 -0.952869622249732 -0.776593337978057 -0.210774814434779 -0.21627542969443 0.12489101438535 -0.169339965748965 0.651659643302294 -0.698889241297354 0.310817158053362 -0.171003211524168 -0.247909495306362 -0.201965191117182 0.556506764037866 0.560659864827299 0.225554279096391 0.26352739627543 -0.297588067796522 -0.0349998950203683 -0.839154159087903 1.0023826157819 -0.250822553682161
0.0349962954778034 -0.0460242654561593 -0.00263357960664693 -0.862472252934005 -0.390508202229932 0.0946761969847516 0.426493343472371 -0.0830810419422287 0.021083806353985 0.568785317947368 -0.00326118556386895 0.0800887936300001 -0.574584438129729 -0.0837230460697106 -0.239200659180584 8.63151666593145 -0.0613824851401823 1.83436365786836 4.3726242920725 0.0408851471141053 -2.52509710704402 -2.75976414236402 -0.246630629255062 0.0111436695608016 -4.05039838385945 0.660074859598843 1.66537644729076 -0.0660325799137658 0.00628145888606766 0.416657336303389 0.039049123295784 -0.346378324603683 2.38145144745441 0.186099178821314 0.0720463870991092 -1.00248417430427 0.0895296224473845 0.0616465372983417 -1.5753991960144 2.25099888269599 -0.0613806853688998 -0.833558927280829 2.10430466766403 0.0333669882467849 0.0514320639396705 -2.59276696460449 0.148867824520843 0.789336232878441 -7.73834288602002 0.0826223573753773 -1.34401674328495 -0.100776393191654 0.316126226226519 -0.374838107893672 -0.210403804440403 0.687946631899824 -0.345955892572665 -0.00570938872841957 0.307779144128521 0.600209581649798 0.692423948630289 -0.47084330741545 0.654729024669486 -0.0383616106658734 0.00654114017111241 0.43253003346402 0.286186259611775 -0.335970247277053 0.409438710799511 -0.262286839641429 -0.103198885337884 -0.339679061669895 -0.421107913574799 -0.191802396905336 -0.859653039775079
0.0147730369070311 -0.0780725355732467 -0.126139798545214 -0.837392697222713 -0.0276460295601208 -0.420950047922307 0.227425784119995 -0.0341560593990645 -0.445608971373863 0.963726099735886 -0.0635383540264202 0.40889440854165 -0.174403236586972 0.123119268112832 0.597515581150097 2.91381865061081 -0.0504285628945916 0.310798131899804 -3.82184028649258 0.016324439752536 1.59157245497921 -3.01024396817196 0.0356025612898187 -0.332962315243648 3.21841245667951 -0.0715275387493861 -1.55579762986664 0.398046672801726 -0.0897126848978319 0.356384281603769 -0.484947857846128 0.0589970168603356 -0.117791688006483 -0.530331404725721 -0.00878648340110828 -0.352855187228992 0.466285515197639 0.0582976771619972 0.390623644702194 -2.45208012900329 -0.0357861379606325 0.603649715901183 2.18159507405994 0.0871104727335369 0.125898372083177 2.92656283106211 -0.0806438945155562 -0.867465589802178 -2.1512920678665 0.0297481624180672 -0.0152756873152117 -0.207304855402142 0.120471033225742 0.0737785384034126 0.101425853514449 -0.563430741271782 0.0566262038609319 0.179891253447645 0.0322184770583741 -0.242002131736869 -0.0292678805958261 -0.575825766094279 -0.0735443110265059 0.0475412155371138 -0.112755413737714 -0.188355063568822 0.144739663419181 0.687009465282014 0.0866654150063959 -0.0424062109579912 -0.199721390548285 -0.0149355305428214 -0.0427337693314041 0.743133275844949 0.151277461157912
-0.12490386989451 0.123140094037672 0.107869548926124 -1.04093243110189 0.274614244485741 0.534068501238717 -1.12720678151962 0.0523144660884562 -0.115316488272695 1.02655457254646 0.167264829460256 0.159916363313856 1.53240883072015 -0.201062991484289 0.465821945537307 6.72170813856228 -0.441581083243654 -0.73541919901802 -3.25908265968045 0.190085929322209 0.76944361800328 -0.136839953039973 -0.437894123216385 0.737426715328545 5.8587376060932 -1.57499887545914 -0.385934726290946 -0.12768888739907 -0.0305158934251401 -0.811077727081084 0.0104314743533027 -0.0899697950810445 -1.29482308060033 -0.645141128827304 -0.151311656812279 0.0468143650491717 -0.258054034695199 0.0535596507057549 0.168237991503716 -4.82810603737155 0.301602586197204 1.20296121168102 0.845532034292675 0.00329049612475519 0.0905855739698388 2.14913208521733 0.0742161399352405 -0.412541773600704 -5.89624741072209 0.110443993190632 -0.597014216292832 -0.0131858957460595 -0.654043568921041 1.06146319345178 0.381308028544034 0.982666378492427 0.249267551294091 -0.329155027650636 0.133286947418158 -0.505139491864365 -0.625559360163647 1.63131500443912 -0.885662048798685 -0.261401095060261 0.230378951684376 -0.677836288165354 -0.625296593556404 -0.342894224510969 -0.6391496902279 -0.0247288574213904 1.04632326031331 1.02574236147769 0.797717253520623 -1.45023127396173 0.440295789437774