10.121982 0.000000 0.000000 0.000000 6.422653 0.000000 0.000000 0.000000 5.139431
10.188471 0.000000 0.000000 0.000000 6.178189 0.000000 0.000000 0.000000 4.959219
9.967225 0.000000 0.000000 0.000000 5.891325 0.000000 0.000000 0.000000 4.836880
10.021229 0.000000 0.000000 0.000000 5.988703 0.000000 0.000000 0.000000 4.881287
10.104634 0.000000 0.000000 0.000000 6.233012 0.000000 0.000000 0.000000 4.892136
9.999712 0.000000 0.000000 0.000000 6.458361 0.000000 0.000000 0.000000 5.056149
10.132706 0.000000 0.000000 0.000000 6.298345 0.000000 0.000000 0.000000 4.985218
9.901310 0.000000 0.000000 0.000000 6.627055 0.000000 0.000000 0.000000 5.097738
10.260064 0.000000 0.000000 0.000000 6.284194 0.000000 0.000000 0.000000 4.967378
10.035826 0.000000 0.000000 0.000000 6.693571 0.000000 0.000000 0.000000 5.129221
9.714738 0.000000 0.000000 0.000000 5.784574 0.000000 0.000000 0.000000 4.879687
10.147989 0.000000 0.000000 0.000000 6.220590 0.000000 0.000000 0.000000 4.957868
10.002750 0.000000 0.000000 0.000000 6.467140 0.000000 0.000000 0.000000 5.113644
10.299520 0.000000 0.000000 0.000000 6.420462 0.000000 0.000000 0.000000 5.039764
9.926087 0.000000 0.000000 0.000000 6.875717 0.000000 0.000000 0.000000 5.276261
10.182005 0.000000 0.000000 0.000000 6.347365 0.000000 0.000000 0.000000 4.985765
9.860357 0.000000 0.000000 0.000000 6.218609 0.000000 0.000000 0.000000 4.926587
10.305597 0.000000 0.000000 0.000000 6.312868 0.000000 0.000000 0.000000 5.001955
9.697039 0.000000 0.000000 0.000000 7.094400 0.000000 0.000000 0.000000 5.402354
10.376995 0.000000 0.000000 0.000000 6.322343 0.000000 0.000000 0.000000 5.038843
10.147240 0.000000 0.000000 0.000000 6.630788 0.000000 0.000000 0.000000 5.304447
10.180307 0.000000 0.000000 0.000000 7.913387 0.000000 0.000000 0.000000 5.450610
9.813082 0.000000 0.000000 0.000000 5.983035 0.000000 0.000000 0.000000 4.724018
10.214178 0.000000 0.000000 0.000000 6.234201 0.000000 0.000000 0.000000 4.996846
10.335218 0.000000 0.000000 0.000000 6.340399 0.000000 0.000000 0.000000 5.015552
10.638107 0.000000 0.000000 0.000000 6.676042 0.000000 0.000000 0.000000 5.290560
9.823755 0.000000 0.000000 0.000000 6.056268 0.000000 0.000000 0.000000 4.745358
10.543009 0.000000 0.000000 0.000000 6.381044 0.000000 0.000000 0.000000 5.209269
10.388656 0.000000 0.000000 0.000000 6.333265 0.000000 0.000000 0.000000 5.049589
9.931502 0.000000 0.000000 0.000000 5.918902 0.000000 0.000000 0.000000 4.762800
10.244634 0.000000 0.000000 0.000000 6.668463 0.000000 0.000000 0.000000 5.176860
10.441295 0.000000 0.000000 0.000000 6.333631 0.000000 0.000000 0.000000 5.031366
10.448853 0.000000 0.000000 0.000000 6.373353 0.000000 0.000000 0.000000 5.058912
9.091542 0.000000 0.000000 0.000000 6.484012 0.000000 0.000000 0.000000 5.358039
10.350185 0.000000 0.000000 0.000000 6.222158 0.000000 0.000000 0.000000 4.962190
10.415395 0.000000 0.000000 0.000000 6.376199 0.000000 0.000000 0.000000 5.033069
10.406300 0.000000 0.000000 0.000000 6.218700 0.000000 0.000000 0.000000 4.946900
10.406300 0.000000 0.000000 0.000000 6.218700 0.000000 0.000000 0.000000 4.946900
10.406300 0.000000 0.000000 0.000000 6.218700 0.000000 0.000000 0.000000 4.946900
10.406300 0.000000 0.000000 0.000000 6.218700 0.000000 0.000000 0.000000 4.946900
10.406300 0.000000 0.000000 0.000000 6.218700 0.000000 0.000000 0.000000 4.946900
10.406300 0.000000 0.000000 0.000000 6.218700 0.000000 0.000000 0.000000 4.946900
10.406300 0.000000 0.000000 0.000000 6.218700 0.000000 0.000000 0.000000 4.946900
10.406300 0.000000 0.000000 0.000000 6.218700 0.000000 0.000000 0.000000 4.946900