4.89917 5.63741 2.66681 2.76992 4.67873 -0.10521 2.40122 1.54243 2.25412 7.32577 1.61994 0.165035 8.1213 4.63853 2.62188 1.29378 4.93049 2.29535 4.19496 1.67433 4.59313 9.29998 1.40321 2.65182 6.28954 4.80138 0.305776 1.45233 4.83333 3.79162 3.86489 1.40093 1.05853 9.02444 1.4013 1.01576 6.58234 4.50496 3.961 4.80755 4.67451 0.378947 0.654844 1.56135 3.05729 5.69104 1.50458 4.07089 9.96726 4.55955 1.96262 2.11732 6.05133 1.49743 3.35287 0.406196 3.83793 8.33893 2.45735 3.34138 6.83596 3.47651 1.23664 8.84608 0.168078 3.28558 6.83133 6.04815 0.793995 2.17843 3.55238 1.64684 3.34016 2.83141 4.00742
5.52106 0.127995 2.46061 2.86705 4.64218 4.76131 2.30023 1.6282 2.4015 7.55221 1.58546 0.340548 8.1251 4.6115 2.72571 1.06567 4.58284 2.07615 4.31869 1.7179 4.51213 9.19518 1.56109 2.95577 6.23545 4.49076 0.185052 1.3209 4.50994 3.63674 3.85528 1.59725 1.11118 8.88919 1.59659 1.50805 6.23058 4.56699 3.4914 4.70719 4.56114 0.660893 0.469937 1.33855 3.22858 5.92219 1.5794 4.18973 9.71288 4.80745 1.8039 1.84498 5.59404 1.2687 3.4138 0.471589 3.8882 8.69128 3.01243 3.61139 7.00608 3.28321 0.924867 8.22832 0.33577 3.49451 7.10578 5.76947 0.873822 1.69686 3.30918 1.45479 3.61661 2.906 3.77641
5.6846 1.23143 2.20197 2.91872 4.85589 4.59205 2.32631 1.64629 2.13698 7.44766 1.50207 0.238119 7.97728 4.3887 2.90897 1.14001 4.5753 1.97715 4.14752 1.82773 4.45928 9.2961 1.41371 2.97765 6.15432 4.42726 0.456502 1.39768 4.58818 3.52567 3.86132 1.96235 1.12979 9.06731 1.46489 1.43781 6.4325 4.35917 3.78346 4.77706 4.9437 0.621036 0.799422 1.41858 3.27271 5.65885 1.43469 4.29012 9.52993 4.36231 1.77853 1.94458 5.70027 1.15643 3.45774 0.595404 3.82323 8.62836 2.59721 3.81164 6.54795 3.163 1.16368 8.51517 0.195863 3.64064 7.1013 5.53335 1.16966 1.79612 3.37871 1.33944 3.56889 3.00806 3.64789
5.17422 5.81472 2.50629 2.74671 4.91122 -0.0912038 2.44984 1.65135 2.5586 7.49679 1.96809 0.140822 8.21221 4.5739 2.47134 1.16198 4.48221 1.99374 4.2027 1.61381 4.7292 9.28525 1.35428 2.95992 6.21077 4.77693 0.168009 1.10886 4.2871 3.44707 4.11467 1.3617 1.34325 8.80932 1.56158 1.51891 6.46278 4.50696 3.48866 4.75373 4.31722 0.488264 0.729187 1.29115 3.33471 5.56084 1.78559 4.05341 9.64736 4.57046 1.46906 2.20072 5.68232 1.63077 3.56424 0.308821 3.87637 8.66859 2.69273 3.57988 7.01163 3.58165 0.977059 8.44104 0.128222 3.4705 6.63275 6.07102 0.785473 1.82717 3.34013 1.21258 3.22411 2.71652 4.21651
5.41707 0.020068 2.44063 2.872 4.58819 4.98251 2.28987 1.75423 2.22525 7.47709 1.65808 4.99039 8.18645 4.86445 2.71491 1.26788 4.57542 2.07981 4.19962 1.50985 4.44474 9.10289 1.64733 2.73468 6.24414 4.3746 0.542172 1.51893 4.48974 3.4906 3.8644 1.41075 1.14882 9.00732 1.53859 1.2091 6.54811 4.52414 3.9327 4.77198 4.46322 0.977246 0.650462 1.56429 2.9146 5.68343 1.766 4.08894 9.79082 4.54803 1.66033 1.98036 5.8832 1.32712 3.5202 0.464477 3.56131 8.38011 2.93069 3.54889 6.83357 3.11347 1.20722 8.38964 0.479078 3.37861 6.96302 5.51469 1.38416 1.84048 3.36446 1.26184 3.55472 2.7941 3.86129
5.48034 0.0199456 2.60345 2.89083 4.79062 0.103595 2.38864 1.64789 2.45186 7.52073 1.38852 4.94106 7.98112 4.48481 2.39892 1.27903 4.70165 2.36774 4.10827 1.63265 4.55313 9.18504 1.54491 2.71754 6.34834 4.75132 0.114664 1.25627 4.89483 3.79197 3.77482 1.28828 1.10467 8.91835 1.44224 1.1797 6.52245 4.44041 3.66076 4.75269 4.76297 0.459561 0.637834 1.69851 3.36472 5.61558 1.27108 4.47193 9.81823 4.63649 1.85043 1.9648 5.9102 1.67683 3.44616 0.409429 3.54467 8.46993 2.87179 3.3747 6.71884 3.39774 0.838572 8.47992 0.351078 3.43982 7.20184 5.93597 0.921615 2.1144 3.4269 1.48731 3.4587 2.86649 4.06954
5.18137 0.110543 2.28612 2.82089 4.74169 0.105974 2.30297 1.46937 2.36439 7.42562 1.34356 -2.34271e-05 8.15359 4.40954 2.58037 1.24493 4.75947 2.29156 4.23874 1.68422 4.62211 9.19502 1.51646 2.84482 6.3029 4.68974 0.26721 1.47589 5.06629 3.82381 4.0293 1.7535 1.16208 8.86979 1.30956 1.30156 6.40809 4.59783 3.74125 4.81872 4.70219 0.752704 0.606747 1.46318 3.08016 5.7184 1.36646 4.24014 9.76026 4.93016 1.92114 2.01738 6.00764 1.54447 3.49595 0.516587 3.69572 8.7878 2.86871 3.53124 6.98369 3.48294 1.00056 8.19144 0.467868 3.43676 6.70688 6.08256 0.843675 1.76482 3.59781 1.43952 3.57828 2.93109 3.92598
4.89586 6.1672 2.37162 3.13618 4.91549 4.6913 2.44814 1.59456 2.7336 7.49558 1.57645 0.106941 7.98119 4.42262 2.37918 1.3946 4.62994 1.97552 4.0556 1.50732 4.95297 9.04379 1.46747 2.95955 6.3958 4.80599 0.072826 1.73021 5.02256 3.54893 3.85625 1.29986 1.41727 8.49467 1.48684 1.49664 6.52837 4.89115 3.58638 4.85765 5.18797 0.436136 0.653891 1.55076 2.77868 5.56644 1.72617 4.511 9.74024 4.64307 1.87748 1.92016 5.80054 1.24861 3.51397 0.250153 3.94673 8.30462 2.85381 3.60765 6.85305 3.56825 0.844398 8.57126 0.30295 3.70982 7.0383 5.89905 1.08539 1.85698 3.25588 1.35197 3.06848 2.56894 4.44013
5.46403 0.258182 2.43979 2.91871 4.91252 0.0184166 2.23397 1.46829 2.34718 7.61125 1.33075 0.0545565 8.09189 4.63954 2.58454 1.10859 4.67784 2.21398 4.11081 1.60508 4.50525 9.30502 1.3546 2.75419 6.21735 4.69422 0.41959 1.43417 4.66499 3.64763 3.85539 1.64724 1.08394 8.92517 1.37186 1.1605 6.12684 4.93044 3.78956 4.6563 4.84862 1.01673 0.555065 1.49412 2.94677 5.71067 1.54784 4.33183 9.82689 4.61153 1.86811 1.67539 5.91762 1.46155 3.56685 0.320286 3.64634 8.46331 2.38864 3.60358 7.12085 3.57606 0.822881 8.36081 0.262173 3.25198 6.98016 5.91996 1.05434 2.04945 3.6139 1.40474 3.49285 2.8751 3.83682
4.7374 5.78074 2.85578 2.85087 4.47481 5.02888 2.5686 1.29374 2.23209 7.42631 1.79179 4.88445 8.05849 5.10058 2.80118 1.27681 4.58569 1.99244 4.19367 1.58972 4.65709 9.23132 1.57545 2.88265 6.27307 4.78914 0.368403 1.68484 4.6048 3.46915 4.02665 1.82805 1.16552 8.43245 1.0917 1.74848 6.86847 5.10148 4.01767 4.69209 4.67711 0.243023 0.72868 1.42728 2.49293 5.62173 1.19675 4.40322 9.77904 4.98679 1.76168 2.15503 5.87402 1.29389 3.33463 0.36882 3.98711 8.50373 2.86827 3.30278 6.86431 3.46347 0.847012 8.60981 0.404875 3.85501 6.70888 5.78608 1.44847 1.66874 3.47468 1.01727 3.54624 2.75004 3.78781
5.58447 0.584153 2.21912 3.17723 4.82095 4.76006 2.41575 1.87068 2.23462 7.62617 1.41885 0.287345 7.89022 4.26974 2.94346 1.23619 4.5775 1.7956 4.24004 1.85926 4.36979 9.13012 1.69543 3.12823 6.03704 4.21597 0.579975 1.41517 4.63935 3.24717 3.98306 1.6828 0.983447 8.81376 1.60498 1.64366 6.08838 4.52313 3.97174 4.53313 4.48582 1.03143 0.941552 1.87357 3.38262 5.71267 1.79156 3.97872 9.46755 4.18934 1.67391 1.70749 5.94745 1.01482 3.59096 0.574569 3.46625 8.53207 2.68802 4.10312 6.60643 2.94996 1.30396 8.22682 0.338971 3.71243 7.0087 5.32039 1.21497 1.84142 3.38064 0.94294 3.39125 2.98447 3.66106
5.14965 -0.0323727 2.40329 2.97068 4.60241 4.8633 2.22091 1.64225 2.48535 7.51691 1.57033 0.114237 8.05197 4.72419 2.45699 1.11971 4.71893 2.23532 4.0763 1.61656 4.72831 9.11933 1.52892 2.74131 6.38524 4.62179 0.131828 1.3883 4.53662 3.95812 4.00795 1.52606 1.30938 8.92441 1.59442 1.32437 6.32754 4.60563 3.54768 4.9283 4.52013 0.690588 0.523894 1.1082 3.12983 5.70014 1.44 4.09671 9.79646 4.72022 1.88704 2.00658 5.81443 1.6108 3.33522 0.540514 3.96977 8.54212 2.91516 3.46383 7.17266 3.52911 0.745521 8.38785 0.192781 3.57492 6.98747 5.93474 0.872982 1.83863 3.33952 1.62505 3.57644 2.97686 4.25527
4.82686 5.04515 3.02673 2.67729 4.9419 4.74118 2.56879 2.09325 2.30725 7.3985 1.69584 -0.0618708 8.29554 4.79764 3.2367 1.12724 4.6987 1.75618 4.27402 1.39927 4.3157 9.15083 1.45836 2.84517 6.26306 4.55577 0.698163 1.71492 4.746 3.17954 3.75671 1.43965 0.696886 8.76114 1.32815 1.22813 7.38485 5.04373 4.88327 4.69158 4.96292 0.457479 0.700813 1.70362 2.56482 5.69023 1.03058 4.08306 9.74655 4.33914 1.94201 1.49555 6.13863 1.04997 3.10146 0.497086 3.5032 8.22158 2.76125 3.56679 6.26836 3.00103 0.674611 8.96308 0.204629 3.74323 6.80502 4.85879 2.08904 2.03754 3.49562 1.09336 3.72362 2.83175 3.79211
4.5659 5.71724 2.2654 3.10995 4.36816 0.0179896 2.23514 1.76302 2.322 7.4618 1.49006 4.92238 8.04367 4.71618 2.34586 1.10916 4.78011 2.48544 4.26675 1.48209 4.63582 9.25228 1.79105 2.79154 6.31629 4.81554 0.1406 1.21501 4.60836 3.975 4.00721 1.8336 1.10732 9.00541 1.4004 1.27183 6.38323 4.70137 3.67795 4.78922 4.36826 0.54888 0.470827 1.4501 3.25648 5.68901 1.43891 4.33602 9.98812 4.86579 1.9105 1.94975 6.14642 2.19726 3.66525 0.023379 4.29117 8.43677 3.0115 3.10134 7.31205 3.79163 0.852404 8.50924 0.720653 3.69715 6.75807 6.08495 0.880387 2.0395 3.61719 1.69013 3.34713 2.49699 3.80714
6.07148 0.529692 3.05763 2.89439 5.18123 4.3028 2.50461 1.83685 2.70287 7.56766 1.52367 0.210696 7.86788 4.22628 2.51311 1.1232 4.3137 1.62557 4.14145 1.71282 4.98405 9.29782 1.45733 3.08489 6.16215 4.7304 0.182404 1.6536 4.67608 3.25005 3.40889 1.46353 0.996262 8.76182 1.12583 1.64828 6.5612 4.60591 3.83875 4.56198 4.84489 0.209579 0.800541 0.887243 3.15648 5.72549 1.62633 4.92934 9.53529 4.66512 1.45104 1.86242 5.24455 0.771205 3.75025 0.593114 3.99949 8.92277 2.96375 3.53178 6.8904 3.48086 0.851658 8.15956 0.421675 3.92135 6.81552 5.92882 0.916936 1.14994 2.81785 1.69268 3.33197 2.90985 4.21801
5.27727 0.180957 2.84261 3.04154 4.77658 4.77288 2.03991 1.49699 2.11516 7.56238 1.42911 0.123975 7.95475 4.51049 2.50929 1.28293 4.82422 2.13535 4.05649 1.58293 4.75709 9.20508 1.374 2.73299 6.32199 4.67748 0.291812 1.63681 4.77599 3.66894 3.9282 1.73022 1.47741 9.15595 1.29039 1.16346 6.4046 4.87361 3.7187 4.87489 4.43702 0.635646 0.391816 1.57803 3.18391 5.70023 1.45225 4.38713 9.97117 4.89417 1.77829 2.1613 6.05228 1.55687 3.71355 0.10154 4.30007 8.0819 2.52142 3.24606 7.28842 3.61526 0.892526 8.47847 0.268898 3.55159 6.78877 6.13704 1.12022 1.84735 3.56466 1.49056 3.54402 2.82449 4.06216
5.99954 0.931983 2.23817 2.83722 4.66644 4.82415 2.36154 1.61399 2.52773 7.74834 1.52919 4.78401 7.75446 4.41904 2.64897 1.15836 4.85093 2.093 4.20237 1.4893 4.74224 9.34502 1.5544 2.62145 6.14527 4.47558 0.485661 1.28554 4.35013 3.57891 3.85792 1.46818 1.28401 9.41767 1.66701 1.16149 6.32539 4.06627 3.88595 4.7052 4.81614 0.649376 0.788372 1.30064 3.38705 5.78918 1.44317 4.57634 9.44377 4.99607 1.82775 1.93182 6.18505 1.47287 3.47147 0.343778 3.69093 8.69282 2.79285 3.43418 6.59501 3.3159 1.4024 8.15821 0.619024 3.25976 7.01026 5.58922 1.10376 2.15036 3.59383 1.41503 3.44756 2.92947 4.15089
5.43023 6.08997 2.58263 3.00761 4.91128 4.94791 2.1086 1.56182 2.53304 7.43068 1.45771 0.0264188 8.12482 4.71373 2.46767 1.14918 4.46463 2.08377 4.06055 1.73379 4.60276 9.27449 1.48536 2.66076 6.25106 4.62759 0.365108 1.70137 4.79575 3.43959 3.77628 1.82776 1.21757 8.86064 1.64505 1.17479 6.75093 4.47237 3.90978 4.71722 5.06533 0.688729 0.494018 0.954023 2.80248 5.53094 1.30182 4.47221 9.87434 4.67148 1.95904 1.96784 5.57283 1.29719 3.20436 0.533606 3.84042 8.63868 2.894 3.3232 6.71328 3.39495 1.17735 8.51154 0.258892 3.44921 7.06179 5.71667 1.13817 1.58041 2.99991 1.60436 3.90045 3.05965 4.04195
4.72638 6.42176 2.78426 2.88888 5.24791 -0.0480529 2.58424 1.45894 2.46088 7.4846 0.108112 -0.252312 8.09058 4.63856 2.32622 1.55222 5.20818 2.53039 4.07969 1.08517 5.09312 8.99368 1.61616 2.36454 6.16993 5.06169 -0.108257 1.51657 5.07571 4.30694 4.00004 1.79027 1.28319 8.85729 1.35333 0.869688 7.34367 5.23698 4.14235 4.8604 4.90487 4.27186 0.796458 1.64694 2.49919 5.43928 0.671024 4.39902 9.76052 5.33966 1.93225 2.41031 6.39796 2.41376 3.03557 0.048346 0.0451916 8.24586 2.84099 2.66809 6.58961 3.93857 0.791629 8.32022 0.49804 3.25168 6.14196 6.25369 0.761911 2.15639 4.17838 1.63014 3.40679 1.90947 3.95935
4.57498 5.42061 2.75596 2.61643 4.46203 -0.0738392 2.42058 1.53898 2.53896 7.45181 1.37247 0.127083 8.3364 4.6587 2.3819 1.17924 4.82613 2.1817 3.96236 1.59424 4.4798 9.44842 1.81007 2.80446 6.36615 4.68736 0.364784 1.13597 5.01863 3.7711 3.65988 1.47969 0.883675 8.8231 1.67628 1.44177 6.72583 4.93805 3.80971 4.84227 4.59933 0.371986 0.463323 1.38295 2.80963 5.50698 1.43283 4.1894 9.96067 5.05058 1.73426 1.91225 5.95879 1.40323 3.26891 0.42814 3.68851 9.16395 3.30774 3.33184 6.8679 3.29009 1.08157 8.59222 0.758829 3.82341 6.92202 5.77559 1.18043 1.85428 3.43232 1.74526 3.43023 2.98594 3.6254
4.68063 0.0341709 2.07941 2.85952 4.43327 4.69464 2.12464 1.69721 2.11824 7.43396 1.04828 0.479342 8.13865 4.42333 2.71379 1.28648 5.0096 1.78895 4.0879 1.6662 4.72055 9.27674 1.42462 3.23978 6.24646 4.60506 0.161321 2.25824 5.19693 3.0089 3.29175 1.65265 0.757164 8.83783 1.03553 1.83123 6.79859 4.75756 3.99988 4.79715 4.73472 0.0906405 0.677117 1.5623 3.16651 5.54016 1.87636 -0.00786666 9.86032 5.06619 2.24743 1.45979 6.10442 0.699909 3.88983 0.278423 3.99484 8.98307 2.93189 3.80761 6.87445 3.62453 0.988069 8.68361 0.592875 4.27272 6.56587 5.98868 1.16641 1.75043 3.73813 0.820756 3.77582 2.72331 3.58513
6.10408 0.740814 2.78895 2.84747 4.99812 4.65019 2.18977 0.443392 2.04649 9.29347 2.14607 0.679556 8.01788 5.17481 2.02469 1.23318 4.31616 1.83935 3.42898 1.62272 4.75358 9.35563 0.311415 3.33251 5.34079 6.11148 0.119719 1.76643 5.1283 2.99628 2.42188 0.542602 0.046275 8.59764 1.49433 2.57431 5.22732 -0.76841 4.57479 4.67857 4.7127 -0.122538 0.516421 -0.0297387 2.85035 4.52229 1.88237 0.302487 9.83063 4.25661 1.6514 1.65431 5.09476 0.567309 3.50581 0.905391 3.27572 9.58245 0.833862 4.95996 7.82459 3.17537 0.701462 8.425 6.9182 3.10848 6.48305 6.17798 1.22744 1.46881 2.76144 1.99629 2.68246 3.02574 4.62182
4.80831 6.03827 2.60697 2.86332 4.67634 0.117097 2.53617 1.66963 2.39063 7.3932 1.51094 0.144875 7.95968 4.48093 2.46668 1.19004 4.79096 2.3422 4.15337 1.71981 4.69886 9.24721 1.48355 2.82546 6.28789 4.46621 4.84471 1.1247 4.84372 3.90235 4.3352 1.96299 1.5001 9.1688 1.37923 1.24622 6.26221 4.47964 3.22058 4.73309 4.44607 0.42546 1.02008 1.45397 3.14898 5.64307 1.40742 3.94519 9.64218 5.07808 1.54908 2.38384 5.7913 1.85599 3.28633 0.641312 4.19091 8.38658 2.76547 3.42677 6.90971 3.23848 0.976206 8.373 0.346715 3.56972 6.91863 5.79372 0.796052 1.89662 3.51175 1.7593 3.37049 2.96883 3.90251
4.61391 4.5604 3.05474 2.75072 4.72197 4.83369 2.28355 1.39119 2.16216 7.43481 2.01707 0.293812 8.26266 4.67406 2.47565 1.1711 4.56712 2.14336 4.27461 1.75229 4.53729 9.21762 1.54518 2.99443 6.26882 4.95392 0.144121 1.47487 4.56626 3.74479 3.79544 1.40604 1.03806 8.83889 1.08603 1.46399 6.47835 5.00422 3.71945 4.67872 4.61326 0.560453 0.548205 1.96076 2.86162 5.81878 1.55668 4.15576 9.97123 4.23239 1.9244 1.55883 5.92966 1.43673 3.68989 0.335159 3.74742 8.4115 2.75673 3.5691 7.10413 3.75047 1.02759 8.88336 0.159796 3.72205 6.79115 6.15735 0.977019 2.33547 3.66923 1.46381 3.63729 2.92243 3.74202
5.38388 -0.0298468 2.52378 2.64532 4.80349 4.73841 2.04979 1.68139 2.15669 7.68462 1.46545 -0.0227698 8.15794 4.78386 2.80686 1.04045 4.54018 1.98233 3.98338 1.42012 4.46062 9.40139 1.42756 2.89009 6.57172 4.87327 0.546834 1.23393 4.4262 3.52989 3.70927 1.26993 0.971882 9.23422 1.52202 1.30257 6.5964 4.81617 4.00609 5.0929 5.00611 0.94914 0.494905 1.73367 3.2541 5.77627 1.63035 4.03049 9.97927 4.686 1.73655 1.80621 5.90983 1.56381 3.31359 0.125735 3.92904 8.49382 2.44839 3.64271 7.24136 3.60766 1.28821 8.80891 0.0702787 3.73503 7.25104 6.14289 1.27257 1.6698 3.27824 1.11739 3.1419 2.49101 3.71087
4.64479 5.68607 2.54528 2.61549 4.95119 4.9902 2.40009 1.68878 1.48202 7.58705 2.51294 4.93718 8.05275 4.84468 2.913 0.465055 5.62754 2.35631 4.49535 1.06932 4.73094 9.71389 0.875379 2.51023 6.34388 4.32661 0.929647 0.893093 4.827 3.54723 3.98174 1.11088 0.880795 9.13328 1.19206 1.16937 6.98095 4.22297 4.6696 4.80988 4.35127 0.762069 0.354324 1.01683 3.23114 6.01975 1.32335 4.66081 9.68054 5.57475 2.02314 1.60866 6.14079 1.2425 4.01598 6.23478 4.49396 8.83479 3.37482 3.71494 6.82773 3.00515 1.3612 8.47191 0.754067 3.55418 6.84908 5.50608 1.83105 1.67977 2.66722 0.115291 3.80631 1.72465 3.65882
5.30693 0.0715424 2.40932 2.99867 4.73882 4.65983 2.32427 1.69485 2.47066 7.60669 1.61309 4.65596 7.98273 4.53772 2.57654 1.30415 4.74892 2.22334 4.12323 1.67684 4.76998 9.2258 1.64152 2.56454 6.17637 4.18576 0.279009 1.32702 4.73127 3.79031 4.12478 1.55373 1.50509 9.16178 2.02901 1.20858 6.25534 4.2434 3.52996 4.7296 3.9786 1.02261 0.835384 1.42037 3.2205 5.58016 1.40528 4.17674 9.62537 5.17309 1.91673 1.83911 5.94201 1.41597 3.34068 0.490048 4.13562 8.77506 2.95025 3.47516 6.9148 3.1882 1.2245 8.32614 0.58685 3.13393 6.8213 5.57457 0.832383 2.15841 3.51802 1.51774 3.18944 2.87729 4.23595
5.31219 0.067714 2.78107 2.84432 4.68011 4.5505 2.28069 1.48695 2.05019 7.49433 0.972663 0.313603 8.23342 4.10677 2.16438 1.01213 4.82711 1.81456 4.12542 1.72441 4.91698 9.39965 1.71331 3.35253 5.90437 4.52109 0.0540642 1.8177 4.63415 3.01964 3.72794 1.67282 1.1259 8.64438 2.29364 2.14818 6.51731 5.14213 4.00089 4.70796 5.0881 0.661651 0.39769 1.70022 3.22506 5.64999 1.26825 4.60379 9.99865 4.42095 2.02302 1.04415 6.00021 1.12611 3.04325 0.770955 3.98328 8.66774 2.73788 4.25238 6.52596 3.52256 1.06406 9.08762 0.44044 4.05256 8.27634 6.10596 1.37 1.69407 3.76615 0.802247 4.00526 3.22577 4.22368
5.24358 0.300043 2.21478 2.95145 4.79144 4.94412 2.21779 1.63062 2.35965 7.53741 1.84315 0.346853 8.13797 4.49783 2.54318 0.915317 4.59306 1.76034 4.0796 1.73629 4.65256 9.34014 1.089 2.86168 6.4683 4.76322 0.428208 1.38254 4.39464 3.15415 3.72115 1.48707 1.16643 9.03716 1.53856 1.4564 6.64642 4.68466 3.81204 4.88677 4.89716 0.654605 0.402379 1.18369 3.23733 5.5721 1.25907 4.66847 9.70912 4.56658 1.35316 1.8037 5.74566 1.3389 3.1006 0.623566 4.14565 8.46364 2.14958 3.66976 6.99619 3.56989 1.34556 8.77006 5.99086 3.42852 7.185 5.99388 0.934637 1.61613 3.52358 0.890692 3.59095 3.01057 3.85315
5.08244 5.31379 2.80354 2.84334 4.56754 4.30951 2.1092 1.94558 2.14411 7.38128 1.66416 0.472371 8.39579 4.70572 2.88113 1.26086 4.7057 1.76599 4.34581 1.52804 4.17252 9.45857 1.90481 3.25451 6.16304 4.39261 0.61285 1.01013 4.38501 3.32328 3.79744 1.64062 0.910145 8.78484 1.65905 2.03781 6.75587 4.50389 3.98984 4.66731 4.74675 0.348893 0.980604 1.48326 3.57533 5.89115 1.28699 3.83264 9.63111 4.62447 1.5258 1.8096 5.85917 0.978783 3.52284 0.435214 3.2977 8.9516 3.24173 4.03262 6.25864 3.07976 1.31771 8.5656 0.684731 4.23409 6.69932 5.49684 1.45036 1.92985 3.45234 1.36361 3.6758 2.63815 3.51148
5.63461 -0.0495894 3.06039 2.91302 4.57623 4.86419 2.20177 1.84316 2.0525 7.6989 1.33595 0.231759 8.12917 4.81063 2.62395 0.473794 5.87338 2.27154 4.04751 0.89986 4.60215 9.09677 1.77113 3.00122 6.43615 4.52414 0.295558 1.21417 5.13284 3.25363 3.71982 0.902818 1.08639 9.03478 1.27972 1.58746 6.49332 5.03464 4.07718 5.01507 4.0884 0.285231 0.370572 2.03492 3.17254 5.58768 0.63651 4.96812 9.49986 5.25663 1.57804 1.2712 0.188241 1.35018 3.56002 6.23765 4.24521 8.59568 3.06075 3.51989 7.42875 3.29808 0.664541 8.57922 0.465209 3.87752 7.20173 5.71 1.05726 2.30637 3.24502 0.558209 4.16305 1.77299 3.34226
5.12793 0.0391269 2.31934 2.58114 4.8806 4.97301 2.32253 1.75131 2.10623 7.74782 1.49947 0.17433 7.89331 4.07679 2.37714 0.646899 4.96298 2.0336 4.18691 1.62911 4.64108 9.71011 1.53035 2.92866 6.37178 4.75424 0.28234 1.28419 4.62938 3.38396 3.73842 1.5991 1.04936 9.45002 0.95611 1.55294 6.59616 5.05631 3.7824 4.96699 4.68515 0.69794 0.683876 1.78624 3.35233 5.69314 1.29658 4.80625 9.75114 4.64552 1.76116 1.52406 6.24235 1.50982 3.34483 0.377591 4.06322 8.89955 2.65069 3.57702 6.83514 3.14633 0.712324 9.01557 0.440891 4.04352 6.99418 5.46598 1.49458 1.61908 3.89734 1.20956 3.8296 2.69822 3.61464
4.91368 4.83998 2.61214 2.53994 4.50262 4.84512 2.55351 1.57295 2.00728 7.74785 1.16769 0.486927 8.06696 4.72862 3.22029 0.786645 4.56856 1.71432 4.3036 1.49612 4.20788 10.0158 2.57544 2.80969 5.93017 4.68842 0.528805 1.25445 4.4142 3.21553 3.85518 1.72673 0.668117 9.38038 2.15096 1.45465 6.42165 4.85144 4.05381 4.49969 4.40349 0.808773 0.675611 1.80859 3.2368 5.79687 1.81087 4.2017 9.80866 4.95099 1.77048 1.61252 5.51314 0.968842 3.40825 0.518256 3.36469 9.10508 3.16994 3.89892 6.92876 3.77076 1.26584 8.68955 0.599113 3.59065 6.61656 6.26872 1.17428 1.27092 3.21514 1.18544 3.45529 2.62936 3.28794
6.2971 2.07712 3.39208 3.86859 4.95659 3.65013 1.52557 1.27794 1.32277 7.15475 2.09157 0.317309 8.68445 4.68918 4.25549 1.51549 4.53879 1.66201 3.85488 1.56057 4.24817 8.80761 1.18389 3.15842 5.87452 4.28211 0.784092 2.28874 4.99343 2.96215 2.90972 0.958895 0.0422748 8.63267 1.5406 1.3928 6.81958 3.89745 4.96929 4.34605 4.62259 0.600943 1.29166 1.11775 3.37624 5.25941 1.46429 -0.103713 9.05253 4.45602 1.90047 1.6783 5.60792 0.710864 4.36727 0.352819 3.10646 8.70626 2.45966 4.02034 6.04185 3.16798 1.65803 7.75242 0.0278357 3.58221 6.81124 5.46625 1.38956 2.12316 3.14507 1.31716 3.86465 2.96637 3.55268
5.42333 1.00679 2.13776 3.19652 4.53055 4.38383 2.11502 1.48073 2.62194 7.77626 1.31832 0.23338 8.08942 4.70701 2.56513 1.0168 4.65536 1.89571 4.08827 1.54458 4.67194 9.57254 1.55428 3.01128 5.71962 5.13943 0.169099 1.55 4.57297 3.41227 3.88816 1.81869 1.18537 9.468 1.34282 1.5263 5.96711 4.5821 3.65986 4.55219 5.42966 1.0312 0.577684 1.57092 3.64682 5.72379 1.37958 4.14496 9.71567 4.54744 1.57633 1.52184 6.17434 1.64406 3.31898 0.333354 4.02513 8.65202 2.49746 3.82689 6.87839 2.62809 1.476 8.7242 6.13883 3.78701 6.98492 5.52035 1.22186 1.50484 3.58553 0.896214 3.62187 2.91015 3.80256
5.05839 0.147572 2.09665 3.3028 4.57973 4.63333 1.4995 1.40158 2.07995 7.39806 1.22366 0.149017 8.47662 4.8684 2.50646 1.21678 4.64334 2.15249 3.84568 1.56863 4.88043 9.20499 1.74967 3.29569 6.66489 4.50201 0.0939141 1.95517 4.82659 3.43008 3.38254 1.84648 1.36936 9.67455 1.71663 1.91229 6.98542 4.87861 3.56251 5.06008 4.71406 0.267492 0.0136094 1.14663 3.97497 5.34675 0.942305 -0.007174 10.1884 5.15667 2.42228 1.76426 5.64969 1.26209 3.16761 0.542544 3.84669 8.76914 3.15877 3.84512 6.73264 3.17411 0.7965 7.58752 1.03767 3.12935 7.47572 5.6728 0.93001 1.33547 3.23681 1.4202 4.04878 2.82435 4.01162
5.37555 6.37991 2.45599 2.88138 4.70124 4.83779 2.19386 1.71675 2.43908 7.58947 1.40368 -0.0365849 8.2016 4.5057 2.40629 1.10485 4.60031 2.18086 3.91632 1.62585 4.75897 9.29359 1.52391 2.80836 6.29381 4.60095 0.262264 1.42174 4.74025 3.71109 3.93563 1.71509 1.36768 8.96333 1.50006 1.32899 6.58681 4.64695 3.65733 4.78552 4.64528 0.724367 0.460194 1.26507 3.19373 5.45361 1.38543 4.38642 10.0763 4.78784 2.15613 1.88025 5.82097 1.44135 3.16532 0.485762 4.15788 8.74219 2.86449 3.461 7.18606 3.33072 1.06249 8.43161 0.366792 3.47255 6.99529 5.94645 0.914973 1.71684 3.36527 1.20792 3.27961 2.914 4.12201
5.37442 -0.00278823 2.55869 2.82477 4.65553 0.0339534 2.00026 1.35824 2.40564 7.42753 1.53847 0.115593 8.2445 4.82175 2.53705 1.0384 4.53833 2.14983 4.2057 1.70462 4.86148 9.25807 1.60852 2.64605 6.52289 4.6661 0.146579 1.26875 4.60157 3.57834 4.01716 1.49632 1.41346 9.13205 1.6312 1.10046 6.59291 4.56769 3.47046 4.79144 5.03008 0.484504 0.398092 1.69242 3.04358 5.76325 1.5109 4.33355 9.90983 4.28981 1.69871 1.62719 5.78798 1.46378 3.55243 0.499471 4.14286 8.1984 2.53136 3.39158 6.85898 3.46976 1.03049 8.9454 0.204822 3.29262 7.55032 5.77609 0.600861 1.72005 3.47707 1.31074 3.48019 2.98551 4.19957
5.46683 6.26212 2.33188 2.88539 4.58229 4.83033 2.49294 1.36495 2.4696 7.46526 1.8245 4.74811 8.11113 4.71174 2.82012 1.04458 4.84584 1.97872 4.1526 1.45281 4.71803 9.20506 1.51025 2.76724 6.25494 4.57882 0.366058 1.63414 4.88525 3.40792 4.2072 1.49917 1.48934 8.7601 1.29958 1.26418 6.52811 4.56948 3.81577 4.80831 4.57614 0.724097 0.221544 1.75204 3.00585 5.62949 1.53915 4.20389 10.0038 5.02345 2.02109 1.81921 6.03871 1.19224 3.49991 0.154188 4.03738 8.33105 2.73013 3.28882 6.97407 3.16689 0.948922 8.38721 0.442936 3.54285 7.13896 5.75354 1.21838 1.44166 3.46135 1.19697 3.35473 2.60251 4.15603
5.25246 5.69854 2.64806 2.83878 5.02834 4.86964 2.15765 1.38946 2.05498 7.41657 1.46388 0.210334 8.62284 4.54094 3.01654 0.95687 4.43747 2.15296 4.00542 1.7579 4.26602 9.24653 1.6105 2.88192 6.36796 4.76262 0.394083 1.16024 4.74189 3.71631 3.52135 1.38952 0.905629 8.86219 1.59338 1.38438 7.0566 4.82877 3.93941 4.86587 5.04789 -0.0429238 0.404443 1.24523 2.75976 5.57981 1.60219 4.32845 9.9573 4.51819 1.74192 2.01345 5.56955 1.54398 3.37122 0.402401 3.45503 9.10633 2.97051 3.5332 6.57075 3.52476 1.19795 8.47524 0.532658 3.56514 7.09531 6.09682 1.19624 1.52573 3.16942 1.64049 3.35427 2.93363 3.65226
5.4507 0.3435 2.56394 2.93826 5.05664 4.80897 2.26388 1.54029 2.31909 7.82032 1.74431 0.417181 8.25114 4.79625 2.33363 0.930732 4.40601 2.18584 3.74005 1.82802 4.65589 9.64291 1.13417 2.90889 6.13509 4.67431 0.247578 1.29845 4.63636 3.56062 3.89699 1.15587 1.13306 9.15925 1.42491 1.45733 6.68149 4.46116 3.78992 4.69237 4.50094 0.150133 0.718676 0.817506 3.10665 5.19884 1.67555 4.25553 9.93552 4.67755 1.91218 1.75338 5.54111 1.20185 3.13822 0.683438 3.62929 9.07766 2.40291 3.70876 6.78813 3.39784 1.18811 8.79545 6.18772 3.64767 6.64023 6.03897 0.771581 1.35788 3.00075 1.38944 2.91304 3.06257 4.17067
4.24248 5.86632 2.39633 2.91598 4.50301 4.79181 1.84464 1.52169 1.69235 7.53546 1.61762 0.460923 8.27356 4.57281 2.88328 1.02596 4.73294 1.84904 3.9693 1.76472 4.47794 9.64733 1.48924 2.9629 6.47768 4.82417 0.528153 1.94248 4.75612 3.1469 3.59645 1.51462 1.13474 9.13384 1.30551 1.47634 6.62214 5.38998 4.12442 4.95966 4.55987 0.707271 0.607756 1.90666 3.31367 5.57218 1.60543 4.38287 9.9878 4.40991 1.96193 1.5911 5.84716 0.849912 3.13625 0.499697 3.89683 8.5892 2.5299 3.7563 7.06114 3.43424 0.983587 9.22114 0.0380088 3.9297 7.11426 5.61187 1.66848 1.66185 3.46305 0.895322 3.80642 3.12321 3.81905
4.42158 4.32952 2.68109 2.79341 5.04851 4.4208 2.02966 1.96918 2.22934 7.41599 1.02407 0.24958 8.39634 4.42941 2.94698 1.11389 4.80443 1.70303 4.2263 1.76038 4.51326 9.28149 1.48245 2.88654 6.43451 4.61305 0.752293 1.57681 5.02592 3.18888 3.6773 2.05142 1.09525 9.09808 1.34578 1.27457 7.27605 4.74723 4.43959 4.80262 4.57043 0.486699 0.416292 1.50523 3.00745 5.85013 1.80653 4.40908 9.84648 4.81051 1.61419 1.44912 -0.209241 0.792638 3.79096 0.532595 3.70613 8.66584 2.69218 3.63917 6.96156 3.62809 1.95191 8.78108 0.319777 3.74845 6.64053 6.01141 1.48299 1.9284 3.71126 0.842306 3.52104 2.93526 3.83153
5.04727 6.1301 2.16055 2.76209 4.80547 0.219449 2.28223 1.52348 2.37651 7.64786 1.40205 4.90729 8.02404 4.64154 2.2989 1.01662 4.60115 2.50277 3.92305 1.83412 0.0964173 9.46707 1.61825 2.41924 6.24263 4.39902 4.8949 1.17748 4.86338 4.21366 4.06364 1.75252 1.62824 9.42851 1.27826 0.83998 6.40814 4.5185 3.3873 4.98375 4.12151 0.76568 0.362558 1.67377 2.9462 5.48728 1.49571 4.53861 9.89872 5.13189 2.44145 2.17509 5.79514 1.85536 3.20701 0.671865 4.25102 8.76628 3.00695 2.60678 7.59547 3.44434 0.483316 8.30492 0.685783 3.32836 6.9527 5.66807 0.72476 1.79131 3.42331 1.79022 3.06903 2.93034 4.47183