-28923.5810587109
-28924.4672930284
-28924.9764777606
-28923.7782230454
-28924.2805273828
-28923.8834151266
-28924.946768659
-28923.8667239444
-28923.8389660341
-28922.9712513668
-28922.8483871336
-28923.9793405117
-28922.6047574801
-28923.5162824529
-28922.7106329748
-28923.5903323457
-28922.7608846198
-28923.2527128518
-28920.5055623347
-28922.869372542
-28921.9349146429
-28918.2704421787
-28922.1689694317
-28922.3421385081
-28922.7590239063
-28913.7395260903
-28921.2292581055
-28916.6478336328
-28922.5272291579
-28919.1697420355
-28916.171143358
-28920.0182593534
-28915.041710143
-28914.967724469
-28917.0150008649
-28919.3214473276
-28924.9951861216
-28923.4593772198
-28923.4965752986
-28922.6152841985
-28920.6310622612
-28921.1192950549
-28921.9385838241
-28921.0483612721