-0.0587759021027727 0.100890550113001 -0.0644276981501526 1.72209186838527 -0.624241927584866 1.33992586315985 0.052387999600855 0.6993954912481 1.06005705785979 0.868430010099408 0.66758556227085 -0.679787240235572 0.117176937558421 -0.885376142274952 0.708912424679715 1.49541067535585 -3.83411601219007 -2.58749800561991 -1.99605510988711 -3.38056567858732 0.409990212142502 -0.84826151599766 3.06047661310694 -2.19137991630246 0.0391774212772071 -6.90404142453007 -1.98493046647987 -0.383198559721197 0.728195945530845 0.821789451534088 1.97917376947774 0.997145024239679 -2.9906025499458 0.156836954649519 0.397400297801129 2.22339733319756 1.51883444148726 0.60459382449394 -1.47066073489944 -3.76743859993681 0.515722918335946 0.954551637068309 0.718971089267359 0.588886963401481 -0.939082088674955 -1.35005754703953 0.578632123744045 1.89932203143666 -0.434960238915746 0.673853651427391 -0.621447654113711 -1.67193918471726 -1.34379202898482 0.663668231519423 1.28826754225895 1.46333900821209 0.721931198806686 0.48257113131251 1.26714876892005 -0.0898111580980023 0.460048022152901 2.36871806563081 -1.39451421170864 -2.34468854790775 -5.3849483301985 1.34608313782743 2.26084697404358 4.28213950529448 2.73587989189448 -0.995760228792896 2.68670834068562 -0.249843478104487 0.6909105980919 0.676249404114566 0.378477245426863
-0.678137364189896 0.311953585063161 -0.464595787073566 0.236309455170358 0.298755605138491 0.169973742350584 0.245576991724257 -0.0616439661965095 -0.239094215564734 -0.751303209026713 -1.61865926989084 -2.43062556976511 -0.935374045612663 0.505610003499644 -0.524354364296577 -1.6020208986046 -1.05826088611987 1.69359634677981 -1.33878480816675 -1.93592449422899 1.78232995609997 -1.42149663988589 0.195322235313517 2.90733278912909 -0.231429761003166 1.63314460050286 -0.194576358672017 -0.0107585185063491 0.591011207735183 -1.25101150538089 1.65508869752987 0.283479917823279 -1.65262943862744 1.16203081317467 0.281369043219104 -2.10754271331141 1.0706476834165 -0.720916384913546 3.8057446748031 1.83715330335621 0.233586401219953 -0.508516634120863 1.44471188965871 -0.0875033370934858 0.280307949492985 -4.30190485062895 0.183926597773167 0.548014671796536 2.0513862497552 -0.384748162795419 -0.165920400312237 1.35769423370131 3.08039365344951 -0.335160350199933 1.28869100273071 0.653752777303828 -0.571544624433606 0.428244263820049 -3.46433629004092 0.00464726656156821 -1.33524182984208 2.59733041324633 -0.341390129939175 1.57783505789016 2.41340612946481 0.477680638517623 -1.73329621594931 -2.14114315760455 -0.591436467978217 -0.00874663132271032 -1.77921403778962 -0.322139262081313 -0.00687435496855598 -0.0106921840790803 0.0309105575563715
-0.159877539676191 -0.489925253882941 -0.402336041988262 0.974755355265158 -1.94730213405652 -0.0960288536586333 -0.701400179346608 0.280885418964481 0.828308737339628 1.40550284382896 -0.360839229748294 0.224871394449778 2.07902250912836 -0.198493432313262 -2.21615299667537 -2.69849221460262 -0.555222755782902 1.39538864344175 0.607153613478005 -0.0881918781641292 0.477944947785966 -1.67752798876975 0.254087595898778 -1.06404483680142 1.79228063441066 2.71977605267914 0.286056933189619 -0.428203897521285 0.444090735741993 -1.60764904051513 1.05954515148502 -0.467771097836242 -0.733710701850573 -0.564834819982306 0.29973750892818 1.15903522243006 -1.38586373959445 -0.30600071299124 0.394544317886004 -3.1116960469251 -0.0291776349215184 0.916670051114494 1.41688691141107 -0.149813732884882 0.324465595019021 -0.378609657171218 0.915952713703331 0.0881864788502818 2.50453883390453 1.12541935152592 -0.050212590340693 -1.49790361569228 1.23622638429525 1.97065442355699 -0.807914243386836 0.285747886749398 -1.62658777661057 -0.482357729860444 0.139512613394469 -0.768093018210864 0.994363092057319 -2.19372733227519 1.33740541203382 0.301033601361755 1.13136733850436 0.323193670942668 -0.689842562390834 -0.330605900414505 -0.382022537743182 0.933398410964857 -1.82534500397181 -1.15927793444301 0.516043020514046 0.109613013078489 0.379390243687451
-0.334424757965762 0.353547327842201 -0.479046150700665 0.319933256709349 -3.0407200095187 -0.158916718921525 0.340826030197206 0.515583050396279 -0.378237361625926 -0.463229760670157 -1.02710658810981 0.0163822895437589 -2.69297411585051 -2.00159943387791 0.967922137925916 -0.889138949806269 0.418279187339094 -1.98732416228558 -0.385759891366361 0.58478528464869 -1.70862675098024 -1.94590602576167 1.25014375851255 -0.736749487105963 -0.977251380923786 -4.70647492299915 -1.99356216955068 0.764161032178994 0.458915194685666 3.67608915161264 -0.320208878825752 0.654638007664629 0.191439871547007 1.0115398520672 -0.382701308626864 -1.56029860073396 0.370244577360395 0.350240119555537 2.42776367631577 -0.0336408105919064 1.6626634206375 0.266955703458387 0.308095389653873 -0.305075373441857 -0.294137134917443 1.07728061192302 -0.0936025048596557 0.613008783680306 3.85746573058871 0.620211211242641 -1.07923079266269 -1.84197000552852 -0.11440451845284 -0.481824483340461 0.0532480331637012 1.84836227890355 0.645076079950951 -0.423380510484216 -0.395390467498956 1.20669265176998 0.231625678962774 1.72464934337768 -0.156733082135501 1.06990257810555 1.95373760194233 1.31317611969841 1.12242581766278 1.21039683817953 0.747859732342947 0.163765816976916 -0.944439236452374 0.48443106637787 -0.382628289334831 -0.594638003979581 -1.5421106263735
-1.24086285222913 0.483316750843827 0.676909405954873 1.84366230475443 -0.104578024360636 -1.79042892687117 2.21622524463685 -1.51246942179165 0.571596817800798 -0.528367854256526 0.526059776141827 -0.60125730564639 0.145798700263834 -1.520244433732 0.145294250084371 -3.67699546500847 2.75537964240969 -5.18249874349615 -1.11444177514348 2.3745488103657 2.27233234303787 3.52300240609546 3.06258260261764 -0.177357175481901 -0.00908138878125316 -0.0628462134132118 0.0125606037804864 0.733806861059094 0.190845947023785 4.58985720008921 1.49806328111606 -0.0118556076581174 -3.05613582188376 -0.411597922118131 0.13700296089613 0.089157841122459 -0.452163481274503 0.983238962870441 0.494980297195085 -1.42192164301874 0.65344321664324 -0.987202573454847 -4.2145112995837 0.178619843591659 1.25730196312337 1.06941381164727 -2.01676610647544 0.793351265499489 1.8127556038508 0.572226737749669 1.33489678797621 -1.12115903579009 -2.56384541142545 0.906881866439589 -0.30298198233014 -2.22507626269394 0.724424653363482 2.12758368076228 -2.74693974353556 -1.57347395496251 0.466115308256353 -0.538546589299731 -0.0601581264477238 -0.692360442415036 -1.355122874759 1.69257099136916 1.0754890681664 0.693869936300677 -1.60979796742642 0.378923588704921 0.402834321523328 -0.319519566424559 -1.70439497447474 1.64432118016711 -0.204286381851225
-0.205201694103462 -0.260958865545136 -0.823362708745166 -0.668520157786828 0.0187932117317437 -0.0809513982946785 -0.370160502330485 -0.528723437639909 -0.850461864945594 0.193688814319567 0.587916629570036 0.22309810551616 1.07503501158285 -0.160613903240912 -0.698546256312948 -0.309587914267422 -1.03674307777662 -6.27078161437921 -0.468369136122395 -6.04728036009577 3.89497887764998 0.424475542754518 1.57255607160844 1.17575149810181 -1.75907048337564 -1.88480353361101 1.87916922105609 1.61341370793294 -0.590966213453121 5.90410058415814 0.656907519251847 0.988832137796049 -3.24321304784202 1.06741555130334 0.580813960758787 1.31005865872696 -0.48119379206104 2.32367133309122 0.308445316613225 1.8430454974249 1.53648839799719 -0.384691341444929 -0.647586246669656 -0.590828145284736 -2.29486676504554 0.473797760530746 0.810996480263189 -0.658299256673577 -0.792709775592374 -0.29620892877377 -0.276444354769849 0.640677696046733 0.0164087718926298 -1.4891443859706 1.0589342576897 2.07930275922806 2.91205667452525 -0.0231095774875172 -2.35998814647 -0.488228583783921 1.68174793820682 0.868781736830043 0.746172318210522 -0.805161364655178 -0.0814316801169196 0.238089428968739 -1.98904294386036 -2.13766291416458 -1.69954999018228 -1.29228154643927 2.17388253989411 2.00567540161238 -0.917144676512704 2.41776491840081 -1.33905400252858
-0.0891899798953606 -0.22331896316354 0.704894049626285 2.46673155279366 -0.505077528310211 -0.545491392458487 1.70751217833601 0.751187766554451 0.159461792509936 1.00384891515677 0.849460163671797 1.24302900552269 -2.00469581181434 0.115813482256845 0.174619466251053 -2.71246332484821 3.58854030601673 0.239169034628049 -1.64262296740699 0.126596683340782 -2.12146497262219 0.0551779021988952 -0.0333207084138067 -2.67588451619273 -2.24526686827145 -0.346781473370961 0.67061072068653 -0.930037209539718 -1.68588406972417 -2.20168206423361 -0.536429029830792 -0.855464200670179 -0.289075406740536 0.77077930540507 1.43375436787055 0.950582884280239 1.14382201288937 0.0249561428233503 -1.27418356064293 -1.79495560875681 -0.230389750312071 -0.564399018221761 -1.53103817633345 -0.361722146117446 0.36727264075264 -1.08859217443346 1.45192614428947 -0.361955602163803 3.63502274181937 -0.148142002473634 0.55544669875248 -0.569608584754015 -1.60253614741176 -0.0831028963078017 0.137679160677979 0.640242408506554 2.05558691592853 -0.520015629954864 -0.633427960210686 0.0149316738900732 1.19939715032133 0.56277356764349 0.316663072289067 1.04264684180355 -0.522779307314217 0.879463636501795 2.12777111408584 -1.18645910879188 0.643043623952655 0.561721729883968 -1.34041051585521 0.723941543329226 -0.187195496642533 0.130462592055567 0.418522413572413
0.665819215312179 0.135486525035542 0.201696510975725 -0.942780875770652 0.38686263694216 1.46319554072986 0.392467381826012 0.435270056686517 -0.75965903287094 -2.28589156276996 0.0641875572390321 -2.40168396199178 0.185031400230432 0.52873706447962 -0.373200830246974 -1.45313481926075 -2.29453175047682 2.42171618769643 1.2631689603941 -1.98817673965311 -0.322045931084807 -0.15283709152928 3.96084176484282 -2.03162167575128 -1.7696266561678 3.46029194685899 0.944769623037802 -0.56221255322372 -1.88629605822456 -2.10351971027468 0.771465018263698 0.127659576838183 -2.05615435810288 1.5179715797124 0.020677572264509 1.62321731921884 -0.27759132329716 -0.124469353684881 2.68499958640799 0.491976221814428 -1.91318027031182 -1.54363246154793 -0.942506282094981 -0.21034826864083 1.0795033294569 -1.31577730342197 -0.605330702279027 0.953712686540487 -0.538461742939271 -0.0731920700755046 0.197551123491787 2.39342095492369 2.17305155978197 -2.71261579118685 0.459375421913617 1.59562528279719 1.88540362877863 1.46364625488103 -2.84273976913113 -0.269175592780245 0.740717468563483 -1.91085496581485 -0.0219659513925875 -1.48812931496727 -1.86329035325106 2.47617932358599 0.377905689489582 -0.262494070449098 -1.94745331484425 0.64501591616808 1.77279939582864 1.88712960943853 0.3609677848399 1.31341291817715 -1.27634637150412
-0.484259059665301 0.403230014095293 0.0296484036669807 0.285422385257451 -1.14013145331953 0.188401857622166 3.37780225833815 0.713318264779246 -1.45909129087524 -3.49083046598025 0.385848080159203 -2.06252272023088 -1.22266305080024 -0.242385483020039 0.0413158066709865 0.516526901878852 -1.45407172876838 -3.76701513946505 1.86690018022337 0.937643557199881 0.652420689444603 -2.31586006861504 2.05866992413543 -2.35591937782067 -3.76316620002236 2.65532598594305 -3.51975433315094 0.110092523570181 0.242947268770358 2.97419892025683 -0.658373561516525 -1.20411692195456 -0.511840297459252 3.78344036640941 0.706426683428415 4.13824239194569 1.44616584774477 -1.39239639512952 2.01783157107467 2.19066592132368 -0.633346456282608 -1.6264219405424 -2.47615129857602 -0.140066428729109 1.10713444662639 -1.28646057189134 0.0639073071393303 0.162967746968224 1.27126433162274 -0.516930821976679 0.495993311316942 0.794601849430635 1.80399894523095 -0.868978683230384 -0.837544392230808 1.19975144815379 1.62263522176404 1.37178798550429 3.10523615357188 -1.34275356095482 0.871693509654926 -2.42845427426788 1.59316962343733 0.318101089543775 -4.01820458937866 1.39370405752134 0.436748697350173 0.124433101149048 0.190003654063581 -1.87771346319874 -0.161629745574785 0.909327241392125 -0.228191201135419 -1.06900217824394 -0.00269734293208366
0.400675881535258 -0.170401830805633 -0.305540742873472 -0.160340338005974 0.579093122302545 -1.43523377986476 -0.378864196252598 -0.49649493328439 0.899461152331706 0.940376895557614 -0.293435995447822 1.40733938186765 3.87781600158999 0.49347054619926 -3.15988312324244 -1.85898427190262 5.23423111212981 -0.215836542611686 -3.67058545103079 -0.409479591318642 0.614732450348564 0.642881901647415 -2.58742138678531 -0.30837204021101 -0.185434548997709 -0.875945597864897 -1.0950808641272 -0.161501704703545 -0.492387083887202 -0.0905680904773803 0.0088785288466984 -0.913016001190676 -3.11797930558245 -2.05301761386769 -0.288005314158005 -6.16654503234188 -3.70620678136399 -0.328770133706366 4.21789924046789 1.94195655623734 0.923234845422462 0.172109813752715 -1.59726924530865 0.873876889330768 1.76114870498655 2.33211328884683 0.14400407118501 -0.23915232246614 1.0029953093485 -0.921630734989398 1.22258308953326 -0.302913848131589 -1.68152913744091 0.737861231538174 0.394176136103643 0.870138250156673 0.562978484459511 0.465602630551027 1.4242135231919 2.27885779948781 0.461676043833003 -1.62312373111215 -0.722588886655344 1.10444995920347 1.40373649687029 1.68810935835987 -0.575700296324872 0.69231596235334 -0.263932601924173 0.315672426753149 -1.54844479284712 0.341205267717445 0.761547250056454 -0.00822855430353688 1.21642735752678
-1.10330093379469 0.559894962032242 0.748052822090539 -3.11738743794069 0.130455392970437 -2.36703579370205 0.143640774496131 -0.478654057671266 -1.08962627159034 -3.28348884382191 -1.02388833994654 1.56765915105897 0.338601255781868 1.04779624455293 -1.44138179856574 -1.37802676409995 0.537692212160916 -2.29300245910707 -1.10287721621276 -1.92987520583837 -2.08334684529982 2.15024434386991 -3.85524018484282 -0.975280631369461 0.854945866540822 1.0093772983162 1.44978004559019 2.15346490602483 0.661772558138596 3.27239556785702 0.132748815804694 -0.0449408031441013 -0.248939992920678 1.05568901295719 0.206889879566437 1.1991279559595 0.611727089416991 -0.913978878826807 -1.20685848783816 2.21066703669616 -0.291130488434954 0.728843606082358 -1.87022949998579 -1.23638450705793 -0.201755132097497 0.496290787798919 0.310641037577861 1.01116652808118 -2.67586677559009 0.832618675340821 0.0651257522975749 0.253987065817142 -1.93669582477863 0.814415274369367 0.468491006349237 0.897588104647002 1.91415677478766 -0.941052581119097 3.29286745197496 -0.816448758808396 -0.331374916972494 0.21008498781322 -0.394585455515318 2.49424491349924 1.28981277446006 -1.11800815049482 -0.26244059153099 -0.357790931416125 -0.105480223993529 1.4010653791769 0.770140386599786 0.835589326397659 1.3002375639486 0.310946998695884 0.735437196730845
0.00126678187268861 -0.13372969115365 0.0422755989849192 0.344030394410585 1.30065999597962 1.75636851246026 0.459953148495296 -0.490232243441697 -0.32509217253551 -2.01052218567612 -0.224985808481308 -2.2278047159582 -1.51929569715594 -0.264520355802997 0.519484440316347 2.61053842046814 -2.71239724753112 2.87843617563782 5.34811241135981 0.611348366117119 0.673750807354106 2.01932692390024 -1.097004562518 8.45107416825099 -3.6034092450221 2.77380621502018 -0.301922688375304 -1.3395085733325 0.826520021795017 -4.33187001404165 -0.378453334179825 -0.167687518601458 -0.468010724526996 0.163009141707721 -0.120541224305759 -4.35358348323432 0.941172394464474 0.307925439822769 0.0929409603582496 -0.465295383882088 1.1137812590828 -0.323540255469638 -2.47176191352821 1.74542127507943 -0.495340251451582 -2.36652208755599 0.689449183810519 2.29715016058266 0.853322472844018 0.248362523449183 -0.589746482743961 0.237984528013988 0.042881093466385 -0.30765418857948 -1.46324567721559 -1.78282386476192 -0.950582370059873 0.932866192885607 -3.48276311976159 -0.786302075606349 2.37421199602569 -2.724912085699 1.76640172313976 0.573350309250308 3.45847700607569 -1.727624879528 0.294535398591239 -0.79410202723447 0.0331024218682592 -0.883912671112106 1.87641608521425 0.578908002970632 -0.65175374562935 -0.999348458509812 -1.90081841270296
-0.401862187920601 0.21991045346469 0.0186224905700905 -0.0170705735042191 0.69534831985415 0.694620440925475 0.195284183006402 -1.71378052460274 -0.775833577386663 0.0274773652799333 -0.151108539767541 0.458902596286689 0.679603920674941 -0.156797102571121 -0.275471964056939 5.6503294908949 2.97419866314665 -0.830201068288072 -6.69102718039951 1.34876505414852 2.4921273540303 1.96039109926351 1.66385795454871 -3.66518819406479 -1.86239792380513 -1.58791351996191 -1.32740896811051 0.738648245808988 -0.186955355731412 1.74528603512306 0.9889707201848 -0.448947547102879 -0.147592558012109 -1.16787955562239 -0.00633982289765693 2.71113457942137 -0.976831262884416 0.717174146196886 -0.452539890582726 2.83366995030812 0.0624476926292322 0.316405190775305 -2.02136837875495 0.370736943361247 1.92075627897036 2.15543179892641 -0.890873157992038 -0.608081009908853 -5.3306497448262 -0.700249868386915 -0.200153849876449 -0.0738042494217339 -4.40310958938584 -0.333698935918552 3.14861244125113 0.130970641777596 1.13454264926704 1.94757209974889 -3.05140036652935 -0.880717048644956 -0.122730774625997 -0.405942012307819 -0.247198328539596 -0.734294341966465 1.17746925123585 -0.84611104642527 -0.788285680669834 1.45359684625999 1.45172251302437 -1.08447686884096 2.7237450625774 -0.985191457601758 0.946686893674018 0.165196378036311 -1.36873197386663
-0.133344282989015 0.667371646598417 0.725693235007453 -3.59045886220386 0.415293366781446 -1.36703556087779 -0.159641512528002 -1.30786345198269 0.192476282695537 0.586075720658234 0.579167684255677 2.84053710619155 0.959957121560172 0.668063272991259 0.402861832312932 2.12963027782065 2.5119428358505 -1.4100066429083 -6.56578855304646 -2.54470972892967 2.25201601058078 2.6676497912448 -4.2648814984667 -2.00738672699184 -0.79600592814116 -2.17342462665781 0.879933891026891 0.885855138546278 -1.14846722256947 1.71043937777189 -0.448970429909185 -0.808890747862677 -0.239363667036741 -0.0879016007672822 0.669742716708004 0.905816401840356 0.513120449061468 0.77670800911977 -1.34443351889194 3.94046552571304 0.577295922121889 0.349392941501851 -1.99922527844613 2.49546567264913 -1.37541529596906 3.82656545743966 1.14474683821838 -1.77790611828761 -0.407897335251151 -0.145035083019693 0.131771539998303 0.0554154720081837 -1.40631171246535 -1.40361565508418 0.628841885872723 1.23448446280399 0.351667595292733 -0.370763168599935 1.80626897103853 1.77761172712783 -1.08893104565494 -0.954791263759064 -1.40103349751418 0.0825171993104434 -1.67663581643401 -1.12633877754109 -0.133375650431366 1.04686139192677 0.451099045116002 -1.30398957285222 1.59565279358679 -0.00663909915091642 0.810199438695229 0.241945567496562 0.487857830899728
-0.122627159222163 -0.938378378103502 -0.834581197369283 2.10627207478597 0.107681344272013 2.9330751748927 -0.217366348201801 -0.453933684885922 0.167097707841168 0.630475049756489 -0.70464079609582 0.178850214315817 0.713138287650998 0.940064506685011 -0.960770618179856 -3.50407498284808 1.5042670927268 4.10906012904087 -0.386427349401981 0.504785194031898 -1.46075093710788 -2.78741145747506 -1.87088384540206 -0.0429168317818515 -0.620830075453634 1.29028971384992 -2.34193515495573 -2.01464906122687 -0.216435609338572 -3.64471039641264 0.687637071239236 0.0142346481833838 2.24872242913383 -0.508013983712682 1.07810465006022 -0.778697527717469 -0.442462456951707 0.4835867165362 1.8227980704969 2.30082272243967 -0.305923579936276 -0.11337453505889 -0.113778198046534 0.363542486214592 1.28986111117451 -1.95845917334685 0.662642876108771 0.463710813822948 -0.516478050944042 0.198765197776918 1.04562829148808 2.62024638676589 1.31363943224856 -2.53080263911969 -0.817345044907075 -2.19223763587366 -1.83158403967765 0.544495347608722 -2.53426359929592 0.319358101229502 0.000860033562846233 -0.176899776465966 0.930922954120886 2.32787919834968 2.96577136267149 0.0935479975008146 -0.442839894700663 -0.256871327852421 0.0750016115449551 1.4125306935769 -1.34036732134443 -1.025262850986 1.10840662781293 -0.436539923881404 -0.112247878236052
0.309582257843391 -0.52123973153714 -2.24136316435973 0.855956566671031 -1.63959112412655 2.14276372308934 0.901600566166219 2.07185299166948 0.0589466232644259 -0.935723201241466 -0.2498172528658 -1.30306089087046 1.20156664604727 0.425796574875865 0.827953668176611 -0.782039445878867 0.0946078056760171 0.580648638910982 4.57598559148453 -0.49592029202491 4.09578835849362 -5.80737136236044 0.941074692594853 -0.919700351733838 -0.0504517028110807 3.22429333790013 -0.313018278331845 -1.77271557790892 0.249740634031202 -1.21276019498362 -0.465325722883707 -0.845312462196211 -3.66104126391976 -0.160485605259489 0.356587912868873 1.16641839845119 1.10990866550326 -0.901835821983858 0.924068396636437 -0.863243583483643 -0.0302220164857281 0.743652381304855 4.33018594234161 0.748850634989048 1.0546153208321 -1.71987120773286 1.81447592808668 1.73467844029426 -0.563073358117116 0.249487637610921 1.0699753402874 -1.0243300552413 -1.89804316538536 -0.38620237799167 -1.20725983683415 2.49694122799059 -0.315129410046204 2.09666875233279 0.481254212954095 -0.608218306746688 0.0673309863389896 -0.264490016801378 -0.457568965766365 0.0014030502697913 -1.55412744211649 -0.0545752359294448 0.132665769215516 -3.29007189295289 -1.23188302197024 1.13133545684165 -0.922175551467626 -1.12131150212874 -1.36230010552338 -0.542116821303822 -0.573677096293171
-0.677459621746948 0.445073925082598 0.289667531492474 0.615026841508342 -0.348548077439814 -0.279583412996692 1.79449203909648 0.929075617454503 -0.457322397100664 -0.222250156131925 1.16108464770045 2.00956804978622 0.607439005781371 -0.0832486777816833 0.0946132049898646 0.474405569003861 -0.962174954000564 0.0542327651654056 -0.936946274383008 1.67671912013337 -2.94476391804192 -2.49302903944283 0.43832349722235 4.39067034161183 0.0134268079877297 -0.961435762223827 -1.91637049346512 0.579843112706977 1.92982532646282 -0.131877469393787 0.862797497315769 -0.104306516007164 0.183142925934735 -0.961241386925319 0.117317576828639 -2.70923736337944 0.91087710157653 1.47976089272407 1.30131099896351 -2.48534992960082 0.888033376018455 0.437921891116172 -0.82268110964947 -0.298443987596437 0.273962470171297 -2.30653108272735 -0.374559400455069 -0.492822371427381 2.89308271433471 -0.602131737379496 -0.33996676796491 -1.59727053085957 -3.73338667016194 0.336997402458987 1.58399207544755 1.95006915384825 2.90850546867472 0.321150159206494 0.947666997692425 -0.645267369927261 0.907017363506142 -1.94187350964817 0.142944777230174 0.941544432899583 -2.34565605352718 -1.96180417683044 0.927007680250924 1.47291224877383 -0.564847675491467 -2.62894622403525 2.28168035507912 0.589101907514647 1.69960295488002 -3.96177738879953 -0.568776061980772
-0.789794917445292 0.700203331443753 0.623119384524959 -0.105558899709592 -0.537399106552053 -2.61017486666908 4.06110342344769 -1.03244830927624 -0.943280955077001 -0.777069248927183 0.306570983377605 -0.627505427140383 -0.130747213028384 -0.975232808875383 1.14640468467974 -1.10105610478506 -0.0112740244236904 -0.226431024821146 0.185763392922038 -3.84935750385091 5.57940024754185 -1.36315088311963 0.125049651368392 1.45428307333898 -0.324222625895885 -1.11010021258975 -0.217346550717694 -0.122856758615771 -1.08685051005238 2.76267488674817 -0.189497404112835 -1.62585192726622 -2.21365722812692 1.10798033912916 -0.715316525123175 0.419780710809056 -1.69127849847815 1.11233450008187 0.34011640609154 2.3601673522677 -0.735687879159478 -0.795387835260717 -4.72971202713754 0.760004331846995 0.594331014420825 2.02702891654856 -0.851618860770051 -0.609138246982223 3.1724211013268 -0.092899051398386 -0.974795978674105 -1.03772626711723 -0.104329655923653 -0.767493437263612 1.09464557658702 1.73212867860734 1.2375412457722 1.59874685753157 -3.74361065659739 0.156830784005121 -0.139518012708316 -0.814654643949938 -0.151000296380409 -0.170236508957828 2.09096836246079 -0.582162246559555 0.592983499950608 2.06854629760318 -0.383542058925969 -1.61061274959702 4.18900159853589 -0.840669309397575 -1.91780259718562 4.20182445470325 -2.37189697593605
0.424860950919154 0.174434089808957 -0.968975775456721 1.94120399473108 -0.592899939141063 0.989643320424085 -0.706292214802595 -0.668221395753935 -1.92613322423189 1.97288228329453 2.95578160361294 -1.60971672060852 -1.22889000232746 -0.11989304953388 0.333378833740453 -3.82633431538496 -0.408714174303218 3.00593171617912 1.43398139616233 2.00753739355921 1.77644933198953 -0.930922182790336 -4.76341582972433 -0.411643430620559 -1.0484246218407 -4.70594810423375 -6.14338171882607 -1.91983171075153 -1.22091213045256 -4.84245792779847 1.45533156866612 -0.524819476618009 -3.43847511937266 -2.03816975789734 -1.94507453142916 -2.67604341028596 -0.707906095422621 0.942011087882114 1.03981657290675 0.613304203280817 -0.231300948801376 3.85682141246958 1.45184566880212 0.742148029622878 1.34841512718917 -0.922751992498389 1.22770112484029 1.54326556531649 1.04383109130743 0.32022790497931 1.31507590684217 2.02214690838971 3.95310840475215 0.0105559156819776 -0.562467349415284 -2.65218949881804 -0.503050471625762 -1.37175764650267 3.91736417575139 1.57200045650251 0.46551007088507 -1.32415780984379 1.26196234230429 0.228793610294687 0.162547886039037 0.571110622444343 -0.0469758302442292 3.41262757554411 3.12648888131623 1.78605008334087 -2.18505166336305 -1.08409428888834 0.470981889804201 1.52710901851359 1.85305659662865
1.25308946988162 -0.795447741933405 -0.549165239866413 0.260391937591152 0.297117813271427 -0.00436573091095039 -2.75008394396606 1.5123812329988 -3.8996238302199 -0.979168651560002 0.453516137948384 0.432952208384855 -2.43732251870725 0.220566084431882 1.1255728463053 -3.16486051927925 0.247927235909004 1.26416371969295 4.36230080399615 1.77555664543342 -1.30135496480484 -4.60156188406979 0.713357602637278 2.55803523550521 -1.28018914030241 -5.18350224454123 -5.62228391211006 1.29437390911025 -1.0448852430586 -1.43031140540715 -0.852603592771755 0.663134470779073 2.32357851631508 -0.466902836747533 -0.54100584820216 -1.39096789095159 0.443406822654647 -0.95903666710427 2.15302139095879 -2.16704238057992 0.567840180913878 0.527799640751627 3.83747232852173 -0.48776115747084 0.690089131056535 -0.630098383338083 0.228495619592343 0.610248448753335 3.52610572600684 -0.0399508087083107 -0.476119465485156 0.778262754397656 -1.21272574221907 0.0554188144405654 0.0585856405671953 -0.567944567648263 1.3549788930564 0.279721224054894 -3.03749841892305 0.582075086207445 0.602771170405146 2.0072725700705 -1.26308359981328 1.00375764104173 1.6864761944761 -1.48802878488564 2.26071816184179 3.82481145176979 2.38473577293477 -0.886790505392805 2.20648745355785 -1.10174053209277 0.255666509533887 -2.5351827682009 2.46437565218488
0.130330437421396 -0.393406862435471 -0.625745507936293 0.89668359102246 0.983817975003036 -0.282201823102529 0.145598154320928 0.321197210370022 -0.115717323048323 -0.723137302676137 -0.468309486559889 -0.154598553394469 0.306023852907729 -0.930115371035415 0.266101840539938 -1.63934275568957 0.810967683922669 -1.56008288529024 1.84126629495707 -2.93330734538814 -0.956816263562046 1.5140185106455 5.53249743658965 -1.27127821557263 1.26358470756036 6.15095207106058 -2.14552380090612 -0.941739065308275 -1.02052379608902 -0.574406003662579 0.116410749212448 0.13302700902293 -0.507718049891804 -1.25307352905026 0.6329008843351 -1.05810662000994 0.229074374614755 0.227894238873809 0.486606989858399 -5.39008153500634 -0.54316428819023 -0.131263490276275 0.632098443453294 -0.881628247134262 0.421734748201472 0.456564436280553 -0.988087803815648 -0.911237827163577 2.18521775654141 -0.747890328454749 -0.638842186448778 0.643724451717802 0.230280992704572 1.07150977386082 -0.204202306821315 1.82141481771122 1.15602009131152 -1.34012538066202 -0.544572480663685 -1.96457788148694 4.23501557958472 -4.52825642840348 4.37415152656078 -2.16885680714285 -3.33534539667406 3.53865193161707 1.36214223987089 -0.133149650580323 -1.89562401567151 -0.79209245404248 -0.0820009220625524 2.13962697885414 -1.50510295793242 0.684808087893348 1.33933630950974
0.107959794600432 0.127812300287012 -0.129989766428639 -1.29211236793872 -2.61372067320577 -1.21410565257237 -0.418918363254561 1.7868414684848 -1.64401444771854 -1.77246283859882 2.48968840683235 2.42500385560916 1.75889282023904 -0.214693430737123 -0.64370748244571 -1.69901880054377 -3.45236549702072 -0.157992922033243 -2.67721223317884 -0.225031316983736 1.60391142978177 -4.33642472093726 0.820853570467194 1.90628251831659 2.76074218950096 -3.73100197321265 2.81743884155209 1.07788636351467 1.25925445785469 1.72533968421961 0.316054749595586 0.301303567054128 0.830786508175248 1.07651416646687 -1.16659271915541 0.406680175643823 -0.0929381321462343 1.91573363154131 -1.7962943814808 0.726583350461735 2.19897469400438 0.647272572246137 3.62589533031532 -0.56933527662926 -1.48607680437469 1.50427069226936 -0.739256568502469 -0.920402519644192 -0.79265501112335 1.03829062396938 0.675173655108004 0.522933316313961 0.691165394283463 -0.228471708345304 1.00331901106916 0.956125665609937 1.312447212329 -0.795057962895655 -1.73241227113942 -3.31422970865736 0.542251032819459 -0.0668445338723513 -0.21435147419345 0.489304332790483 0.590039845463006 0.689776999294115 -2.38203380201939 -0.0921380052560766 -1.60465396399088 0.418471505756137 0.844288392336476 -0.84392458142723 0.327755319813226 -0.416979495362954 -0.841897267632598