-0.0163331814987653 0.0104805823982963 0.0716254977291901 0.00262638052151697 -0.0181820608262473 0.0361972571435895 0.00522139360068201 -0.0215625455151269 0.0327581513329374 0.008662813402983 0.0193889360262473 -0.031196464080104 -0.0197370632143172 0.0396607884216468 -0.0301289425994051 -0.0239066190554764 -0.00815193546893951 -0.0212673830247988 -0.0596547047089935 0.015578306000853 0.0110341406227531 -0.0106438473646363 0.0130064328381771 -0.00405462758926311 0.105956649163022 -0.0162866445556038 -0.02444552199949 0.035538797964382 0.0398536210590563 0.133512175938652 0.0273020161349823 -0.000325758602130397 -0.0225372502196859 -0.00458504589723076 -0.0769314805801491 -0.146960581181772 -0.048965863062295 0.00389727615713698 0.0341920548247143 -0.0977396648177301 -0.00319947911989792 0.00225485630677473 -0.00257213027285911 -0.0278995402007685 -0.0180205956311897 0.0508995887502371 0.00931818725999199 -0.002345873311632 0.037640416601962 0.0145953737704311 0.0153800740495961 0.0430633845862827 0.0369513613109522 0.0790667806517299 0.00967454197392469 -0.0230031338716672 -0.0187572163060939 -0.00522396470251413 -0.0670103699405235 -0.0551020546948475 0.0212979791366011 -0.00169512743792084 -0.00730964250873495 -0.0415747166254816 -0.028619705823947 -0.0776020239379676 -0.0174330988625489 0.0335904169959967 0.000119813345377084 0.0222683129680455 0.0535781626389462 0.0416269099926738 -0.0217834031625065 0.00296782284482334 0.00195995092662985