9.693213493 -0.038459970 -0.119234814 -0.022983290 8.367066269 0.296601429 -0.056681309 0.235942819 5.161194390
9.716302048 0.044159160 -0.172866108 0.026389069 8.159249200 0.209313727 -0.082176311 0.166506517 5.163352592
9.424513329 -0.506794249 -0.052201421 -0.302855135 8.285415098 0.147644111 -0.024815276 0.117449089 5.121316198
8.686107678 0.672460376 0.168437063 0.401855543 9.396887278 -0.012312035 0.080070852 -0.009794074 5.095052785
8.798427939 0.633283763 0.222747403 0.378443994 9.420649002 0.032655514 0.105888657 0.025977063 5.145859158
9.064985913 0.274685435 0.092875155 0.164149248 9.181047748 0.136398522 0.044150573 0.108503360 5.331923278
8.495431927 0.547159386 0.083620909 0.326976934 9.190994157 -0.140257967 0.039751331 -0.111573502 5.071918925
9.591608975 -0.249299153 0.068824637 -0.148978661 8.702951519 0.335191648 0.032717546 0.266640867 5.158392223
9.400607837 -0.540614267 -0.101591540 -0.323065637 8.241415418 0.148844975 -0.048294128 0.118404362 5.090665029
9.471548880 -0.382991215 -0.007822208 -0.228871690 8.451949113 0.138033740 -0.003718486 0.109804157 5.221547632
8.655027566 0.667212348 0.144789254 0.398719375 9.386254183 -0.020009044 0.068829263 -0.015916951 5.089610511
9.089285027 0.002744899 0.203781260 0.001640324 8.804019110 0.058773577 0.096872617 0.046753664 5.187517726
9.352192947 -0.784838725 -0.082936347 -0.469011712 8.272455412 0.045364227 -0.039425907 0.036086690 5.223746983
8.912792570 0.491869255 0.194143649 0.293936110 9.378271475 0.099513273 0.092291133 0.079161595 5.267617060
10.008274924 0.083813569 0.054164975 0.050086144 6.300188891 -0.099992080 0.025748702 -0.079542480 5.278729229
9.634038943 -0.180747150 -0.012914781 -0.108012675 8.595872710 0.338566395 -0.006139370 0.269325438 5.148652872
8.556434325 0.636066776 0.102621857 0.380107095 9.318008447 -0.065285506 0.048783916 -0.051933824 5.075893652
10.066019559 0.071751677 0.057444638 0.042878079 6.253261252 -0.071828212 0.027307773 -0.057138466 5.271019395
9.384979259 -0.556001710 -0.129052271 -0.332261018 8.213101329 0.145046950 -0.061348287 0.115383079 5.071215788
10.000373358 0.085771813 0.052807167 0.051256371 6.307405057 -0.103995630 0.025103233 -0.082727255 5.278856831
8.565990810 0.403239430 0.098572507 0.240971819 9.033082356 -0.227312554 0.046858954 -0.180824364 5.089822266
8.847944448 0.576061085 0.227577199 0.344248298 9.412276853 0.058931556 0.108184623 0.046879334 5.203195004
9.476082675 -0.367118061 -0.009192938 -0.219386053 8.473931207 0.133770242 -0.004370097 0.106412596 5.237244927
8.532200355 0.453517182 0.086613393 0.271017297 9.080919762 -0.207381585 0.041173885 -0.164969521 5.088262313
9.719167193 0.056045586 -0.173965531 0.033492278 8.117129102 0.187714861 -0.082698950 0.149324883 5.161943635
9.398066768 -0.883619917 -0.060058477 -0.528042357 8.346148467 0.009015400 -0.028550328 0.007171640 5.314796943
9.629107599 0.238554267 -0.082682857 0.142557626 7.458088767 -0.130453758 -0.039305404 -0.103774374 5.175395775
9.476462116 -0.258768331 -0.048633877 -0.154637346 8.610631571 0.120037529 -0.023119353 0.095488391 5.300892525
9.618942468 0.248947334 -0.086796298 0.148768418 7.426635500 -0.142867107 -0.041260833 -0.113649041 5.172458329
8.775586159 0.199792325 0.246721813 0.119393880 8.910970131 -0.172054144 0.117285504 -0.136866973 5.223312283
9.567748499 0.258654547 -0.172374871 0.154569351 6.917947028 -0.285311553 -0.081942789 -0.226961861 5.190193466
9.548195826 -0.273645363 0.128534134 -0.163527711 8.778091684 0.324440383 0.061101977 0.258088367 5.174767226
9.686108702 -0.061276088 -0.103931615 -0.036617972 8.410196828 0.309029329 -0.049406543 0.245829062 5.159128174
8.629595022 0.309962988 0.163017216 0.185230758 8.945530777 -0.235138416 0.077494389 -0.187049742 5.106833286
9.323785394 -0.627885213 -0.213231384 -0.375217875 8.163116240 0.115889394 -0.101364974 0.092188600 5.060724539
9.388618772 -0.859225990 -0.049371040 -0.513464792 8.329437540 0.015539610 -0.023469783 0.012361571 5.294963243
9.607681146 -0.228932056 0.041878218 -0.136807489 8.668413757 0.337970981 0.019907879 0.268851793 5.153228037
9.484945910 -0.324597836 -0.022650808 -0.193976395 8.530442934 0.123026768 -0.010767639 0.097866294 5.269038547
8.755112067 0.659918880 0.213931749 0.394360871 9.412818013 0.013384673 0.101697911 0.010647344 5.119706300
9.905991793 0.117718029 0.023482941 0.070347108 6.403629883 -0.151569049 0.011163215 -0.120571330 5.270185011
9.165496144 -0.038239621 0.202952595 -0.022851612 8.801604238 0.112146734 0.096478690 0.089211359 5.199616241
9.646469821 -0.155048241 -0.037997690 -0.092655266 8.557694705 0.335905806 -0.018063171 0.267208972 5.149695412
9.453105132 -0.212170419 -0.051588680 -0.126790904 8.656502533 0.121678117 -0.024523994 0.096793458 5.309690872
9.446947603 -0.460671611 -0.016427079 -0.275292712 8.338624184 0.143722629 -0.007809031 0.114329599 5.149288765
9.564004563 -0.269570246 0.107610067 -0.161092462 8.752409478 0.329038050 0.051155189 0.261745755 5.167790415
9.636488470 -0.175738644 -0.018072713 -0.105019643 8.588440725 0.338201701 -0.008591325 0.269035328 5.148714280
9.684291929 0.170783252 -0.087643827 0.102058350 7.670251656 -0.036656842 -0.041663728 -0.029160071 5.198931787
9.665364988 0.195316455 -0.080515252 0.116719145 7.591301992 -0.073439575 -0.038274978 -0.058420286 5.191728983
9.771215261 0.172536739 -0.032430867 0.103106216 6.560731282 -0.212321568 -0.015416839 -0.168899218 5.239135694
8.733809678 0.668123245 0.204415402 0.399263718 9.407976400 0.003770871 0.097174073 0.002999682 5.110022772
9.455417911 -0.437283398 -0.010985038 -0.261316151 8.371851193 0.143942010 -0.005222018 0.114504113 5.166710748
9.413927417 -0.922492356 -0.109823179 -0.551272134 8.358419664 0.006734554 -0.052207248 0.005357256 5.344395212
9.405583396 -0.905553424 -0.081653853 -0.541149600 8.359307063 0.005597657 -0.038816241 0.004452868 5.330290647
9.320201338 -0.646376327 -0.206612970 -0.386267979 8.167359264 0.105533644 -0.098218743 0.083950727 5.075393032
9.347841510 -0.059352169 -0.028014291 -0.035468258 8.800745528 0.133454429 -0.013317307 0.106161371 5.288220241
8.775689809 0.648946946 0.219230166 0.387804155 9.417169794 0.022830460 0.104216648 0.018161353 5.130546774
9.419659329 -0.932308222 -0.137111001 -0.557137997 8.333507049 0.025357491 -0.065179210 0.020171575 5.356767786
9.656723529 -0.133284415 -0.056386636 -0.079649423 8.525224734 0.332173977 -0.026804825 0.264240347 5.151599084
9.068653918 0.014479698 0.205496381 0.008652922 8.807033053 0.041138942 0.097687943 0.032725526 5.188741869
9.672210679 0.211126223 -0.095303213 0.126166903 6.717265575 -0.255110800 -0.045304812 -0.202937530 5.205217642
8.750939655 0.661792074 0.212440135 0.395480274 9.411876517 0.011459049 0.100988834 0.009115534 5.117702567
8.654229391 0.280429932 0.193762145 0.167582101 8.924920679 -0.226011546 0.092109775 -0.179789428 5.124486081
8.596782544 0.356812408 0.121968816 0.213227499 8.990530710 -0.234664609 0.057980986 -0.186672835 5.092439909
8.517634061 0.476973123 0.083883942 0.285034331 9.106891200 -0.191902282 0.039876370 -0.152655924 5.085774550
9.134643159 0.184638033 0.062625336 0.110337827 9.077345461 0.136437349 0.029770550 0.108534247 5.313269965
9.550744677 0.270509877 -0.182475934 0.161653976 6.968628454 -0.284028540 -0.086744587 -0.225941239 5.188538237
9.545097162 -0.273777112 0.132591299 -0.163606443 8.782934369 0.323418939 0.063030654 0.257275822 5.176402200
9.288290219 0.005290921 -0.003240357 0.003161801 8.871720689 0.138842958 -0.001540387 0.110447879 5.290557444
8.842245323 0.584268056 0.228060582 0.349152701 9.414619157 0.054796329 0.108414412 0.043589811 5.195522718
9.407189445 -0.909712021 -0.087396473 -0.543634735 8.360938948 0.005229960 -0.041546141 0.004160370 5.333212989
10.212272835 0.045539771 0.034277036 0.027214108 6.162471975 -0.017181794 0.016294463 -0.013667907 5.182862102
9.456303966 -0.217699487 -0.051846582 -0.130095019 8.651459120 0.121511071 -0.024646594 0.096660575 5.309485461
9.470408312 -0.386903543 -0.007749072 -0.231209658 8.446416934 0.138957830 -0.003683719 0.110539259 5.217434736
9.333499730 -0.607297208 -0.205847075 -0.362914691 8.164168066 0.125180431 -0.097854655 0.099579506 5.050107867
9.509617932 -0.259439659 0.173134656 -0.155038525 8.827475311 0.308979249 0.082303973 0.245789224 5.201835994
8.976653022 0.400221215 0.150386225 0.239168165 9.303486139 0.117761596 0.071489926 0.093677913 5.314643745
9.651052290 0.213381538 -0.079016803 0.127514656 7.534745799 -0.098513534 -0.037562652 -0.078366314 5.184693688
9.546171968 0.300327015 -0.162319629 0.179472397 7.207682285 -0.225598696 -0.077162774 -0.179461011 5.176853120
9.704553804 0.002728249 -0.150560106 0.001630374 8.275548859 0.263337562 -0.071572585 0.209481819 5.164766386
9.698310359 0.200821765 -0.075907963 0.120009063 6.672933617 -0.243971915 -0.036084785 -0.194076683 5.213477946
9.093655645 0.237795589 0.078964187 0.142104248 9.139943649 0.137629778 0.037537639 0.109482810 5.325376208
8.928309070 0.471973854 0.183501024 0.282046818 9.365122771 0.105287079 0.087231890 0.083754587 5.279703458
9.533666179 0.293769643 -0.189714623 0.175553778 7.082313277 -0.266937430 -0.090185683 -0.212345469 5.183684796
8.608085746 0.655221720 0.118917049 0.391553896 9.361201780 -0.036336423 0.056530251 -0.028905181 5.083184548
10.249127445 0.039907739 0.025723683 0.023848463 6.145341104 -0.008788432 0.012228408 -0.006991090 5.144027940
9.133366508 -0.021222000 0.202401614 -0.012682053 8.800975180 0.091372002 0.096216767 0.072685313 5.192453701
9.723020237 0.089892378 -0.159821494 0.053718779 7.963211434 0.110553495 -0.075975222 0.087943957 5.174149223
8.892027261 0.135287570 0.237300123 0.080846488 8.887228665 -0.125332907 0.112806663 -0.099700799 5.277288181
8.771647749 0.651324738 0.218410121 0.389225099 9.416371269 0.021000998 0.103826819 0.016706038 5.128260057
9.654176574 -0.138757566 -0.052009163 -0.082920123 8.533411366 0.333237035 -0.024723882 0.265085997 5.151062974
8.512796068 0.602003180 0.092043937 0.359751033 9.258768434 -0.102691024 0.043755432 -0.081689457 5.069122109
9.460249749 -0.421767077 -0.009381002 -0.252043755 8.395125406 0.143696567 -0.004459498 0.114308866 5.180761951
9.390143930 -0.862821931 -0.050130510 -0.515613690 8.331917617 0.014355414 -0.023830816 0.011419557 5.298059820
9.718748517 0.192837501 -0.062039905 0.115237747 6.639370437 -0.235075016 -0.029492250 -0.186999308 5.220700237
10.198709477 0.047873904 0.037228934 0.028608963 6.170023670 -0.020907255 0.017697723 -0.016631467 5.195484763
8.621153332 0.321441206 0.151307189 0.192090025 8.956072381 -0.236143387 0.071927730 -0.187849184 5.101715472
10.024314731 0.080123370 0.056216980 0.047880918 6.286135039 -0.091947090 0.026724175 -0.073142789 5.277821702
8.590143617 0.366800941 0.115639155 0.219196546 9.000001486 -0.233580845 0.054972021 -0.185810713 5.091292983
8.712408160 0.672570969 0.189998012 0.401921632 9.403221855 -0.004648561 0.090320399 -0.003697873 5.101958883
9.408748861 -0.913319771 -0.092956675 -0.545790690 8.361766407 0.005075263 -0.044189325 0.004037310 5.335897840
8.504946686 0.589430585 0.089404362 0.352237777 9.241744913 -0.112473620 0.042500642 -0.089471393 5.068666892
9.679059822 0.177564549 -0.085026244 0.106110785 7.648200129 -0.047111637 -0.040419393 -0.037476732 5.197359458
9.718956058 0.117151971 -0.131305915 0.070008837 7.851679506 0.054441517 -0.062419614 0.043307563 5.192516824
9.418125393 -0.928708656 -0.123675658 -0.554986933 8.347144609 0.013716435 -0.058792377 0.010911257 5.352066600
9.445885875 -0.212041249 0.198850301 -0.126713713 8.845769617 0.279019986 0.094528560 0.221956996 5.232217713
9.232383082 -0.074351627 0.206154767 -0.044431783 8.810142122 0.152453529 0.098000924 0.121274923 5.216593099
8.893339637 0.515924906 0.207160477 0.308311524 9.390960285 0.089948800 0.098479014 0.071553173 5.251649325
8.867451278 0.548900511 0.221657265 0.328017413 9.403763877 0.073348448 0.105370432 0.058347796 5.226735750
8.911559451 0.122414199 0.232003293 0.073153492 8.878532870 -0.111741507 0.110288680 -0.088889006 5.275667998
9.585769394 -0.255022409 0.077538134 -0.152398821 8.714150660 0.334030003 0.036859729 0.265716794 5.160288756
9.357486559 -0.796937655 -0.073680186 -0.476241911 8.282808285 0.041532958 -0.035025755 0.033038962 5.235682499
9.325638493 -0.695894197 -0.159538350 -0.415859358 8.196828968 0.075786505 -0.075840622 0.060287241 5.128744224
9.696517943 0.154784042 -0.096275617 0.092497384 7.722929917 -0.011118009 -0.045767069 -0.008844241 5.200904193
9.340357908 -0.140586572 0.208503888 -0.084013119 8.833828833 0.219220644 0.099117639 0.174387348 5.235557944
9.638826415 0.227852410 -0.080177315 0.136162304 7.490449362 -0.117266928 -0.038114331 -0.093284411 5.179079642
8.885713777 0.525392350 0.211927608 0.313969173 9.395079687 0.085489191 0.100745191 0.068005609 5.244895009
8.603273155 0.347152843 0.128881286 0.207455040 8.981183715 -0.235487396 0.061267005 -0.187327351 5.094081079
8.724431671 0.226269906 0.234638418 0.135216616 8.913886991 -0.189036550 0.111541354 -0.150376269 5.181093003
9.426417727 -0.503466899 -0.048317249 -0.300866745 8.288978632 0.147218522 -0.022968836 0.117110539 5.123488815
10.123364161 0.061408180 0.051600417 0.036696910 6.214967156 -0.046932527 0.024529574 -0.037334253 5.249321406
9.000721169 0.058265038 0.214423491 0.034818600 8.826922146 -0.028224587 0.101931673 -0.022452314 5.219279676
9.535171355 0.289074812 -0.190176385 0.172748194 7.055345250 -0.272845792 -0.090405193 -0.217045500 5.184968551
9.321517474 -0.674175481 -0.182036342 -0.402880473 8.181462414 0.088158409 -0.086535616 0.070128939 5.104207349
9.795191263 0.163206944 -0.021264357 0.097530825 6.529015721 -0.201987701 -0.010108554 -0.160678753 5.246590915
8.536508120 0.624353346 0.098082025 0.373107267 9.294920307 -0.080357859 0.046625791 -0.063923696 5.072558890
9.230968083 0.066039386 0.023908391 0.039464472 8.939766097 0.138146621 0.011365463 0.109893952 5.296459349
9.953571782 0.099709119 0.040591950 0.059585164 6.353451631 -0.127854994 0.019296418 -0.101707089 5.276240983
8.641211369 0.295200661 0.178651781 0.176408940 8.933784397 -0.231887703 0.084926679 -0.184463840 5.114839527
9.611969266 0.255603942 -0.090491428 0.152746340 7.406227531 -0.150723328 -0.043017407 -0.119898569 5.171009114
9.432047444 -0.493079276 -0.037437416 -0.294659206 8.300061978 0.145888341 -0.017796830 0.116052396 5.129819700
9.406393810 -0.907703996 -0.084540764 -0.542434760 8.360221516 0.005388621 -0.040188608 0.004286582 5.331786960
8.943347068 0.451325889 0.173256243 0.269707803 9.349120301 0.109597193 0.082361772 0.087183230 5.291189867
8.829007232 0.602452310 0.227196424 0.360019428 9.419042190 0.046364649 0.108003612 0.036882513 5.177623700
9.530248998 -0.271161900 0.151474789 -0.162043618 8.804703571 0.317941727 0.072007403 0.252918766 5.185785637
9.302296640 -0.009300363 -0.009665470 -0.005557803 8.855445499 0.138212071 -0.004594727 0.109946016 5.289409759
9.338227789 -0.744295773 -0.115514130 -0.444783652 8.236885322 0.056645985 -0.054912587 0.045061190 5.182216460
8.801904945 0.630470368 0.223214972 0.376762738 9.420947185 0.034093379 0.106110927 0.027120867 5.148706697
9.721604919 0.107987592 -0.141668120 0.064532297 7.886034157 0.072071252 -0.067345552 0.057331802 5.187309426
9.670892745 0.188163768 -0.081954398 0.112444771 7.614079124 -0.063019678 -0.038959113 -0.050131385 5.194221742
9.977007864 0.092206265 0.047520884 0.055101535 6.329771492 -0.115912647 0.022590264 -0.092207097 5.278168675
10.191656233 0.049117810 0.038731623 0.029352308 6.174065574 -0.022967812 0.018412064 -0.018270614 5.201715355
8.787055208 0.194244530 0.248218813 0.116078573 8.909894691 -0.168930864 0.117997141 -0.134382442 5.232074626
8.763431555 0.655823116 0.216440489 0.391913284 9.414651667 0.017232370 0.102890504 0.013708140 5.123871913
8.660544472 0.668369062 0.148642884 0.399410615 9.388459463 -0.018561824 0.070661184 -0.014765704 5.090469479
10.282338284 0.036000541 0.016748535 0.021513561 6.139391436 -0.003806248 0.007961843 -0.003027824 5.102810469
9.410276897 -0.916428962 -0.098234521 -0.547648712 8.361776229 0.005163811 -0.046698284 0.004107749 5.338425002
9.386562851 -0.108935580 -0.038987168 -0.065098805 8.750089595 0.127429198 -0.018533544 0.101368373 5.293570561
9.037978698 0.310201624 0.108489074 0.185373364 9.217984995 0.132676657 0.051573047 0.105542662 5.333972714
9.223928661 0.073903473 0.027139295 0.044163971 8.948605853 0.137832949 0.012901356 0.109644430 5.297258967
9.597816716 0.267966357 -0.100151200 0.160133994 7.366876724 -0.165505705 -0.047609426 -0.131657769 5.169465367
9.418908739 -0.930134182 -0.127800818 -0.555838813 8.342944147 0.017016746 -0.060753377 0.013536614 5.353876739
9.536037303 0.287311350 -0.189980066 0.171694367 7.046163523 -0.274583917 -0.090311868 -0.218428157 5.185389136
9.641959784 0.224246500 -0.079668222 0.134007448 7.501413384 -0.112700782 -0.037872321 -0.089652097 5.180430546
9.533510664 0.296374969 -0.188466654 0.177110695 7.100092370 -0.262383327 -0.089592429 -0.208722736 5.182807696
9.687658859 -0.056583816 -0.106936344 -0.033813918 8.401708586 0.306747049 -0.050834917 0.244013536 5.159555841
9.427606833 -0.199328509 0.201689188 -0.119116708 8.845473797 0.269707563 0.095878097 0.214549076 5.235460262
9.445476028 -0.464300063 -0.017840989 -0.277461038 8.333836306 0.143762074 -0.008481169 0.114360976 5.146919691
9.521571154 -0.267170308 0.161523637 -0.159658283 8.815633459 0.314318901 0.076784379 0.250036852 5.192359476
8.512693788 0.485919667 0.083168893 0.290380696 9.117406568 -0.185225820 0.039536453 -0.147344881 5.084290543
8.826351222 0.605777346 0.226818107 0.362006437 9.419656505 0.044931755 0.107823770 0.035742663 5.174231611
9.103289825 -0.004996208 0.203016338 -0.002985684 8.802560775 0.069805456 0.096508992 0.055529389 5.188172364
9.339660998 -0.749085004 -0.111568155 -0.447645649 8.241071000 0.055243013 -0.053036767 0.043945143 5.187297625
9.378351784 -0.837562040 -0.050766835 -0.500518634 8.314335359 0.024302242 -0.024133309 0.019332137 5.275220213
9.810834420 0.157023299 -0.014491233 0.093835541 6.509616973 -0.195209521 -0.006888777 -0.155286793 5.250990278
9.668138810 0.191732750 -0.081175139 0.114577559 7.602688072 -0.068252003 -0.038588672 -0.054293636 5.193009772
9.579698096 -0.260129614 0.086215712 -0.155450836 8.725283199 0.332754564 0.040984837 0.264702197 5.162274183
9.418548711 -0.929445542 -0.125708531 -0.555427288 8.345083686 0.015294000 -0.059758755 0.012166190 5.353002580
9.396409421 -0.122962849 -0.041157927 -0.073481359 8.736603001 0.126042125 -0.019565470 0.100264973 5.296175769
8.695116009 0.673115679 0.175929280 0.402247146 9.399238216 -0.009976762 0.083632468 -0.007936393 5.097072350
8.939639830 0.456571739 0.175773923 0.272842670 9.353385452 0.108624090 0.083558616 0.086409139 5.288376827
9.330160723 -0.714803547 -0.141202518 -0.427159396 8.211829816 0.066995361 -0.067124217 0.053293992 5.149987254
9.182050003 -0.046998552 0.203575990 -0.028085861 8.802860107 0.122298725 0.096775037 0.097287144 5.203803538
8.831636704 0.599030920 0.227529289 0.357974840 9.418331354 0.047869659 0.108161848 0.038079730 5.181079776
8.984985648 0.387083536 0.144523706 0.231317220 9.291289465 0.119946285 0.068703028 0.095415807 5.319434725
9.207183387 -0.060459409 0.204794052 -0.036129933 8.805901060 0.137384361 0.097354074 0.109287584 5.210306541
9.588711375 -0.252242022 0.073201280 -0.150737290 8.708577174 0.334622990 0.034798094 0.266188507 5.159333226
9.659246666 -0.127803692 -0.060610974 -0.076374199 8.517003337 0.331024935 -0.028812972 0.263326299 5.152163296
8.643692369 0.664637396 0.137408586 0.397180609 9.381252980 -0.023232354 0.065320675 -0.018481055 5.087936758
9.898091042 0.120955208 0.020434072 0.072281613 6.412097324 -0.155398184 0.009713857 -0.123617360 5.268985858
9.369872996 -0.568529871 -0.152201986 -0.339747721 8.191599302 0.139852968 -0.072353094 0.111251330 5.056903521
9.203304826 0.097736996 0.036248587 0.058406644 8.975555686 0.136869043 0.017231690 0.108877654 5.299762773
9.538339846 0.283556650 -0.189095379 0.169450596 7.027631373 -0.277678098 -0.089891309 -0.220889540 5.186207846
10.363471538 0.020271043 -0.006499336 0.012113771 6.179078629 0.000145626 -0.003089625 0.000115843 4.986977913
9.890134980 0.124253144 0.017336481 0.074252427 6.420649225 -0.159216117 0.008241338 -0.126654479 5.267722437
8.810050508 0.182844757 0.249657817 0.109266184 8.907090752 -0.162471764 0.118681208 -0.129244307 5.247924229
9.748144352 0.181446524 -0.044436026 0.108430614 6.593770779 -0.222286508 -0.021123798 -0.176826206 5.231272080
9.469271175 -0.390801037 -0.007756254 -0.233538761 8.440856926 0.139809937 -0.003687133 0.111217099 5.213277692
8.542060977 0.438696914 0.089095056 0.262160854 9.065870515 -0.215145168 0.042353606 -0.171145357 5.089050789
9.376487451 -0.833948900 -0.051915200 -0.498359458 8.311750428 0.025954528 -0.024679214 0.020646510 5.271780822
10.405966653 0.000042995 -0.000074102 0.000025693 6.218395706 -0.000050456 -0.000035226 -0.000040137 4.946961972
9.590052218 0.246585345 -0.157811527 0.147356917 6.867460865 -0.282539509 -0.075019733 -0.224756733 5.191724655
10.271539726 0.037185476 0.019851052 0.022221666 6.139960947 -0.005135398 0.009436703 -0.004085147 5.116831109
8.620107473 0.658616168 0.124387295 0.393582384 9.368737523 -0.031347447 0.059130672 -0.024936512 5.084736259
8.916700015 0.486955123 0.191464895 0.290999474 9.375248352 0.101116122 0.091017719 0.080436642 5.270692984
10.307949204 0.032971757 0.008711297 0.019703590 6.143827135 -0.001651074 0.004141137 -0.001313409 5.067677253
9.482172465 -0.342195657 -0.015543603 -0.204492676 8.507343098 0.126841517 -0.007389048 0.100900880 5.257581492
8.664942282 0.269698235 0.203846111 0.161168947 8.920440395 -0.220149694 0.096903446 -0.175126396 5.132727618
8.930116497 0.109713170 0.227281292 0.065563484 8.868450614 -0.097254325 0.108043957 -0.077364629 5.270069187
9.467011968 -0.398564135 -0.007957475 -0.238177910 8.429635826 0.141278001 -0.003782789 0.112384927 5.204906821
9.668757472 -0.106390730 -0.075743007 -0.063578028 8.484464311 0.325686799 -0.036006370 0.259079876 5.154507072
9.602583532 -0.236189908 0.051013330 -0.141144709 8.680101216 0.337181681 0.024250487 0.268223914 5.154833367
9.183550161 0.121734544 0.044379652 0.072747337 9.003075209 0.136119250 0.021096999 0.108281203 5.302580307
9.961425405 0.097078170 0.043066344 0.058012936 6.345404683 -0.123863141 0.020472685 -0.098531618 5.276994776
8.908879641 0.496746284 0.196816169 0.296850573 9.381124186 0.097802472 0.093561583 0.077800674 5.264504990
10.4063 0 0 0 6.2187 0 0 0 4.9469
9.576053938 0.253868164 -0.167136247 0.151709056 6.897844920 -0.284702892 -0.079452476 -0.226477678 5.190785822
9.701352301 -0.008953242 -0.141595766 -0.005350367 8.303476593 0.274450124 -0.067311157 0.218321726 5.163911100
8.845057824 0.580220016 0.227896956 0.346733634 9.413480472 0.056814410 0.108336628 0.045195170 5.199339100
9.164662099 0.145623220 0.051625933 0.087022969 9.030962740 0.135824298 0.024541703 0.108046572 5.305963620
9.548080222 0.272805974 -0.183982929 0.163026100 6.978668762 -0.283310478 -0.087460976 -0.225370030 5.188171411
9.383719365 -0.848422510 -0.048825534 -0.507008741 8.321960656 0.019597265 -0.023210462 0.015589385 5.285331308
8.836880780 0.591882892 0.227992250 0.353703251 9.416641085 0.051133530 0.108381928 0.040676099 5.188173599
9.599961934 -0.239621955 0.055478401 -0.143195665 8.685820194 0.336735349 0.026373072 0.267868863 5.155679186
9.332359948 -0.135357261 0.208692036 -0.080888135 8.832166188 0.214253783 0.099207080 0.170436271 5.234702617
9.722648949 0.101542272 -0.148713962 0.060680638 7.911878793 0.085131765 -0.070694973 0.067721281 5.182975751
9.096191496 -0.001091726 0.203362696 -0.000652405 8.803241293 0.064304512 0.096673642 0.051153455 5.187707703
9.722947248 0.088054819 -0.161294259 0.052620672 7.971841246 0.114786189 -0.076675338 0.091311013 5.172733880
10.391766332 0.007472969 -0.005487119 0.004465771 6.205369484 -0.000230073 -0.002608442 -0.000183020 4.954218015
9.496363413 -0.249420806 0.182518215 -0.149051360 8.836108464 0.302869144 0.086764686 0.240928710 5.211392987
9.454121018 -0.441175802 -0.011560196 -0.263642213 8.366104383 0.143906638 -0.005495434 0.114475976 5.163516625
9.866425673 0.134188123 0.008008719 0.080189470 6.446330652 -0.170356098 0.003807149 -0.135516198 5.263578350
9.329657834 -0.613942984 -0.210059440 -0.366886140 8.163115167 0.122430685 -0.099857110 0.097392116 5.052834370
9.054006445 0.288961792 0.098921040 0.172680655 9.196219040 0.135193781 0.047024638 0.107545004 5.333364634
8.572800733 0.643317076 0.106771427 0.384439801 9.333888713 -0.054686081 0.050756520 -0.043502110 5.078424015
9.533505781 0.295129330 -0.189189625 0.176366313 7.091218206 -0.264721483 -0.089936111 -0.210582711 5.183247878
9.713238648 0.033114346 -0.169279230 0.019788800 8.193727168 0.226451016 -0.080471197 0.180139021 5.164564058
9.464770123 -0.406302331 -0.008330305 -0.242802178 8.418264962 0.142412041 -0.003960023 0.113287041 5.196594349
9.720687868 0.064301031 -0.172897996 0.038425648 8.083629211 0.170485518 -0.082191470 0.135619150 5.161817070
8.896975003 0.132075247 0.235961141 0.078926836 8.885216967 -0.122059391 0.112170144 -0.097096757 5.277268947
8.752666832 0.211060656 0.242355664 0.126127721 8.912567209 -0.178774228 0.115209943 -0.142212718 5.204718590
8.897208979 0.511153458 0.204645405 0.305460155 9.388710520 0.092061812 0.097283410 0.073234049 5.254945692
9.545657079 0.275068572 -0.185329070 0.164378206 6.988668432 -0.282446766 -0.088100898 -0.224682958 5.187793136
8.943611111 0.100200568 0.224247998 0.059878849 8.860258497 -0.085795678 0.106602003 -0.068249415 5.263446731
9.326684922 -0.700509145 -0.154914062 -0.418617205 8.200383612 0.073462561 -0.073642349 0.058438572 5.133956044
8.947023209 0.446016724 0.170761829 0.266535099 9.344685365 0.110521821 0.081175989 0.087918761 5.293962769
9.533678578 0.297500084 -0.187537881 0.177783052 7.108944005 -0.259923589 -0.089150913 -0.206766045 5.182364429
9.374597665 -0.830340438 -0.053288802 -0.496203077 8.309135040 0.027623233 -0.025332191 0.021973945 5.268316868
8.713689191 0.232713835 0.230930844 0.139067443 8.914339043 -0.193741965 0.109778864 -0.154119370 5.172145517
10.090794141 0.067225112 0.055775775 0.040173049 6.235947373 -0.060618817 0.026514437 -0.048221529 5.263557805
9.763421186 0.175548925 -0.036327837 0.104906268 6.571607938 -0.215682035 -0.017269363 -0.171572428 5.236546172
9.337861821 -0.600894205 -0.200161974 -0.359088321 8.165909289 0.127648164 -0.095152097 0.101542558 5.048210891
9.245225638 0.050474833 0.017227746 0.030163251 8.922309146 0.138687527 0.008189648 0.110324236 5.294889963
9.913926817 0.114517639 0.026507730 0.068434587 6.395152297 -0.147687397 0.012601125 -0.117483523 5.271336543
8.974058803 0.077960762 0.218605535 0.046588566 8.841177724 -0.056832811 0.103919714 -0.045209808 5.241605171
10.074328809 0.070212467 0.057060393 0.041958263 6.247291978 -0.067997965 0.027125112 -0.054091552 5.268824937
9.375134982 -0.564211869 -0.144301583 -0.337167326 8.198282189 0.141705767 -0.068597436 0.112725209 5.061281892
9.347805746 -0.588913144 -0.185599415 -0.351928559 8.171494322 0.131985031 -0.088229414 0.104992482 5.047146246
8.881981696 0.530079227 0.214141153 0.316770004 9.396967024 0.083168806 0.101797457 0.066159771 5.241438351
9.394088848 -0.547556526 -0.113664493 -0.327214261 8.229170454 0.147611680 -0.054033314 0.117423291 5.082128270
9.720475666 0.112487612 -0.136589753 0.067221463 7.868868815 0.063294248 -0.064931421 0.050349802 5.190014105
9.403033571 -0.898277725 -0.073036617 -0.536801715 8.355476860 0.006507302 -0.034719818 0.005176479 5.325300024
9.478264442 -0.358989244 -0.010689693 -0.214528354 8.484946196 0.131435664 -0.005081618 0.104555467 5.244484867
9.882221904 0.127558722 0.014236165 0.076227806 6.429183049 -0.162974369 0.006767524 -0.129644122 5.266406466
9.610162596 -0.225115677 0.037203942 -0.134526860 8.662432495 0.338306416 0.017685842 0.269118627 5.152482193
9.423238194 -0.163668587 -0.046587230 -0.097806698 8.699377319 0.123297431 -0.022146427 0.098081602 5.304510566
9.472690433 -0.379060481 -0.007989758 -0.226522723 8.457459365 0.137044406 -0.003798135 0.109017153 5.225599260
9.322734369 -0.631476035 -0.212841907 -0.377363714 8.163573425 0.114021912 -0.101179827 0.090703040 5.063208684
8.794854359 0.636041077 0.222263700 0.380091737 9.420259788 0.031165275 0.105658716 0.024791596 5.143098743
9.571815820 0.256254976 -0.169836377 0.153135391 6.907851074 -0.285088007 -0.080736052 -0.226784032 5.190492689
10.376459472 0.015266596 -0.007522203 0.009123164 6.190886442 0.000161514 -0.003575871 0.000128483 4.970142359
10.405148806 0.000214496 -0.000286970 0.000128181 6.217648222 -0.000151392 -0.000136419 -0.000120430 4.947129009
8.769879442 0.202556522 0.245800094 0.121045736 8.911431998 -0.173643221 0.116847341 -0.138131064 5.218792496
8.699504038 0.673220114 0.179587603 0.402309555 9.400297038 -0.008746478 0.085371545 -0.006957716 5.098174899
9.027694961 0.324205173 0.115056203 0.193741744 9.231845203 0.130630756 0.054694899 0.103915173 5.333254930
9.540800248 0.301469957 -0.171957010 0.180155408 7.180127975 -0.236108680 -0.081744148 -0.187821575 5.178557934
9.472407105 -0.248909407 -0.050423708 -0.148745753 8.621102926 0.120400515 -0.023970195 0.095777141 5.304068835
9.649042372 -0.149647421 -0.042807630 -0.089427790 8.549654082 0.335103074 -0.020349698 0.266570408 5.150103942
10.243319032 0.040702358 0.027142829 0.024323319 6.147510109 -0.009926774 0.012903036 -0.007896628 5.150623728
9.359317946 -0.800818487 -0.070828194 -0.478561057 8.286059174 0.040171600 -0.033669988 0.031956017 5.239495012
8.586767072 0.371905368 0.112706297 0.222246900 9.004759066 -0.232936275 0.053577812 -0.185297966 5.090881684
8.600045768 0.351939749 0.125355563 0.210315647 8.985836241 -0.235108482 0.059590963 -0.187025930 5.093195442