4.4367540063 4.5477199381 2.5168850197 2.8556149249 7.3531354809 5.4766366272 1.8058370198 3.1363510640 2.3561248589 6.8237293193 1.0034528295 0.0806262652 7.6929002832 5.3471646507 2.8003658426 1.1490360637 6.2918677794 2.7889633519 3.7671006418 2.1807590939 4.9532966987 8.5387159226 2.1848401429 2.6450771452 5.8823521354 6.1304336682 0.2633656102 1.9292991653 6.3942773962 4.1364359286 3.2844440798 2.5314114768 1.1107498515 7.5330466213 2.0940534177 1.4588776424 6.3418648504 6.0770743699 4.0274705542 4.3405244901 5.8599747457 0.2995376229 0.3421589191 1.8861434283 2.4157756351 5.3026551337 2.4099972589 5.0620971756 9.3179446203 6.4914488548 2.7870837604 1.7554408189 7.2637634966 1.7759510475 3.4602163731 0.6401281745 4.6685246206 8.5574471776 3.6471143303 3.1942874799 6.4008195755 5.0809235871 1.3182115918 7.9268073292 1.2379669005 3.7639829536 6.2486089575 7.5600923052 0.8124819145 1.3886886836 4.8932815749 2.1465406179 3.3364258787 3.0121781392 3.7062855516
4.6301455956 4.4630416161 2.3987394769 2.8100810058 7.1531342046 5.3103243047 1.8668867497 2.9162412053 2.4184088205 6.8409984273 1.0120107913 0.0218172063 7.7717829896 5.2824766596 2.7574978765 1.1653345668 6.1532408259 2.6343413780 3.7296122643 2.1284534188 4.9343356210 8.5489917008 2.1820915951 2.6246426195 5.9229048650 5.9941541558 0.2300167635 1.9065609048 6.2218081105 3.9849926940 3.2666387321 2.3548473874 1.1559007381 7.8625626318 2.0620203713 1.2347868420 6.3561786431 5.9282613873 3.9140430981 4.3527745379 5.7480229322 0.2523246542 0.3263704737 1.7838518520 2.5022593712 5.2885714093 2.3199552016 4.9041034560 9.3615006404 6.4610093542 2.4723620755 1.9022107763 7.1873769893 1.6976331820 3.4570529836 0.6619358183 4.5620918244 8.4900408970 3.6255867081 3.1907846092 6.4687389693 4.9765125607 1.2849694054 7.8406991572 1.1931928651 3.5594508570 6.1460959928 7.4608420258 0.7193025309 1.4504485285 4.7140701606 2.0840475528 3.1685214015 3.0630853717 3.8054830326
4.5447376110 4.2617462874 3.0026971292 3.0688764936 6.6396704911 5.7905366649 1.3889219855 2.2703011705 2.0590234733 5.8798256277 1.1653944911 -0.5196700306 7.8320496817 5.3658716845 3.1313880976 1.5902376805 5.5207179274 3.0819966350 3.0089440220 1.4277757168 4.5948275276 7.4325122447 2.1783828241 2.1003789674 6.1635155343 6.3295486353 0.4828971081 2.7611653794 5.7363331250 4.0975422978 2.2094974165 2.2308528808 0.3931848785 6.9824699744 2.2283105464 0.5680739634 6.2322117101 5.8519501579 4.1615236993 4.8164446199 5.8166354853 1.1686602433 -0.5129244083 2.2148164997 2.2315691277 4.2172823308 2.2723478621 4.0953648794 9.6354398368 5.1381678301 3.7365414408 1.6955069183 6.5898410335 1.9574096464 3.5951041192 0.2382671265 5.3768166366 7.1936057193 3.5329548724 2.8173073297 7.4097619925 5.9264050016 1.3168110706 6.6406737356 1.1294926315 2.9400657897 6.1282689922 7.8849195817 0.5394196297 1.8888226518 4.0653081927 2.4968371172 2.1248737489 1.0367477966 3.3921047055
4.7498350289 6.1939500125 2.7608345855 2.8480140170 8.0829968275 5.5521684098 1.9645345532 3.4329687090 1.9982503735 6.0540307070 1.7046230298 -0.0822282242 7.6173865654 6.3180107642 3.0278755831 1.9495148521 6.5168229444 2.9531247465 2.6711571057 1.6859845041 4.5227035725 7.3296865916 3.5258215111 2.4780345651 6.1620175943 7.8927105641 0.4873822548 3.1028059774 6.9702288339 3.9627684996 2.0500169818 2.9214810324 0.2337763294 6.9921149101 2.5133507993 1.4226367175 6.3836162071 6.7281136259 4.5545334843 4.6992677115 8.1133364710 1.0656184843 0.0975178526 3.3986954051 2.1939192994 4.2163777878 1.6234367094 4.7517752974 9.3377045145 6.7822264276 3.8599857809 1.6759511790 7.5697994957 1.8657652549 1.9126673689 0.3806267080 4.9797447903 6.5076002185 4.8591540576 2.2058633293 6.9716902190 7.5252836497 1.7797489291 7.1340847156 2.9628978170 3.9247330116 6.7941052378 9.1693010669 -0.1815846847 2.6693360476 5.3022984618 2.2639440356 2.4001152763 1.9216695720 3.0087897619
4.9510802850 6.3163305018 2.9599275160 2.9803470481 8.1528748793 5.5541858227 1.8885830259 3.4917505402 2.0832071117 6.1067525970 1.6786627403 -0.0607750527 7.6705780118 6.3670877645 3.2172736798 2.0418027993 6.4235768013 3.0110185241 2.7491708247 1.7082902270 4.5804633041 7.3300605966 3.6016946207 2.4911273368 6.3421783055 7.8585243311 0.6380909540 2.9761774874 6.9145494934 4.1451259584 1.9968476310 2.8755798947 0.2598799053 6.8767489602 2.7382269523 1.2760057631 6.4800495403 6.7111639743 4.6624678030 4.7930187826 7.8068177759 1.0688097569 0.0113087794 3.5707054312 2.2888826658 4.2920578110 1.5885825512 4.8353469193 9.4394352197 6.7330354774 3.8219333886 1.8867553909 7.5430309129 1.9231014229 2.0688991702 0.4657656609 5.1284154321 6.4898611383 4.9337829750 2.5066441407 7.2708700592 7.5744982147 1.8060429420 7.1325397430 2.7416274281 3.7308022670 6.8256238523 9.2395094769 0.0491447176 2.6949040702 5.1389088954 2.3523717846 2.4283264529 1.9070758634 3.0927772974
4.7227186751 6.1646287681 3.3176091150 3.2034737670 7.8450773784 5.8326244772 1.5066577431 3.1095564666 2.1086704363 6.2133313500 1.6399733616 -0.2802095699 7.7890567828 5.8912928941 3.2661712248 1.9534830971 6.1280328930 3.1639736402 2.8897260370 1.8082712681 4.8356886306 7.1420185676 3.1801654655 2.4001703906 6.3792622466 7.4864470955 0.6739659991 2.8887881513 6.6476512584 4.2991013137 2.2579600880 2.8144458259 0.4462862086 6.6960800500 3.0331908740 0.8856278913 6.6725751485 6.6648630860 4.7345639161 4.8847883435 7.3676497313 1.2117547939 -0.3707721488 3.3050682703 2.3297149081 4.4360263715 1.8987076125 5.0046015509 9.5367092696 6.2817464696 3.6934694071 2.1496391272 7.1605827700 1.9934508226 2.3930834574 0.4185648670 5.2113214263 6.4642247254 4.3919311633 3.1344567644 7.1677041441 7.0523194668 1.8957579074 6.9611638715 1.9127502645 3.2267289771 6.6768777988 8.9903797034 0.2691850018 2.5161254890 4.7541458892 2.6540348514 2.5071708135 2.1082022286 3.3877392009
4.5726833793 5.7376077317 2.4158234893 2.6532397460 7.8509916285 5.5201042783 1.9790964417 3.2349264684 1.8779144489 6.0430013683 1.6287395234 -0.1017518779 7.3960236699 6.0119325699 2.8012659084 1.6847269191 6.3464375495 2.8634199346 2.7358600698 1.5954597379 4.3854209643 7.1969166906 3.1442808203 2.5020576186 5.9136823411 7.7067868858 0.2501209656 2.7034970581 6.9189553089 3.8475976355 2.1505091671 3.0288882625 0.0175563425 6.8881318184 1.7919953457 1.7402241683 5.9167748177 6.4474491268 4.2036457609 4.3980914581 8.0408500755 0.5805970674 0.1472632533 3.1700225600 2.2538779454 4.2131451128 1.4953995781 4.8131189663 8.9343078944 6.4078468367 3.7490755341 1.3482502988 7.3929771766 1.7239495172 1.9924933451 0.3875746679 4.8622021414 6.2720638417 4.3616927833 2.1349766702 6.5557639391 7.2935674788 1.5637810285 6.8218593689 2.8133039255 3.9677453087 6.5011663928 9.0011893166 -0.4122550050 2.3087982607 5.0970792347 2.1379567396 2.6501127531 1.7805120129 2.8716489004
4.2025845138 4.6659689428 2.6597446478 2.7741221780 7.6118667559 5.6107602210 1.7407538171 3.1390302149 2.2287452615 6.8312312853 0.9057883900 0.2601379741 7.6183091022 5.3508715248 2.9475152022 1.0489200705 6.4763431263 2.9390918523 3.6773658805 2.2043471248 4.9275094996 8.4042236779 2.1655353475 2.9177294052 5.9626684335 6.3080531529 0.3687836529 1.8014561647 6.6412766801 4.3039716556 2.9177904150 2.7924254535 0.8260967020 7.3417244884 1.7633484808 1.8864712510 6.3270933127 6.0739377788 4.0718209690 4.3776045381 6.1700935718 0.6228271727 0.2161547635 2.1261805596 2.2221782472 5.2414214446 2.4136977854 5.0379115707 9.1420091184 6.3236987836 3.3449600804 1.4520389704 7.5968675848 1.9419959564 3.4045363081 0.6812087812 5.0765772728 8.2725116799 3.6462200318 3.2050792896 6.5292130104 5.2720066101 1.4035350281 8.3085923190 1.3115024374 4.1999534000 6.3781931876 7.7648106720 0.6850763532 1.4651755304 5.0966527756 2.2878591945 3.1799467745 2.8793694801 3.5959574708
4.4543681238 4.1497334329 2.9881021057 3.0453608056 6.5974592033 5.7469938896 1.3617081227 2.2420823729 2.0638462634 5.8514851863 1.1458266567 -0.4858308892 7.7784791956 5.3676239331 3.0224253989 1.6013496906 5.4489945181 3.0407409681 2.9933877269 1.4248104649 4.5065902221 7.4191493193 2.1296999496 2.0444740973 6.0764153146 6.2469138862 0.4897016387 2.7017596912 5.6772463756 4.1004051074 2.2388282947 2.2207438135 0.4148260354 6.9539142046 2.2463451407 0.6010315563 6.1598937390 5.7582419237 4.0789033089 4.8200115855 5.6996145075 1.1939086938 -0.5226905412 2.0981075110 2.1532350176 4.1926043457 2.3018391340 3.9620580112 9.6259834755 5.0764577164 3.6572751790 1.6612336364 6.5608238479 1.9235817520 3.6894625312 0.2629078027 5.3003902402 7.1673235747 3.5185542114 2.7046008244 7.3887504055 5.9721324636 1.2469691056 6.5342538066 1.1473818916 2.8580032590 5.8824159902 7.7969447044 0.4597398991 1.8880665326 3.9997213807 2.5167522264 2.1161408597 0.9338282642 3.3383450058
4.8123048200 4.6719061776 3.0451482335 3.0725894694 6.7814955303 5.8540333309 1.3677558287 2.4280302800 2.1395226888 6.0549925102 1.2078386972 -0.5908546377 7.8809575522 5.3547393958 3.2800716517 1.6290002116 5.6637476677 3.1687583118 2.9422895391 1.5308251942 4.7165515889 7.5474912340 2.2981174753 2.2052700524 6.4109152583 6.6117321127 0.6024822097 2.7488853433 5.9635684903 4.1893440722 2.0633806855 2.3181839250 0.3942832157 7.0080002763 2.4055607427 0.7326227202 6.5366048752 6.1491706550 4.2925209823 4.9590034181 6.1907251532 0.9821618505 -0.3938945026 2.6069974018 2.3076991342 4.3228412126 2.2288595822 4.4394135001 9.7113224633 5.4069435458 3.8462731255 1.7394387676 6.6673799547 1.9790871300 3.3082953099 0.2260018216 5.4256979658 7.1259636772 3.5984015486 2.9762612577 7.3992766230 5.8486257609 1.4875197835 6.8298319307 1.0915505630 2.8565035239 6.6523571170 8.1424135732 0.4411302335 1.8596199279 4.2385498811 2.5003486436 2.1513886387 1.2910450088 3.4102406957
4.6959670828 6.1528784138 2.7103421439 2.8218691344 8.0635026406 5.5624993775 1.9753562667 3.4155003458 1.9790747660 6.0397964604 1.6990428084 -0.0955008338 7.5996181109 6.2943893571 2.9890399407 1.9143076653 6.5100149228 2.9506283570 2.6565691933 1.6648207575 4.5173950718 7.2984443910 3.4834615899 2.4791889174 6.1226517166 7.8996349036 0.4625990731 3.0749094934 6.9910078525 3.9161914128 2.0620833531 2.9544470796 0.2063479843 6.9930906885 2.3858515104 1.4258524751 6.3479228187 6.6922843990 4.4946026613 4.6276703527 8.1680810949 1.0373078471 0.1174676146 3.3884977766 2.1876877526 4.2068277799 1.6260679067 4.7306801557 9.2706323122 6.7697302467 3.8578308325 1.6183693413 7.5959225144 1.8542031021 1.8998569966 0.4064315191 4.9162285720 6.5122824800 4.8368029840 2.1861691881 6.8840673250 7.5194032385 1.7392149236 7.1028447614 3.0042212300 3.9369483958 6.7539619696 9.1823974607 -0.2317003120 2.6505906351 5.2885659469 2.2371784903 2.4093910354 1.9177610451 3.0258958359
4.3560276276 5.1847026946 2.5045752174 2.8835731638 7.7304942015 5.5230805449 1.8491113680 2.9521259228 2.0204782007 6.4402188363 1.1559987081 0.4448962842 7.2187728266 5.5465495192 2.9738426515 1.4287179560 6.2047919667 2.9516524436 3.4797892407 2.0185413380 4.6575761314 7.7553957809 2.2541590760 3.0049120565 5.7688188964 6.7911521239 0.2524228532 2.2196190100 6.5143488248 4.2507801722 2.9001141855 3.1478165917 0.4184675621 6.8124361158 1.3173294214 2.1816872174 5.7978556980 6.0690975251 4.0964489785 4.3761545300 6.9894895798 0.8732223919 0.0845597861 2.3277247850 2.2017672223 4.9726264370 1.8383038910 4.8993477986 8.9864877448 6.0702954708 3.4225425114 1.7540032381 7.2300362762 1.8438908864 2.7109633702 0.7675148984 5.2059039692 7.0436766671 3.6582619722 2.9604599261 6.5403030176 5.9726025760 1.2604827573 7.9212833804 1.7186631051 4.4491186723 6.3794157985 8.1503816990 -0.0751401633 1.9834664405 4.8068505179 2.5329998633 3.2490690251 2.2687793299 3.1559909124
4.3183264804 4.2939541316 3.1194277293 3.2526925870 6.5684455177 5.8409109260 1.1557337141 2.1029315171 2.0916027866 5.7058835254 0.9966764057 -0.4520382495 7.6243138876 5.1951033152 2.9065111980 1.5273878205 5.3225229098 3.1288295157 2.7669586526 1.3553788042 4.6008776256 7.3842244975 1.9642555071 2.1108474072 6.0307807031 5.9534362173 0.3632657647 2.5701819527 5.6210546040 4.2085370646 1.9932533416 2.1362676674 0.4417219943 6.6586328803 2.2023877227 0.7197649418 6.3871405424 5.0994734169 4.2959935127 4.8755880344 5.1794588014 1.0013807342 -0.6644690381 1.9369782433 1.9885073606 4.0647374279 2.1598825267 4.1479314522 9.5083778459 5.0539987747 3.5628877276 1.9257981505 6.1141030518 1.8252532665 3.3817106768 0.1254928305 5.3602708058 7.6972134680 3.2976142022 2.7818958211 7.1768144373 6.2057307481 1.3461994549 6.4587320895 1.1411356551 3.0202254995 5.3070274173 7.3088244889 -0.0617152538 1.6207926249 3.7484048676 2.8940679165 1.9277018210 0.9164516247 3.3899728188
4.8369032307 6.3903456031 3.2012825354 3.1578334355 8.1024237327 5.7309393595 1.7159861699 3.3284268927 2.1289140152 6.1296781640 1.6165615304 -0.1539850133 7.7330576213 6.2717492762 3.3563121167 2.0242206083 6.3188766532 3.0696638376 2.8189795356 1.8176134752 4.7600822559 7.2022635977 3.5006404430 2.5274947451 6.3778390001 7.7391373526 0.7184971832 2.8408034041 6.7698860168 4.3164658338 2.1634088183 2.9599714937 0.3138279078 6.8333732018 2.9801086225 1.0844081911 6.6985117205 6.7930940985 4.7919023557 4.8499312502 7.5966573424 1.1187538675 -0.1992266578 3.5859670966 2.3069642668 4.3615364079 1.6978700151 4.9284569030 9.5045128945 6.5228827858 3.7806532493 2.0971610151 7.4150608839 1.9581860465 2.2003196219 0.4893359873 5.1859510664 6.3955310151 4.7784174970 2.9713961325 7.3323323599 7.3997423474 1.8412511546 6.9998374566 2.3293048507 3.4923055099 6.6511301989 9.1798831614 0.1779372275 2.6816127037 4.9792216082 2.5442475584 2.5253924127 2.0686594138 3.2725343545
5.6144108596 2.7120083736 2.6839564653 2.7153853164 4.9352596225 5.0169858768 2.3532268993 1.5619991939 2.8440117269 7.4784514542 1.3905720167 -0.1779608667 7.7779419033 4.5130339830 2.6932856375 0.9812093757 4.4111866929 2.1737943875 3.9776345699 1.7115726613 5.2430069060 8.9805378228 1.4606477441 2.8021928421 6.0636409525 4.9761546466 0.2891014691 1.3199982145 4.7545000733 3.6647522763 3.7851885361 1.4218781234 1.4958928286 8.8162874504 1.5113087365 1.2851940383 6.2662143795 4.6690150030 4.0306681518 4.5703409791 5.0165474372 0.5274243524 0.4462293680 1.3268826128 3.1917015016 5.4400675726 1.7521851716 4.7948376972 9.4586121707 4.3478703118 1.9873352514 1.5894007290 5.5323339243 1.2821382414 3.2345060156 0.5356590306 4.4802023774 8.2436835088 2.5826804515 3.6396350429 6.7207563931 3.8382801287 1.2075205036 8.1880600737 0.2189502197 3.3373770190 6.6928231700 6.3094548750 0.7180957941 1.6586539688 3.0875524144 1.8305217029 3.2376577510 2.9376524026 4.4853920447
4.2384479413 4.6004359330 2.6260750805 2.8288416040 7.5241607438 5.5830633892 1.7678669316 3.1875362743 2.2620663421 6.8222207912 0.9401726257 0.1798899405 7.6317581149 5.3558630804 2.8563695004 1.0433872849 6.4299304670 2.8808490655 3.7761528363 2.2624740406 4.9311318095 8.4486764643 2.1670252841 2.7901213346 5.9075202069 6.2372103101 0.3714694212 1.7976552432 6.5410584453 4.2333487897 3.0131592687 2.6798615207 0.9636281859 7.3436096543 1.9441506091 1.7077335985 6.3248289936 6.1357331855 4.1059538759 4.3821654259 6.0433153933 0.4335636889 0.2508157460 2.0050684609 2.3140674351 5.2961856685 2.3626813717 5.0902967256 9.1614634902 6.3491427089 3.2029901947 1.5678366592 7.4941494788 1.8702238696 3.4464154752 0.7351723006 4.8972326111 8.4170049503 3.7022672716 3.1613673681 6.5148750426 5.2359188748 1.3840815070 8.1928707470 1.2487546207 4.0377799288 6.3474303130 7.6659490468 0.7241771795 1.4058367815 5.0494163687 2.2111138420 3.2399688544 2.8995296660 3.6235086194
4.5912616667 5.9909309363 2.5650525073 2.7633517158 7.9736684940 5.5546896248 1.9938894773 3.3483229814 1.9330126851 5.9960778756 1.6705593794 -0.1193665318 7.5260673023 6.1900786889 2.8961333104 1.8259733436 6.4337266907 2.9091623083 2.6830751603 1.6603759924 4.5041783717 7.2352719932 3.3410034522 2.4446864383 5.9867514100 7.8778400168 0.3278448180 2.8873746626 7.0380323222 3.8484708624 2.1140964802 2.9898058031 0.0879218068 6.9655628832 2.0818449282 1.5669944964 6.1674792856 6.6459055181 4.4060727869 4.5259412568 8.1963775434 0.8352075576 0.1158659008 3.3247904492 2.1993006427 4.1997376995 1.5891595714 4.7178523177 9.1300568669 6.6860855843 3.7968320018 1.4534965955 7.5451033109 1.8778517189 1.8689020957 0.3435276030 4.8296911067 6.4649801493 4.6697181438 2.1783514344 6.6912983571 7.4577118180 1.6705525181 6.9580769860 3.0175505986 3.9505815593 6.5685207866 9.1248190111 -0.3103041204 2.4893340096 5.1975779490 2.1751945807 2.4552138311 1.9103767357 2.9628012063
5.6496842923 2.6610702262 2.6451318865 2.7447913825 4.8834686234 5.0396634802 2.3582159627 1.5392761938 2.8709205029 7.5169665315 1.3616867042 -0.1468156472 7.8239945193 4.5335561388 2.7189362428 0.9952378482 4.3747244697 2.1988524375 3.9948293499 1.7475679194 5.2100941964 9.0692467574 1.4713477432 2.8077643099 6.0678561647 4.9324671029 0.3110260981 1.2881755306 4.7799808752 3.6755969839 3.8181103601 1.4221143158 1.4987622773 8.8386419467 1.5316905967 1.2876700904 6.2298127402 4.6145833553 4.0415381132 4.5860742125 4.9622263013 0.5490237544 0.4541460377 1.3407315265 3.2073930924 5.4393508284 1.7283980818 4.7879958371 9.5227156034 4.2677937686 2.0085283576 1.6053967769 5.5220203566 1.3235354467 3.1967796496 0.5249165707 4.4659143179 8.3294816148 2.6037789790 3.6461193238 6.7319633340 3.8191399676 1.2419825214 8.2218509858 0.1819168653 3.3438303270 6.7240448322 6.2296333306 0.7212421744 1.7013604841 3.0875767664 1.7774156988 3.2965726124 2.9523493783 4.4840445584
4.4083324447 4.0967806897 2.9755710696 3.0316353868 6.5714281460 5.7142613530 1.3396937373 2.2196437532 2.0702014274 5.8349888371 1.1424248095 -0.4665021673 7.7488254203 5.3614921186 2.9530773319 1.5900837250 5.4098318332 3.0205424738 2.9846319257 1.4416230392 4.4602196278 7.4225782002 2.1029004340 2.0284561773 6.0390266865 6.2123961636 0.4623891576 2.6926574631 5.6450200925 4.1114533098 2.2626159409 2.1911688486 0.4091573532 6.9171370732 2.2673922918 0.5925588001 6.1240291175 5.7260332591 4.0880506196 4.8043146010 5.6016562334 1.2099888612 -0.5261759903 2.0421130932 2.1036424786 4.1782196161 2.2829592299 3.9048808103 9.6002091412 5.0377146488 3.5832052619 1.6612764131 6.4978907839 1.8994857921 3.7348228065 0.2822452925 5.2349286158 7.1739905406 3.5208387555 2.6363974926 7.3863875218 5.9973579373 1.2179311546 6.4656514499 1.1440238296 2.8039155458 5.7530016925 7.6927619796 0.3975221373 1.8883074919 3.9971300884 2.5294701197 2.0997413110 0.8798354757 3.2937682228
5.6082320743 2.7186941006 2.6889819040 2.7111145979 4.9430639403 5.0125790171 2.3518260158 1.5655240947 2.8395393960 7.4733331239 1.3951339859 -0.1828177836 7.7714879809 4.5113770114 2.6891896335 0.9793852153 4.4171712593 2.1711858167 3.9734730799 1.7054589764 5.2463078838 8.9686434541 1.4584682639 2.7998966100 6.0632696002 4.9820115045 0.2840063584 1.3243454407 4.7516629703 3.6626788274 3.7813220999 1.4253795883 1.4927169681 8.8127702379 1.5102420407 1.2823038329 6.2738503113 4.6759466877 4.0273529815 4.5636776609 5.0237263010 0.5256054232 0.4449470723 1.3241552635 3.1893747826 5.4422665563 1.7569518785 4.7941014485 9.4524036446 4.3607767327 1.9825046297 1.5880766994 5.5347586977 1.2742156331 3.2382357866 0.5371085847 4.4794704697 8.2298453085 2.5813310189 3.6371841407 6.7193884667 3.8429348669 1.1999753152 8.1826209642 0.2240232860 3.3374387480 6.6903862002 6.3209289433 0.7186305353 1.6546966940 3.0868255421 1.8360848571 3.2292536638 2.9347713555 4.4859006583
4.5447207659 5.4681758827 2.3157136920 2.5208581123 7.7603718168 5.4372609675 1.9361451313 3.0797156088 1.8090623288 6.1831708759 1.4816025703 0.0681984647 7.1973190163 5.7777903928 2.7162102669 1.5595288909 6.1501488015 2.7956345874 2.9454778823 1.5696871327 4.3742022166 7.1717590169 2.8842866184 2.5667244354 5.8712159726 7.4267311852 0.0752482176 2.6047652411 6.6738677991 3.8412076398 2.1825718150 3.0514130239 -0.1304735830 6.8552459080 1.6592815522 1.7077263710 5.9251959689 6.1272218146 4.0912195953 4.4378141907 7.7001702797 0.5920378265 0.0801783594 2.9346764264 2.3700673926 4.3784493982 1.4759714623 4.9622571203 8.8186061055 6.1562172729 3.6413911722 1.2378517786 7.1679772262 1.6842164252 2.0223561793 0.4375731049 4.9507772549 6.2764255644 4.0938046144 2.0833821911 6.6100888559 6.9096414107 1.3607003738 7.0451745004 2.6580549937 4.1209609611 6.7514169394 8.6319139574 -0.4636297874 2.3212180039 4.9477145151 2.1306710371 2.9439526358 1.6440960410 2.8239081867
4.9449214063 6.3684578070 3.0824156645 3.0753480743 8.1602162831 5.6330258686 1.8146600071 3.4322063790 2.1093478906 6.1134916115 1.6495512411 -0.0900932846 7.7114369186 6.3459705904 3.3263763273 1.9775411854 6.3499933024 3.0062266282 2.8124521760 1.7885065436 4.6952359377 7.2666362853 3.5640701127 2.4821165358 6.3399019788 7.8092092612 0.6443684317 2.9054840924 6.8076554877 4.1915715162 2.0553540818 2.9076871562 0.2540248010 6.8430352733 2.8568785958 1.1993591820 6.5812504214 6.7831636242 4.7832900295 4.8539308903 7.6741399461 1.0558319209 -0.1597222733 3.6415801377 2.3253495056 4.3382164244 1.6088237476 4.8736076807 9.4451743809 6.6356964026 3.7980097515 2.0399255805 7.4786577909 1.9734192543 2.1235426179 0.4205666736 5.1832504452 6.4966391980 4.8951706956 2.7543314364 7.3818626746 7.5417402199 1.8166259814 7.0558347712 2.5326640136 3.6463159343 6.7415521704 9.1973521792 0.1570115084 2.7403572373 5.1060717913 2.4711968932 2.4753952799 1.9605092918 3.1576411205
4.8450388295 4.7219082942 3.0530369153 3.0699099907 6.8008837682 5.8611277551 1.3664660153 2.4572088203 2.1553632941 6.0912132895 1.2131968995 -0.5950538987 7.8794816852 5.3496962709 3.2874035396 1.6328194456 5.6727818391 3.1537633515 2.9392550994 1.5499031094 4.7342172539 7.5531389462 2.3137591015 2.2168835018 6.4395911238 6.6477949344 0.5863688215 2.7395497637 5.9789472414 4.2069234181 2.0568329759 2.3272418714 0.3819709841 7.0030543810 2.4373886828 0.7273568243 6.5798951063 6.1876404568 4.3303336468 4.9681364498 6.2442745286 0.9720796904 -0.4036551216 2.6448903958 2.3076177320 4.3118583560 2.2316321216 4.4713121021 9.7316264211 5.4443219316 3.8569313813 1.7370763726 6.6837048171 1.9859549546 3.2702458837 0.2171993192 5.4248173725 7.1000007214 3.5997408923 2.9948460594 7.4010158649 5.8590844461 1.5004776927 6.8448210315 1.0901076851 2.8587595560 6.6887650271 8.1476212698 0.4191042124 1.8674784079 4.2414007304 2.5201889360 2.1617666917 1.3092850714 3.4017652227
4.5732902303 5.5419904490 2.3377790643 2.5507901318 7.7805867613 5.4721814402 1.9578594464 3.1276205159 1.8274718958 6.1391097039 1.5528926568 0.0026759266 7.2637375412 5.8495759027 2.7381731836 1.5591983331 6.2369316111 2.8150492708 2.8730179998 1.5970062327 4.3689798237 7.1522338989 2.9483552089 2.5346727818 5.8732749305 7.5146835276 0.0983126698 2.6488264301 6.7259344169 3.8341013789 2.1748957501 3.0149052019 -0.0867827703 6.8614506810 1.7210700729 1.7194173948 5.8927876685 6.2650431549 4.1307039923 4.4352341970 7.8102565206 0.5483425361 0.0792923986 3.0014526328 2.3506221051 4.3186782219 1.4658261198 4.9311873461 8.8545884411 6.2146358410 3.6929463106 1.2843340102 7.2147275798 1.6676571827 1.9959592808 0.3780932218 4.9612689816 6.2573770865 4.1393297593 2.0853205946 6.5836006522 7.0566205750 1.4534136025 6.9534858238 2.6995420453 4.0688437025 6.6617709596 8.7259545665 -0.4597620644 2.3127212804 5.0327111380 2.1325199264 2.8572200351 1.6601389041 2.7796879392
4.6593469207 4.4351343745 2.3839740169 2.8050202295 7.1059641755 5.2724358637 1.8821140763 2.8610520950 2.4276112762 6.8473767332 1.0119643182 0.0157824836 7.7886396635 5.2712056255 2.7490972767 1.1661329315 6.1221326457 2.5795904555 3.7346031789 2.1375661117 4.9364069778 8.5455151295 2.1715954735 2.6149784610 5.9228835519 5.9613511405 0.2247667213 1.8811304948 6.1865357449 3.9666537667 3.2455367050 2.3108890264 1.1494191734 7.9228553696 2.0503353678 1.1919210969 6.3557082308 5.8951587486 3.9293206803 4.3514705701 5.7312842452 0.2427777851 0.3345831063 1.7692750938 2.5390957843 5.2917944934 2.2896173982 4.8741946994 9.3632890779 6.4347660539 2.4297890951 1.9125979848 7.1668159847 1.6961318404 3.4426053093 0.6516085535 4.5398345992 8.4730618068 3.5990997111 3.1951521003 6.5284553828 4.9664290011 1.2774249627 7.8321041384 1.1744077324 3.5496525239 6.1487082696 7.4449114961 0.6857893552 1.4652139941 4.6749812062 2.0625993253 3.1154486610 3.0655789624 3.8325934257
4.3566490117 4.3491327596 3.2884577127 3.3105801688 6.5030215539 5.8319763105 1.1070493003 2.1369886001 2.0838477570 5.6788454236 0.9309808967 -0.5517064046 7.7987424870 5.0536007566 2.9682260109 1.5261241929 5.4404141964 3.2318097636 2.6995449480 1.3096624543 4.7652358782 7.4006756443 1.8274236397 2.1736304540 6.0225228221 5.9514837733 0.3508642844 2.6922345428 5.6564250034 4.2793424419 1.8026092288 2.2207071100 0.3461902254 6.5117577365 1.8902601528 0.8233247923 6.5139724499 5.1633252551 4.4446941068 4.7304452669 5.2690078167 1.0309726987 -0.7560850099 1.8674731082 1.8790141782 4.0042305989 2.1012784782 4.4422355655 9.5596000247 5.2526602221 3.5142401554 2.0924782573 5.9664725036 1.8822667464 3.2232284887 0.0941631365 5.5628897370 7.7251135512 3.2134065310 2.7038628733 7.1681033770 6.0932126165 1.3834170015 6.5217884684 1.0744003500 3.1842099708 5.3604629963 7.2955899433 -0.2545675604 1.3885831380 3.8818064124 3.0404695404 1.8408450113 1.0083345593 3.5221503002
4.8007349130 3.7959636507 2.5158279210 2.7936336613 6.2949092115 4.8534436033 1.9726496962 2.2891378197 2.5052729919 6.9471167027 1.3048315512 -0.1402992829 7.8939399892 5.1535012336 2.7084894490 1.2077321103 5.4200380999 2.1738467108 3.6838360971 1.8735646186 4.9363236259 8.5021772502 1.8481099850 2.7032303765 6.0330846940 5.6935843608 0.1668452497 1.4650564075 5.6583540086 3.6809319836 3.4862428353 1.9530270256 1.2856843946 8.2850162954 1.7085885275 1.1690090499 6.2834391048 5.2567876059 3.8227133083 4.4548013133 5.4956738213 0.3538867705 0.3640027579 1.4342820879 3.1730264785 5.2488441393 2.0775122926 4.7641024287 9.3443403912 5.8769944262 1.8019549262 1.9889234334 6.4737335648 1.3285019490 3.1571293367 0.5972566918 4.2231597601 8.0299104738 3.2467525208 3.1416944762 6.8301152419 4.7826432948 1.1267847287 7.6213850936 0.7669535504 3.3559972400 6.3560964231 7.2043426190 0.3924709881 1.7162590034 3.9962778422 1.8041950016 2.9108179964 2.9707407527 4.0803364174
5.0056402539 5.0255450783 3.0935058425 3.0496387371 6.9779882374 5.8633001385 1.3943001042 2.6321669013 2.2092079917 6.3047675896 1.2901262077 -0.5977853089 7.8913920764 5.3340529055 3.2761706079 1.6089827206 5.7676421471 3.1434876758 2.9149698551 1.6082910019 4.7758292119 7.3987306727 2.4418545418 2.1693484627 6.5071255213 6.7940455708 0.5115752456 2.7288598023 5.9960095978 4.2058158127 1.9847050785 2.4033393532 0.3897176539 6.9830119439 2.5716213238 0.7164486606 6.7815856773 6.2687292662 4.3655623200 5.0061115333 6.5986538219 0.9513725237 -0.4992912364 2.8028850744 2.2860934686 4.3570840071 2.2484304769 4.5968268779 9.6963193792 5.6262157664 3.7528966465 1.7781677001 6.7680823000 1.9483007747 3.0262920892 0.1833565392 5.3671157411 6.8943917974 3.6414446508 3.1027093957 7.3976906770 6.0898709918 1.5347658348 6.9305141799 1.1654320653 2.9202034807 6.8372830596 8.3409837328 0.3636504736 2.0056723944 4.3302123815 2.6631603271 2.2541617416 1.4408412689 3.3753765349
4.8034280166 3.7639951539 2.5209909996 2.7996167413 6.2555815294 4.8329845354 1.9718783023 2.2685867568 2.5079961170 6.9420092052 1.3288910184 -0.1489195983 7.8809511502 5.1458130103 2.6964779412 1.2073698472 5.3913957422 2.1464094834 3.6883729278 1.8566502535 4.9317454251 8.4889490099 1.8347150659 2.6876726949 6.0239129662 5.6922201375 0.1552371902 1.4679717475 5.6279766982 3.6635019347 3.4828006959 1.9451332978 1.2755083235 8.2961906486 1.6860577598 1.1482577161 6.2743926424 5.2469971362 3.8255896693 4.4448808498 5.4960222617 0.3451606711 0.3648286338 1.4302394648 3.1769719495 5.2443392784 2.0699917996 4.7427470165 9.3348192818 5.8474736215 1.7619168634 1.9963042654 6.4406593526 1.3262275745 3.1399620375 0.5721292201 4.2253029307 8.0147938797 3.2219130245 3.1470292550 6.8190553243 4.7577250903 1.1085711369 7.6066162886 0.7502668683 3.3497265162 6.3774697677 7.1977570107 0.3674919977 1.7167038424 3.9629565356 1.8123631517 2.9199196972 2.9661783142 4.0922676908
4.3013886444 5.3316496560 2.4244791703 2.6180750115 7.7592221792 5.5515039892 1.9347386247 2.8341538888 1.8337239264 6.3365120778 1.1976929958 0.3222412753 7.1737900311 5.6380068315 2.9277141806 1.5621919637 6.0478631923 2.8726135394 3.2091568164 1.8679539638 4.5921635365 7.4205136522 2.5559621475 2.9878556126 5.8344279054 7.0367734104 0.2099258234 2.3716445440 6.5486600743 4.0707902166 2.5419686697 3.2552327849 0.0778539960 6.9165179770 1.3196472819 2.1632627859 5.6966583555 5.9391501565 4.1455287830 4.4556920429 7.4509600057 0.8860370895 0.0987028677 2.7929408225 2.3013131893 4.6370829946 1.5960509114 5.1319828959 8.8976437572 5.8671666418 3.4906276801 1.6287797181 7.1508974653 1.7561737792 2.3258922363 0.6649609185 5.0369573659 6.6082736307 3.8305223401 2.5975861352 6.8714533335 6.3893175621 1.1803617936 7.3451089652 2.4671809144 4.5327368331 6.5623824662 8.2788729273 -0.3541157008 2.1970175344 4.7312680611 2.3523494065 3.1134764924 2.0606600062 3.0585449337