-28927.1016054776
-28927.6162410554
-28927.5694200839
-28926.6832588289
-28926.8253542896
-28927.1073017697
-28926.2672126294
-28927.0920394566
-28927.2166003187
-28927.255446454
-28926.5630501533
-28927.3073867006
-28926.911836241
-28927.3027132839
-28925.9286154309
-28927.1499389931
-28926.4139298053
-28925.7772283758
-28927.0003604057
-28925.9517529867
-28926.6594779964
-28926.8944259983
-28927.239787127
-28926.6638693673
-28927.6962268364
-28926.8509025006
-28927.165870706
-28927.1241424784
-28927.1850354017
-28926.7085516612
-28926.2287488138
-28927.11384556
-28927.1263680963
-28926.7803887254
-28926.0203124413
-28926.911328885
-28927.1890617321
-28927.1908408114
-28926.8607234922
-28926.1170054593
-28927.4814775622
-28927.0823464945
-28927.0647732557
-28927.4351589126
-28927.0684149534
-28927.136603381
-28927.3313688973
-28927.2404886361
-28925.9983483759
-28926.7419991968
-28927.4296461611
-28926.6951239386
-28926.747432355
-28926.130495768
-28927.1055235067
-28926.8307331611
-28926.49147391
-28927.0327545891
-28927.1998578431
-28926.1744501578
-28926.8478961885
-28926.7066214226
-28926.4890233901
-28926.7379100082
-28927.153140819
-28926.250600088
-28927.1218526416
-28927.0624820584
-28926.905314628
-28926.7461867545
-28925.679652349
-28927.0621767468
-28927.2564557238
-28926.0481975648
-28927.2032090593
-28927.0289556098
-28927.1910572779
-28926.5973268193
-28927.2030772202
-28926.1982146635
-28927.1232145707
-28927.3071170359
-28926.4201471951
-28926.3851182707
-28925.6104704342
-28927.4449144608
-28927.7565413821
-28927.0198781689
-28926.8454639002
-28927.0431166788
-28926.1214814575
-28927.3453577183
-28926.9003575328
-28926.1677173846
-28925.7227438662
-28926.6959049049
-28925.8724557894
-28926.5184648679
-28926.6307698651
-28926.7511487478
-28926.2279800926
-28927.2947985848
-28927.6823657727
-28926.5849297273
-28927.1200806372
-28927.5189742857
-28927.291465056
-28927.0463731995
-28927.0554148574
-28927.0697492629
-28926.9551289863
-28926.566816479
-28927.4754313319
-28927.3327780381
-28927.1624733665
-28927.2503922142
-28926.4991884695
-28926.6967221984
-28927.5653334803
-28925.863896453
-28927.1916638193
-28926.4434031203
-28926.4143925346
-28926.0188736402
-28926.246145995
-28927.1727105559
-28926.0079043288
-28926.7795572819
-28927.1945387005
-28927.5097002427
-28926.7454286457
-28927.2841691435
-28926.9744815765
-28927.1590021481
-28927.0505987171
-28926.7431971773
-28926.8487944358
-28927.7139086485
-28927.258617531
-28925.9913198152
-28925.7487323571
-28926.7456290575
-28926.8652646617
-28926.6067038574
-28925.6692905314
-28926.7506943179
-28927.1766677694
-28927.1773355364
-28927.1760503434
-28927.1661251323
-28926.5472719125
-28926.4421635063
-28927.1665870453
-28926.3984966047
-28927.1264565333
-28927.1705600414
-28927.4233572054
-28927.1867147514
-28926.6978926955
-28926.9833728916
-28927.3681713227
-28926.77057304
-28927.0067184783
-28926.0702707478
-28927.2493890671
-28927.0572331212
-28926.56575646
-28927.1831330548
-28926.6580366101
-28927.2976296558
-28926.5974861419
-28927.4989792351
-28926.9619508767
-28927.0192743486
-28927.5207771751
-28927.0796547458
-28927.0248845167
-28926.4707117709
-28926.1436365467
-28926.6016270321
-28927.1722909566
-28926.4203164498
-28925.9238478629
-28926.1686070603
-28926.7670328408
-28926.0568284671
-28927.2578425512
-28926.6007116416
-28927.0140069077
-28927.4451426281
-28926.3106593911
-28925.6182492125
-28926.3705618205
-28927.3021730021
-28925.9413216441
-28927.1798653775
-28926.7093535802
-28927.0173114564
-28927.26478009
-28927.0278286509
-28927.1571666051
-28927.1593987538
-28926.0020595986
-28927.3042552162
-28927.4831365034
-28926.2648138111
-28927.131302334
-28926.8970789709
-28927.1467310447
-28926.2784190879
-28926.9618069286
-28926.9318269378
-28927.1398808545
-28927.3361087097
-28927.7465764423
-28927.3392102617
-28927.7489314503
-28926.4000615306
-28927.1731624007
-28927.4447981322
-28926.2128526118
-28926.0158700492
-28927.1337392483
-28926.4660335921
-28926.4087565157
-28927.4970551191
-28927.2807841851
-28927.711440033
-28927.0401924089
-28926.6309812974
-28927.3011566575
-28926.3101577494
-28927.0095307734
-28926.5759854861
-28927.2641510992
-28926.3909971511
-28927.0173794849
-28926.7733407084
-28925.8028402614
-28926.010360291
-28926.092928431
-28927.1558542007
-28926.0905317896
-28927.1367081448
-28925.7796542695
-28926.7576245096
-28926.1838067873
-28927.2186434844
-28927.1315567604
-28927.694708442
-28926.7741305184
-28927.220047455
-28926.189511515
-28927.2015725675
-28927.1291640646
-28927.2539758156
-28926.035602238
-28926.8084314026
-28926.2456092507
-28925.9725196157
-28927.332411637
-28926.6863048696
-28926.6442555479
-28927.1844168873
-28926.5089301399
-28927.0942488837
-28927.0685812148
-28925.6184569713
-28926.9684973881
-28926.5439749829
-28926.4888418903
-28927.3030704331
-28927.5080385804
-28927.4836997787
-28927.1291073289
-28927.1978886923
-28927.0895407725
-28926.143754372
-28926.8690198307
-28926.7609440246
-28926.1609571279
-28926.6433834235
-28927.0750565685
-28927.0552934947
-28925.6048296533
-28926.7534604897
-28925.8791149558
-28926.4588428516
-28927.4105361603
-28927.3928264565
-28927.4556886667
-28927.1445552236
-28927.068830607
-28927.5950121052
-28927.7053909455
-28927.150079948
-28926.4308812642
-28926.894975668
-28926.3738026947
-28927.1376956454
-28926.212113687
-28927.1840778336
-28927.0903671818
-28927.1814145208
-28926.6720723708
-28927.0176506462
-28926.7485832599
-28926.6578710289
-28926.7588420824
-28926.8989594126
-28926.6453063149
-28926.306978373
-28927.2148548454
-28927.2541393559
-28926.2364330325
-28927.4208181124
-28927.1173169144
-28927.2512424335
-28926.3893235158
-28926.6407350769
-28926.0796563574
-28926.2763500713
-28927.1487004676
-28927.2604002839
-28927.1804825313
-28926.8418475091
-28927.0200583082
-28926.1667843067
-28926.7288838607
-28927.0214594216
-28927.4015878373
-28926.3255370715
-28926.9951687484
-28926.8701312791
-28927.4116930517
-28927.1793123064
-28926.5235999255
-28927.2466237116
-28927.2418241702
-28927.0740546458
-28926.458762442
-28927.1250695698
-28927.3249291905
-28927.0947627705
-28926.1079263857
-28926.9573167804
-28927.1088528178
-28927.1226091177
-28926.2596726309
-28925.8195194706
-28925.6386012763
-28927.3129986375
-28927.0949369232
-28927.7250702082
-28926.4229604426
-28926.6887476343
-28927.4745217918
-28927.0073691022
-28927.1066069274
-28926.7223385738
-28926.7528323153
-28926.7635169957
-28927.1569323152
-28926.7104799949
-28925.8735355365
-28926.2685940146
-28927.0295817434
-28927.7220795426
-28927.0960585759
-28926.3266883846
-28927.7362656461
-28926.5881418935
-28925.9957672415
-28927.1428992757
-28927.561410145
-28926.7304264733
-28926.6984754269
-28926.6363792168
-28927.0272395247
-28927.6173163127
-28927.0374609316
-28927.0516034969
-28926.7420134828
-28927.0155413568
-28927.0541737469
-28927.2734709934
-28927.7400447612
-28926.1632209778
-28927.0570276753
-28926.9173827345
-28926.6512834284
-28926.1489220832
-28927.0766487057
-28926.5193233866
-28927.145767218
-28926.1020264165
-28926.7335571414
-28927.2158881971
-28927.1819534419
-28926.3389352698
-28927.4643228343
-28926.0286278278
-28927.3076994953
-28926.6644342753
-28926.805179916
-28926.1775774245
-28926.8523247029
-28927.1420853836
-28927.3646237764
-28927.0908503197
-28927.0928276339
-28925.8365434479
-28926.396721471
-28926.2854479208
-28926.3733396932
-28925.871370872
-28926.9335998946
-28927.3548502686
-28926.5025117941
-28927.0196614303
-28926.8624705982
-28927.7620490994
-28927.1448848893
-28926.1386710159
-28926.4655407942
-28926.2731202178
-28926.6645002629
-28926.680693477
-28927.0465956525
-28926.0296685267
-28925.8024923641
-28927.1439149401
-28927.080298975
-28927.4471876986
-28927.6740112019
-28927.4097311119
-28927.1008173003
-28927.1523266548
-28927.0642962404
-28926.4345084038
-28927.1135135812
-28927.0410083419
-28927.7109657389
-28927.6497989331
-28927.1031421037
-28926.7953668157
-28927.1083968913
-28927.1593606579
-28927.2175717646
-28926.9431231938
-28926.947220954
-28927.5336704663
-28926.8665261808
-28926.9257522716
-28926.7407331878
-28927.6876167508
-28926.1945177268
-28927.1455704798
-28926.5302977321
-28927.0906558945
-28927.1349768214
-28926.1597765626
-28926.7983538078
-28926.7227641597
-28926.6852979129
-28927.0466300748
-28926.4120281387
-28926.3191517875
-28926.9849526477
-28926.5101981897
-28927.1653788605
-28927.1713035921
-28926.6573706118
-28927.7039532328
-28926.456496143
-28926.8296834825
-28926.3622188145
-28926.6466022564
-28927.0733602117
-28927.1659686669
-28926.5392329936
-28927.3669151098
-28927.1482416839
-28927.164095028
-28926.8855821671
-28926.6206490042
-28927.1973852819
-28927.6712274787
-28927.5107106009
-28926.6847466105
-28925.6632641654
-28926.8201838572
-28927.7307987458
-28927.1816101705
-28927.1422762714
-28927.1630063011
-28927.3005615448
-28927.4585239553
-28926.2934935065
-28927.2277109932
-28926.5629706961
-28926.7363984166
-28926.7163324803
-28927.4314520437
-28927.006114658
-28926.5479330127
-28926.8976573485
-28926.7099719586
-28926.1620910257
-28927.0628649224
-28927.0546860009
-28926.6286796237
-28927.1141844776
-28927.0898297573
-28926.6721971349
-28927.4225652185
-28927.2315341906
-28927.162852829
-28927.4368536367
-28927.4731391821
-28926.8036485962
-28926.6242749192
-28926.7929269083
-28927.2141410911
-28926.7411255758
-28927.1360684055
-28927.1546686013
-28927.1681756451
-28925.9697737164
-28927.1998261418
-28926.97977895
-28926.2859388139
-28927.2218496641
-28926.1422855022
-28927.3890945532
-28927.5237187241
-28926.6273753827
-28927.1653815816
-28926.2531293849
-28926.1407037053
-28927.1231583792
-28927.078020567
-28926.4420377898
-28926.6193964648
-28927.2307762179
-28927.4830160931
-28926.0508623742
-28927.1121636252
-28926.515310798
-28927.2078118626
-28927.4423228499
-28926.2292384824
-28927.1933657544
-28926.9263726909
-28926.6368944641
-28926.8577193569
-28927.0842997266
-28927.1050890772
-28926.7523095848
-28927.0622593333
-28927.4554890713
-28927.1964610478
-28926.1914099162
-28927.3116259599
-28927.2025217001
-28927.5151138087
-28927.1750122297
-28926.5819983825
-28926.7546040476
-28927.0859022042
-28926.9927628551
-28926.3399824993
-28927.1730595418
-28927.2117662188
-28926.2167993489
-28927.3056492546
-28927.1535168801
-28926.240081533
-28926.3876091995
-28927.3933855141
-28927.2289227155
-28927.7038092846
-28927.1579619934
-28927.1987715652
-28926.6272051756
-28927.110653122
-28926.8174673462
-28927.099622449
-28926.2161435548
-28926.7915584485
-28927.1158382486
-28927.0634989473
-28927.3052382269
-28925.8602018292
-28926.8214008858
-28927.1812271705
-28926.7740585444
-28927.1842585171
-28926.9409812509
-28926.6172558824
-28925.8175237887
-28926.7622186052
-28927.2033746405
-28925.9157825489
-28927.0748728917
-28927.1602685652
-28926.8921326241
-28927.1684801403
-28926.3381279084
-28927.1126494842
-28926.3429150687
-28927.0738762753
-28926.2783592228
-28927.1037599378
-28927.1359279948
-28925.8430537681
-28926.4656787559
-28926.3668003928
-28926.5517985239
-28926.7233252581
-28925.9017886937
-28926.8765301688
-28927.1502917885
-28927.0930582503
-28927.2374849091
-28926.1618114289
-28926.4305081963
-28926.4577116749
-28926.8092768599
-28926.213700382
-28926.5824401591
-28927.7146345118
-28926.9057781737
-28926.6405571145
-28927.0546247753
-28926.4099472852
-28927.0652019709
-28927.6761739616
-28926.2811398167
-28927.1007313123
-28926.045180232
-28926.3797432088
-28927.7094491132
-28925.6381193629
-28927.1751791714
-28926.1861881904
-28927.0875754313
-28927.2845060202
-28927.163242904
-28927.1333275402
-28926.1833025607
-28927.1762692589
-28926.25516153
-28926.7964763594
-28926.7241852735
-28926.8880960895
-28927.3296243763
-28927.6740056236
-28926.3188698777
-28927.7089878804
-28927.305075639
-28927.7035866956
-28926.1339786873
-28927.0496463191
-28927.1689698089
-28926.7617965569
-28926.9601820016
-28926.6567820299
-28927.1354945177
-28926.2047074324
-28926.759185898
-28926.8161850104
-28927.2170146118
-28926.0865204255
-28926.1668741042
-28927.2003681923
-28926.6208189392
-28926.8720285919
-28926.7578163498
-28927.0382578166
-28927.1945735311
-28927.5394151947
-28926.6148581525
-28926.0549899309
-28927.5075593882
-28927.7073811851
-28926.4975824544
-28927.1933593598
-28927.1231415081
-28926.470841433
-28927.0706310473
-28927.2646425365
-28926.691788777
-28926.1285520599
-28926.0305516717
-28927.4144505158
-28926.6804213633
-28927.7104840976
-28926.0417424836
-28926.5728831178
-28926.1102847951
-28926.5960546878
-28927.1057847358
-28926.6336674678
-28927.24316882
-28926.7454381697
-28926.7541081203
-28927.1077444987
-28926.5730748219
-28926.9148482675
-28927.1906223041
-28926.8626852959
-28927.157989613
-28927.4626355933
-28927.2688162164
-28926.657976609
-28927.1152968784
-28927.4986445352
-28927.0170096823
-28927.4112760374
-28927.5652242267
-28926.3370968696
-28927.3817700687
-28927.5529435994
-28926.4001533689
-28927.6866858498
-28927.1739256797
-28927.2501043179
-28926.2102626336
-28927.1505376433
-28926.8555372772
-28927.0565063055
-28927.0825542533
-28926.9251704925
-28927.4277038136
-28926.8368951758
-28926.9748534199
-28925.998982673
-28926.263073644
-28926.799352329
-28927.1809045797
-28926.3832941565
-28925.6994713421
-28925.8260821728
-28927.096018167
-28926.2313691326
-28927.2366179548
-28926.2092382615
-28926.7889793548
-28926.9829606394
-28927.1608756509
-28927.2378299492
-28925.6030420023
-28925.9117544498
-28927.1096015387
-28927.2864182992
-28927.1416577569
-28926.6118883036
-28927.2714686447
-28927.0670773785
-28927.2388579948
-28927.3078288854
-28925.7887857249
-28926.8376610398
-28926.6004769435
-28927.1376929243
-28925.6277929202
-28926.7570410978
-28927.1714502613
-28927.1169076554
-28927.1781714697
-28927.331071613
-28927.0842745561
-28927.0527552182
-28925.7826003084
-28926.4401682326
-28927.7611930297
-28927.1890456774
-28927.590443044
-28927.3820376926
-28926.7938701904
-28926.9606130297
-28926.2997982449
-28926.5162851011
-28927.2013624958
-28925.6069077856
-28927.3254395398
-28927.2614211185
-28926.0057368071
-28927.1878418463
-28926.9118837248
-28926.7343381077
-28926.6270412271
-28927.1947929908
-28927.1871187042
-28926.6484790246
-28927.5531535351
-28926.9873613982
-28926.8288359844
-28927.397015783
-28926.1027974506
-28927.7645495522
-28926.0100883133
-28927.0667973735
-28926.9991678674
-28927.1012851998
-28926.894820019
-28927.4042258436
-28927.0463255796
-28926.7297082292
-28927.7031217894
-28925.9859353653
-28926.196909198
-28927.4437392017
-28927.7053415569
-28926.0028679124
-28927.326921471
-28926.2128145158
-28927.1050139738
-28925.8518837216
-28927.342205009
-28927.0617431336
-28926.3991476367
-28927.231408202
-28926.2041621165
-28926.129997936
-28927.6787195852
-28927.0614182299
-28927.6387477155
-28927.1171793609
-28926.6701425404
-28927.1798430642
-28927.4546086474
-28927.764831462
-28925.8698385998
-28927.177638535
-28927.1758480269
-28927.5688701421
-28926.325880615
-28926.6978490212
-28926.4391705278
-28927.0434116501
-28926.6237436172
-28926.1445791486
-28927.1589188813
-28926.2837794556
-28926.1843473412
-28926.4993694251
-28927.1244639807
-28926.9804556967
-28927.1267798044
-28925.7959795948
-28927.1420165388
-28927.1045055293
-28927.490123975
-28926.8576496958
-28926.1872471208
-28925.9364757073
-28927.4647793051
-28927.1757970056
-28927.5232626616
-28926.1942009864
-28927.2154314543
-28927.1622149945
-28926.2003423205
-28927.095553805
-28927.1095467077
-28926.6757233203
-28926.7524791117
-28926.6035331886
-28927.1908946899
-28927.210673002
-28927.1171691567
-28927.2084307852
-28927.5337191747
-28926.7876823249
-28925.7601992284
-28926.4286979599
-28926.8275638529
-28926.7679664629
-28926.8367093222
-28927.0025779962
-28927.2062785019
-28927.1546261516
-28927.027532183
-28926.6958738839
-28926.1045223794
-28927.1766457282
-28926.6118869431
-28926.7651586577
-28927.1082134867
-28927.1441856932
-28926.6658276335
-28927.1160861442
-28927.4141597623
-28926.116710352
-28927.2928970543
-28927.1352626768
-28926.5202704783
-28927.1667716744
-28927.7077954782
-28927.1774045172
-28927.1859931059
-28926.4794406341
-28926.6422151033
-28927.0575060512
-28925.8452453718
-28927.0483405816
-28927.4426459849
-28927.6356443948
-28926.0775836674
-28926.3143100684
-28926.8537304422
-28927.004518303
-28926.066011216
-28927.2748527867
-28925.7759716187
-28927.1049003663
-28927.0921640846
-28927.1970405139
-28926.7738794936
-28926.8834947829
-28926.5690188312
-28926.6630322095
-28926.7139619618
-28927.6668361079
-28926.193537029
-28927.1260539411
-28927.5079153129
-28926.1243277668
-28927.0188317557
-28927.3050650265
-28926.0273473968
-28925.6497039234
-28927.1228473532
-28927.0926692637
-28927.6599403386
-28926.528785052
-28927.1502811761
-28926.1160869395
-28926.3789064592
-28927.1187623824
-28926.4028297432
-28926.6817280533
-28926.3028098632
-28927.351816473
-28927.1581526091
-28926.6318951913
-28926.4812900549
-28927.1763764717
-28926.0937164723
-28926.9906309803
-28926.9518179068
-28927.2806678565
-28927.3251987191
-28926.310101694
-28926.2985930533
-28927.7550804036
-28926.0697499222
-28927.6580466993
-28926.7884061473
-28927.5301747577
-28926.0686641885
-28927.0981271842
-28926.0163684254
-28925.9498222039
-28926.4522352507
-28927.3651897729
-28927.3584210807
-28927.3216624656
-28926.6539211625
-28926.9643792194
-28926.9337705099
-28926.8045691568
-28926.601808668
-28927.0964725969
-28926.4498656846
-28926.0213696031
-28927.0749960232
-28927.1043821258
-28926.8137674162
-28927.4771053754
-28927.1660647231
-28926.0076924883
-28926.4570184653
-28927.1490083643
-28927.292855693
-28925.816708264
-28927.1610031361
-28926.1609852917
-28927.0102392214
-28927.2437329117
-28927.0115823746
-28925.9971634568
-28925.9827425192
-28927.4582112967
-28925.7101203756
-28926.8793336202
-28927.1769333524
-28926.8173559156