0.292342762948802 0.0102905779729021 -0.111153874406482 -0.655509096965353 -0.297877316752637 -0.335232855271599 0.589828243782222 -1.71745205801901 0.0902551873844105 0.158250032216455 -0.168047472857955 0.0615845737441874 0.551879294960405 0.0130794521302095 -0.09835750058799 -0.645967738066333 -0.164091318468863 0.632890857037955 -0.0568614596785715 0.16414634004807 -0.512274556558699 -0.512907561829768 0.0332726288095459 0.795708451659183 0.435439492297254 0.0769551347170046 1.85699552463547 -0.776652473320196 -0.122580879389184 -0.6670885682867 -1.1034693409647 -0.204378170186632 0.027755044277803 0.921000815040527 -0.309983606839386 0.0391352552071602 0.429399716983406 -0.192005771060258 -0.996090101157958 0.00488355081994061 0.388676035064359 0.206039873300736 -0.622417730834972 -0.0557402021695812 0.100575847248749 0.256896524650376 -0.598250916274085 -0.449569496636071 -0.287897070770872 -0.335278363774028 0.230108471771636 0.514969585499133 1.1343181920771 -0.444106676573352 0.243406981777943 1.82154054459081 0.288414376459496 -0.566219615429089 0.446941059233088 -0.137747551986714 0.803044833626972 0.382836548583234 0.288249311721873 0.785640016884576 0.278765288393709 -0.466161588089331 -0.0801312168102302 -0.169284687059575 -0.641597379172084 0.33352024434122 -0.2186835236704 0.0509556387701775 -1.01246879115915 -0.197167515098434 0.190711478397965
-0.464626126075185 -0.29714686672213 0.376800115701767 0.184167510014837 0.202781001728516 -0.229588080760814 -0.205230490443982 -0.574673655363304 -0.319366328755365 0.734070913217253 0.173060350100052 -0.103630830445681 0.25562511479439 0.854905243131875 -0.232040911908662 0.364197088741051 -0.216292913186889 -0.823413616561442 0.700317231254917 0.571444351462153 -0.40578363243496 0.237312956215437 -0.450762487886177 -1.08894904336776 -0.597679360336803 0.236076513344367 -0.621524015838125 -0.723183839619298 0.119108092144531 0.275283759402827 -0.229371851096732 0.175305950440231 0.00219032165078836 -0.511510682204374 -0.00664758378696244 -0.269813740254978 -0.314102511974453 0.020921826938561 1.42970385404422 0.906391043099836 -0.099066096252924 0.111097310166176 0.487620003980257 0.26200684665191 0.673673931409325 -0.647479803053806 0.305004153921107 0.0369631883793799 -0.214263542510791 -0.310434835210924 0.320843683868104 -0.581609973886014 -0.290424463871852 0.378691932429846 -0.559052669072037 -0.55867754531473 -0.0925396113622547 -0.0843856190118495 -0.138426579980579 0.158360589595237 0.788275139152322 0.481735266106886 -0.500008086827807 -0.207349078353654 -0.385835995980592 1.01273310042749 0.680564484319424 -0.135729237048495 -0.320572946845182 -0.0270451630619529 0.109110619780492 -0.302657509278926 0.0283494830213906 -0.0473424693654904 0.533546567566795
0.136664603895022 0.229477523382032 0.127982250118115 -0.249011726661795 -0.112328610833581 -0.375169522919833 -0.742841198676819 0.106584512230428 0.769205019753259 0.28981922650057 -0.273514327121958 0.58800019037958 -0.264641711809473 -0.512987008876381 -0.619509043332288 0.181036165093491 -0.878472219635327 0.249310488694688 -0.740886389953854 0.81386891523004 -0.599028674578303 0.522075853852947 -0.237859058244581 -0.619920676735611 0.0594112213654911 0.519182592961255 0.903007473088758 -0.158439522421483 0.129113277814068 0.239517418926302 -0.342062730178459 0.0195442305769078 0.435773735535431 0.161130951819353 0.541271700131602 1.77176555578195 0.210681483438273 0.208005737761579 0.320431022024048 0.46599986578409 -0.163299419104568 -0.383184675771303 0.450761459445444 0.272553249257109 -0.358987522208797 0.80331197110733 -0.108345974095617 0.0862432400855607 -0.0152872572734563 0.00828743253549257 -0.340232362784169 0.0248327299354083 -0.507048534974719 -0.19487666336601 0.268479595514288 -0.250225286726558 -0.155956866492382 -0.0995962574507085 0.135577027820033 -0.312911577605812 -0.0709850362628074 -0.240840507929114 0.247126080578113 -0.219855688995666 -0.221698397678751 -0.883913185332473 -0.258513233482417 -0.612549584893088 -0.732844497643329 -0.208235080045005 1.16546631944276 0.344508876461544 -0.203849551649947 -0.0297633319188768 -0.506336596877403
0.48148586922917 -0.11403556533993 -0.110414682629746 1.255892485099 0.232121644506191 -0.481584599539523 -0.224715842788934 0.575381993918054 0.335061105669213 0.232931027362944 -0.117815856363705 -0.0044433781862806 0.00793904823723946 0.114617919904906 0.488613220618007 0.773291786115423 -0.918370834976445 0.97248507234739 0.550718185373017 -0.157040071694257 0.371734016651746 -0.464929773201559 0.890090257484156 0.852686125140566 0.421257808811612 0.904828070296087 0.28229155455647 -1.65822235644287 0.485767782220393 0.0915502513772525 0.206371031216713 -0.23524039102856 -0.871581152504862 -0.715178199844607 -1.53523292897256 -0.84790696105501 -0.37004248875639 -0.260980719910709 -0.308687257295628 0.0150838831185351 -0.471441859921969 -0.939821023341508 0.196710630302865 0.521805631050391 0.339835898881655 -0.0716033862534338 -0.074453709744529 0.0504316482167901 -0.0191246267579047 0.0448546712327251 -0.448334853536283 -0.302985838982888 0.390404072605731 0.124695353535925 0.672742935435912 0.964681006956337 -0.350844071375903 0.228919337174277 -0.418872854752132 1.02102001874262 0.123058847219777 0.382468623911056 -0.401708693141223 -0.442722652457118 -0.0284232736439726 -0.834154137354967 -0.656456033770125 0.161408887927405 0.613761088076386 -0.551767194920524 -1.21100438954246 -0.296927808846032 0.311345776590047 -0.125517591901839 0.35224352210313
-0.930391764482369 0.140057172762513 0.0535804766305952 0.81081573180439 0.0772623813859437 1.15934683997211 -0.338097319822771 -2.02282850748541 -0.696686578357771 -0.378220649464017 0.318433790120852 -0.521044584908081 0.940509307301969 -0.249806197127922 -0.0491756649717965 -1.36549701354145 0.27595867363376 -0.772043516175926 0.749961350980527 2.06681054675631 1.16372542639222 -0.126739122382282 -0.0118836326680876 -0.646083180538595 -1.87964975998851 0.232945682643387 -1.96364174330986 0.313942846550678 -0.520353472735606 -0.602344624611196 0.814187217636857 0.0182782200347688 -0.236041289249267 0.570359346488996 0.612065960638465 0.617824971632245 0.423763347547019 1.44857162772909 1.0804988600863 1.06359463687062 0.532592945897259 -0.105842749351859 -1.0976691923416 -0.378709930142671 -0.246494103747777 -0.0347304435483615 0.400427513098275 -0.150571693704993 0.387085037250639 0.0108338517900304 -0.0698694351778479 0.304263419483272 -0.556927396297602 0.337739422447739 -0.59709649155146 -1.64678686682412 0.171470637837248 0.503752896646299 -0.703492799127776 0.15064908387014 0.185271541141553 -0.296393276775133 0.611590563909705 -0.240526833505595 -0.483045242490354 0.623834665054657 -0.515266033540377 -1.12793363200756 0.129100165194724 0.349178511609052 1.25774136442649 0.607984850700331 0.0871991757467453 0.606181222765095 -0.647506799623043
1.02664558955131 -0.523453193104417 -0.396971180905348 -0.93346988759579 0.0683046626028158 0.0158364446247985 0.689842048170468 0.472011101867601 0.758630849248273 0.158330250593617 -0.693841654180523 -0.407850284087623 -0.821218924037539 0.0177526868202822 0.429747072840927 0.178396414842447 0.0188382060138059 -1.18553942566653 0.582618617134757 1.31653166469952 0.439639644250216 0.955038860865497 0.967119439933926 -0.746250993926585 -0.221836722957319 0.623374694936889 -1.66986584819984 -0.534704077611618 0.0922048539037119 0.715811976446226 -0.204133401292214 -0.614214116219207 -0.609864840359982 0.519373625827382 0.0789320549157265 1.59094150658961 -0.579383656809576 0.933503311919608 1.3291781432812 0.28062445212852 0.0411268306863252 -0.899590735864046 -0.409599918884385 0.119673991657782 -0.215468617939509 -0.593828878233011 -0.0782679393124883 -0.221178263778112 0.914693902246322 0.270857093378455 0.219022652002057 -0.533114108238631 -0.140941374682581 0.26960419545566 -0.120935374216624 -1.34851514305044 0.566497037316776 0.179164402959703 0.0803662155176865 -0.721089677177031 1.05326960613316 -0.16234965408778 0.242672932204871 -0.416055955584854 -0.759040168659948 0.489767645340632 -0.0705484631717124 -1.07384356299384 0.397885464716852 -0.668182315006087 0.454142715464874 0.292704259866399 -0.430986086813828 -0.160273489358339 -0.684269956279884
-0.240641247537124 0.189016350960044 0.208064615993535 -0.865435962015897 0.877207751754287 -0.667248747930842 -0.168788207295791 -0.248052705678411 -0.339460003793798 -0.388189839707904 -0.459761344298619 1.56827364439685 -1.63773787392595 0.0161503761585011 -0.0750733452860714 -0.645386669052272 -0.306808038966527 -0.625804129058066 1.20143886228622 2.0269409848659 1.20053974797552 -1.15705341713786 -0.723197209348825 -1.08404106708042 -0.999424048903676 -0.19447171482745 -2.50334095756094 0.441091802565001 -0.360980383238878 -0.20719584068446 0.00888547082164514 -0.54698417418222 -0.430150992938754 0.0421668413774203 1.61332346225863 -0.655360487279456 0.699082073934763 0.821722602886453 1.13970053665247 1.47545558270617 -0.529268768338503 0.793822805575501 -0.990224646548328 -0.270464229018506 0.358208221243479 0.548878819122314 0.365582655518384 0.108212791020713 0.319392039773686 0.515128736702542 -0.332324167768915 0.109317079257611 -0.636661892095135 0.849952786782833 -1.47254483832202 -1.50984304127013 0.676394157147715 0.794765114396976 0.0731977264995353 -0.0964803391403546 0.612057990222786 -0.491743022878254 0.283942201932695 1.06329176107479 0.689238096350101 0.300564375277392 0.627313365833524 -1.55460952371001 0.386038084584597 0.669194043577028 0.445216878344464 0.194812900040573 -0.0469046107234793 0.200120168442448 -1.05204653299162
0.41255822865243 0.33861668239286 -0.196484630451822 -0.393873260307819 -0.688439769231226 0.218653698889147 0.421140309457884 0.429487905776248 0.546583596516775 -0.674727568940131 1.18239779633786 0.219933593381179 0.209275604956466 0.0628552122696242 -0.286755501557408 1.20020910427991 -0.198372333416969 0.158619756659915 1.36927061970046 0.385585570662143 -0.588664563093002 0.413394865188604 -1.4557056639827 -0.816138426817258 -1.90528930167884 -0.627821672665735 0.409117837290862 0.22204729619737 0.0163218686507039 -0.376138828310545 -0.0422246911686431 0.0720170765382229 0.653876704412136 -0.610838516623808 -0.480847721754436 -0.408123849322562 -1.00235150544973 0.821227151563402 1.44990602957997 0.571516085203269 0.597022700928878 -0.384033653596271 -0.0701990504327265 -0.0214866980110791 0.119305552765239 -0.408589218754176 -0.744279730151894 -0.0860514358888841 -0.153015011776063 0.232071508020464 -0.26131856269145 0.521484243321375 -0.348075251812886 -0.26821322936448 -0.116320760648323 0.79516646339297 -0.44582083016483 -0.030623365481723 0.807490525804901 0.699612235132548 0.286017338221405 0.452220045514809 -0.540294424325211 -0.312883809706025 0.0903282066764429 0.272645808923066 0.0830478747285942 -0.858869367936647 -0.25916089403393 0.0992818116966394 -0.119917732111468 0.356873048062056 -0.0883068064160253 -0.738993544785042 -0.187929031995238
0.367733382200957 0.750261655674519 -0.161743645385948 -0.363283319149913 0.328649806140623 -0.235080725604785 -0.536389177752394 -0.409535898448765 0.257906196339852 0.108219475885477 0.586398651048349 -0.558047111145493 0.152587694651563 -1.01320566894424 0.107400065731578 -1.30770275811818 0.664536492608132 0.459873701448683 0.0971925343478536 0.931660603236523 0.642958520482012 0.547636976937397 0.0789263984916958 1.34350252291852 0.935981854085777 0.754544854216658 -1.94904508398852 0.773748670910992 0.181464767768906 0.290316734705086 0.167632754132434 -0.714564220727095 -0.657461334586487 -0.697197456291815 0.0480091560705608 -1.49398679916122 0.164604253284372 0.738890186491391 1.76531260440368 -0.770265085038644 -0.762634311911077 0.135650304222249 -0.0532457191720523 0.574323214183585 0.130114207757314 -0.206567206286505 -1.13826920426252 0.830607045267365 -0.712493969531867 -0.0932410079420588 -0.671861818838043 0.557994403557934 -1.22987550565972 0.03938413786451 -0.607102705661729 0.24637351907185 -0.555007811669736 0.652257424478263 0.241544989831117 0.162727606057103 0.241388152619357 -0.195219648350415 0.427929303845613 -0.00981903789689018 -0.469349754361167 0.0620471149637869 0.815088131718834 -1.42055227418295 -0.137517181262555 -0.019124883868088 0.909373521225103 -0.0551925574793383 -0.298874132932952 0.411490192951365 -0.180785482664859
0.0296784855584166 -0.116483511394297 0.198934890497838 0.170567666873806 0.847505097838649 0.253663878316844 1.309512813808 0.419979199870496 -0.125284650075848 0.826056709244868 0.47427110037804 0.754417841786151 0.393101415537814 -0.242574973225066 -0.0830386187619986 -0.718801396546439 -0.815809325782746 -1.20795660543066 0.489665315487713 0.385999775167298 0.0888948174050325 -1.77973160058842 0.363677211950595 -1.51475024622693 -0.102608560357228 0.119327407130812 -2.54730808444121 0.36736545752878 -0.623998701351547 -0.193839737997113 -0.015810476496294 0.0656096336623811 0.166560347558254 0.350940744804791 -0.0931736450740571 0.235620656989531 -0.0197252361458894 0.084021036772054 1.16915019414783 -0.703879235733144 0.116174722064259 0.730315304771067 -0.962176753771846 -0.406122246546251 -0.0716098140080141 0.111395557978702 0.176225119345216 -0.327834766859839 -0.101200882104138 -0.0884641578481514 -0.2811638692929 0.116948366605545 -0.115992945164727 0.146022643233412 0.126854307744361 -0.9401948615479 0.218997969424469 -0.230231627549395 -0.00488252237920777 0.365534575914123 0.343112511056516 0.703892348352488 -0.0373910197242458 -0.048437501635793 -0.00931895859054162 1.00071859867615 -0.562499745298369 -1.05293613422554 0.43475249388771 0.506536628599942 0.966028521426555 0.970854479565456 0.103367292507888 -0.212759190828814 -0.34426127935511
0.687870784395777 -0.0837796103100173 -0.0594832122167906 0.878977698255523 0.632205144179327 -0.914831713304524 -0.258689096847735 0.351440567000956 0.429046447591672 0.0527636375785287 -0.0639546154130414 -0.039761318503283 -0.319019230008028 0.239235111945134 0.381378219624051 0.588096092477919 -0.56599078736603 0.0574206743270589 1.27420412945759 1.56953502695569 0.427966584822179 0.306877458715995 0.597845967735525 -0.773551210290285 -0.171987686415689 0.46822155487723 -1.2144008150627 -1.52716069766042 0.441392364369176 0.460669200355543 0.342433225952469 -0.63345547100029 -0.780403968003451 -0.278795370285145 0.239112984608108 0.820622171302303 -0.681012627368763 0.910811538479811 0.706530555942433 0.950000786825446 -0.746391376086619 -1.18033937221106 -0.621228853347797 0.0314954832231802 0.389558951433511 -0.00348384298253108 -0.111526684172141 0.25360834251727 0.653418019845285 0.188056558646112 -0.735168773699571 -0.195827199713347 -0.597318120529389 0.827804801380531 -0.0165062166520674 -0.927666139430132 0.62838705795862 -0.106484496369158 -0.830366904356245 0.656965111932886 0.60896829715112 0.0980726225049904 0.350968512704578 -0.496597006027126 -0.406764250673733 -0.557615680258062 -0.734784393975669 -0.563544641082945 0.803514316821518 -1.034332669809 -0.498604008117283 0.0398086267769941 0.102298742586456 0.261938198232993 -0.978693254831242
-0.391588836329974 -0.27678939663572 0.0210223570201971 -1.78515071192 0.419559853161676 -0.237145834596349 0.0104767257455481 0.357935684449274 -0.22424173161109 0.0780067153663443 -0.635773319301952 -1.58535450230839 1.56745217736148 -0.248119297215864 0.0100170127379639 -0.479671699776421 -0.924024687905291 -0.015003921851556 -1.07033478032354 0.399942860402919 1.45429978550089 -0.139353719301243 0.929200058783178 0.212105359632905 0.478365580045701 1.00281738910172 -0.816111173137837 -0.190828977751693 0.400837860950682 -0.315498363159114 -0.0821125078820667 -0.310287768186127 -0.859374846556843 0.645308250446392 0.040528021069623 1.4990873509758 -0.802030276844015 -0.361269632194992 -0.0706675051865399 0.209188444604357 -0.669539599663266 0.624247584008896 0.119048956802393 0.00505530042232665 -0.40358354059721 0.632986244915927 0.232759277760558 -0.174594012342915 0.34779063084007 0.428294143195592 -0.0979952323398434 -0.512214135665644 0.227754628044324 0.553016750410938 -0.0375141755020046 -0.0310424550803596 -0.508717951394318 0.36581688289529 -0.586040753673317 0.144966434600775 0.80803945604606 -0.839064684744145 0.671742519713032 -0.153356968319736 0.361646555723582 -0.0677469906154276 0.397543765283362 0.180718634017223 0.178029261500819 0.106794828360296 -0.0990378141327706 -0.27568973638212 -0.122661611986713 -0.00606214389978729 0.283190668867165
0.087878460850793 -0.368975995716424 0.230876716999075 -0.520491026683624 -0.509032911368754 -1.06166476783542 0.433591384300322 0.380782238219365 0.400956388745143 -0.067359268459143 0.648332380421339 -0.339372329221322 1.84979078308148 -0.752508541565614 0.111015292017731 -1.03893082832558 0.251907815765502 -0.0410301572574373 1.24148300199103 0.429667368684131 1.02183300114194 -0.663528363579755 0.00882607836932302 -0.807112316725396 -0.17215660780606 -0.273302982551357 -1.66505917332468 1.40175854823084 0.14818648253533 0.757829693917383 0.32859272767995 -0.313731244869894 -1.09500655928425 0.146221646515219 -0.814807110288583 0.44731335477838 -0.648011249802507 1.84236981186342 1.59632642226681 -1.37805761732193 -0.279968564051144 0.964579191323785 -0.277580781779649 -0.296779713380502 -0.308062479550422 -0.578664005406764 -0.567316961691041 0.412596538069728 -0.252149242227538 0.0735908479696674 -0.754363591537493 -0.0101216565825314 -0.685877923365696 0.496163518258229 -0.0916744355957442 0.343713120444501 -0.184057981076789 -0.138998650138227 0.356037439966615 -0.432146425070667 0.516778098527851 0.0367798688187493 -0.0904755308114238 -0.460922968106374 -0.653780288093431 0.554870514831901 0.686565435995606 -0.350584132980675 0.0258534573627624 -0.121155717643637 1.33121625570352 -0.168069327223529 -0.272857924824216 0.0152561469412876 -0.0737939650144054
-0.0162375365106102 -0.335810581853278 0.0100051856695361 -0.450790512896147 0.112265104618327 -0.253097978803593 -0.000597009845419717 0.138420666446365 -0.15052258566 0.0820428310224161 1.31288275697936 0.302410683503042 0.189491747688805 -0.832114482271541 -0.880403374221437 -0.151885269631027 -0.454685217951452 0.0385138198943353 0.677698219996969 1.24834424434025 0.420468480549149 0.560459575994577 0.437170615160825 -1.49479669623834 -0.789539349923179 0.297457198713267 -2.05377917423036 0.568963238194151 0.512126975313535 -0.0997073290498563 0.148347176399838 -0.763039260449637 -0.0811858827817684 -0.0694827414622961 0.103038448583559 0.623513791546008 -0.884781960641548 1.00305187358881 1.18367074885494 0.954399427839848 0.143969361310276 0.118823471171715 -0.835846179470689 -0.593264007160493 0.167765422986971 -0.0628788664064798 0.333190114865975 0.17466240365165 0.479744719068454 0.439087885797041 -0.208177744474149 -0.388160014926651 -0.459469010020306 0.759497567675883 -0.336088775071514 -1.39277151888682 0.539452131365006 0.580834529573445 -0.430764714946082 -0.35357689551327 0.158247975334989 -0.112559238667923 0.930568656288419 0.177014704717862 -0.352969858370705 0.483185624650389 0.261146555978881 -1.12329459297185 0.441314459983663 -0.491465086770201 0.662708696315673 0.113329283666644 -0.360636884034106 0.107028541516836 -0.73193381337439
-0.759560302560587 -0.490663417218945 0.371668967775393 0.232261512445858 -0.0194249314518971 -0.110996265864173 -0.962660378026469 0.301567362102104 0.211463355505423 0.0641772728317035 0.181488679015945 0.336606594980504 -0.0547762960927171 0.892303719051433 1.19135268690897 0.358592600967382 0.167818644794896 1.30258060904822 -0.856312407164597 -0.578552933807616 -0.448599677024992 0.935510571119949 -0.695685905524708 -0.258299574920167 -0.13886366729204 -0.384139840101938 -0.931389351993234 -0.0539265469371994 0.243566390091534 0.0375378296388602 0.392527031388517 1.39963841766007 -0.738826937386321 -0.280702356514033 0.673834882384016 -0.79773705100473 1.07246056731834 -0.588609284403611 -0.193604482179474 -1.65067540123503 -0.510960209302116 0.660001840306811 -0.0345491808691966 -0.416936557962358 0.233825770800524 0.644662646776345 0.530559461458231 0.0128156570822333 1.11658633118165 0.434230303105605 -0.295242708705257 0.364986417003514 0.153530774803587 -0.664044640827646 -0.731737638304599 -0.417711230944377 -0.878288642964513 -0.751876050514911 0.687408243176177 -0.119716414838012 -0.0407200823764828 0.629187184848777 -0.847937300056629 -0.529894574524443 -0.61533640216893 1.16051077777152 0.625017629007618 -0.569779048805485 0.663891917378818 0.851751786734772 -0.315529987711649 -0.69287620544256 0.187720772746836 -0.69180379886838 0.79530324601044
0.538245513275189 0.438527899818004 -0.246071671716758 -0.710630177813758 0.363532716027629 -0.624212617023979 -0.327109973253363 -0.743594274403449 0.41005243280684 -0.00434207677409482 -0.117089777206312 0.228588950588849 -0.0994710447914839 0.324054732946247 0.954000649945685 0.658735315544305 -0.139535496200775 0.415452003764488 -1.81236273949085 -1.28763993630173 0.27231002302379 -0.235800891227963 0.164629450082327 0.10326341999387 0.48542582567672 0.46142690406547 -0.266527615003338 0.434185823043909 0.31052970886853 0.113744516612533 0.704390370777371 0.0557250326687717 -0.583987471750181 0.709638760947291 -0.306726535038449 0.482396039277743 0.481945839346937 -0.656707230419124 -1.38464735131767 -1.3787718694109 0.263599130016546 0.697068644090025 0.188483875770611 0.456333037115662 -0.158617956888632 0.334793711078672 0.614118214120869 -0.339925373225413 0.652878345570722 0.57413475241929 -0.677971785231907 -0.103420771425996 -0.0622304345244175 0.0892277750922929 -0.202021755357489 -0.412752861061122 0.0879640785418028 -0.120196953770437 -1.25893075613403 0.253875479997628 -0.14638979657504 -0.431123383651664 0.142774056068521 -0.240234756337465 0.641410974289255 -0.417970398009056 -0.0324110525856004 0.627162956376344 0.286438484701507 0.175843567833329 -0.285138021394817 0.205971481992001 0.0485969099493848 0.406283197520942 -0.043195539220454
0.654254399271276 0.0995576909232266 0.183137269510704 -0.820373545755136 0.773416741664465 -0.566570570829175 -0.911668486720459 0.071147787008781 0.00118347817332772 1.06844116382417 0.618312195429433 0.245853899391577 -1.18280968685136 0.543926876993639 -0.0220166020986804 -0.231003986539765 0.592356408213752 -0.560391441796025 -0.581557523408638 -1.2127236853376 -1.75713598635715 0.25108660584032 -0.17295133538237 0.60971340246207 0.554641943879025 -1.44577426893574 1.28350071946219 0.566879360159213 -0.456615086986646 0.683612268431226 -0.414216846444334 0.586717467675533 0.812467407621348 -0.411159806365936 1.06762946697577 0.0717756500761863 -0.353511846636917 -0.174656747227619 -0.418376632098531 0.112839745877808 -0.669048004992964 -0.112982699139674 0.45313561487723 -0.238169133125535 0.0833594922706479 0.0392625247478505 -0.110949986031195 0.396237388442459 -0.621437112596199 -0.580521112260108 0.143101871552117 0.697099754422194 -0.361059316065124 -0.868762710676485 0.992688790544238 1.14468358911331 0.484565020783324 -1.28452967441541 0.220462211917865 -0.412569027280125 0.272221577120765 -0.0281281111536445 -0.256496718315481 -0.205031230051992 -0.954464733826384 -0.162390020386545 0.828247545116023 0.794724748098211 -0.341743142220726 -0.0128971610103117 0.404331731230359 0.257906196339852 0.539397881116348 -0.512205651029598 0.22302122957138
-0.785536915701108 -0.564256836290444 0.533537568710383 -0.238875157688637 0.355952079385788 0.119055898777339 -0.569989364935353 0.215962269491277 -0.541039529636161 0.2541837551073 0.61747324490161 -0.164996603423954 -0.029490280904305 0.415711942159716 0.832407587880403 -0.0211941066225832 0.707003895789727 0.73442675371082 -1.51789676064908 -2.4911410793675 1.05210566833376 -0.897492202548664 -1.14809852656674 -0.032630624682064 -0.078698084649003 -1.51961502800349 -1.57893651791504 0.2892934361759 -0.328113731408625 0.374406162785875 0.136062451845938 1.53132691106919 -1.25809154849602 0.0601691821856019 0.410160161973606 -0.170737102484543 1.44790262703238 -0.446253032382811 -0.173436759408275 -2.24618423740515 -0.321912233789536 0.936568065303502 0.111408670598046 -0.412420160484045 0.168082954063239 1.58717561373609 0.466609216918304 -0.409877854992438 1.0737170647837 0.606992148282947 -0.205411238902781 0.337072221522302 0.0382065732253962 -0.854510836110826 -0.0345525233015784 0.71708081520038 -0.391755700838879 -0.815085303506819 -0.134513105881899 -0.0155687929240741 0.281562647187063 0.495397329912255 -0.737915738897015 0.388800476393034 1.01220062523806 0.697891139566122 0.93679200827308 0.413936596344633 1.04315617707649 0.838177911722244 -0.560906947713367 -0.141615774693148 -0.50732312865039 -0.0767826137840689 0.184886904307466
0.459189017030788 1.07782260018924 -0.316380251087533 0.0385007072749914 0.549718798090869 -0.0893265054026465 0.0348381727151276 -0.342738415739942 -0.0794678725375416 0.0663691371435912 0.3400235893154 -0.783009008379762 0.10402369480563 -0.998413091663284 0.432689184667429 -0.937592392273421 1.71745617178194 1.39350325446825 -0.0788582642931445 -0.614397178669654 0.281684003193539 -0.419920835858907 0.216132219322381 0.946169330875211 0.7186350462579 -1.06835734590445 -0.521148457422099 0.234964768912156 0.119325864469713 -0.35289503930739 -0.357250228700829 -0.200611248892384 -0.230835836479944 -0.5267555162976 -0.280587942482504 -1.60275083441474 0.47564201187493 0.0176405867804015 0.351539811531677 -0.25270717132511 -0.303658182111989 -0.236449580220209 -0.440585552614255 0.630985156359983 0.363492863949232 -0.0767445614769535 -0.756399647078354 0.635749408054913 -0.988671186821358 -0.0311105892789109 -0.393079304062058 0.650635573442558 -0.74017059520379 -0.182779372135672 -1.16912371179896 0.152993928741039 -0.49394671425857 0.872155793764342 -0.0827519409077165 0.482410694558186 -0.117403194519648 -0.0350801133975307 0.279263053708409 0.506936692045021 -0.202179106789615 0.313294157558432 0.975966344228089 0.687492832426454 -0.0710212887986404 0.112008765765664 -0.810011748261484 -0.621595492469058 0.115746376499026 0.956875656014368 0.49488953730041
-0.745109167602938 -0.472464130010422 0.335824208692988 0.308588269875091 -0.0777017826890541 -0.127279053767029 -1.00752661921744 0.315816408455748 0.304277046322982 0.00961360686050329 0.123817579370437 0.407115977404368 -0.0217124407519398 0.922370183876318 1.20253595143799 0.516089043236841 0.0427404541961676 1.27520428807029 -0.579799403975831 -0.257543670981522 -0.72251175360038 1.1399956991428 -0.522169184849453 -0.314372734777009 -0.299004487795841 -0.150058758889484 -0.765871072007541 -0.0999695814367332 0.323513516010584 -0.00110043158415004 0.409617145266661 1.33367242928375 -0.572993440316009 -0.308402636322812 0.692231887323429 -0.807275324581552 0.9666067622286 -0.588126431479538 -0.17733789221816 -1.32642089367643 -0.527296990343446 0.565249281597645 -0.0580130561891808 -0.416640367031297 0.242320177033503 0.382234653644333 0.510549090119159 0.0980512823597838 1.02981215856776 0.406195265838284 -0.297911255296821 0.34500149957258 0.128687503350667 -0.576477540408723 -0.82068439196664 -0.604821367006083 -0.955260489843426 -0.692994219016655 0.740558317360074 -0.178642726397965 -0.0817571816088668 0.605372097018525 -0.826953252453731 -0.654486312656533 -0.852752716678018 1.21714186672593 0.533041346056782 -0.756914895885512 0.571416583562366 0.795971475376609 -0.175293352041254 -0.732184495803022 0.259308475279094 -0.74374082720788 0.837034542737498
-0.68701949257916 0.229199073053613 0.0270809013774195 0.282558434926645 -0.54809900393663 -0.0506879870694531 -0.511108304767646 -0.481213846655331 -0.103351351676529 -0.659238737283036 -0.799880578602174 -2.02098168503939 0.782665766285173 0.0769895874815551 -0.190555155406572 0.518557558105865 -0.0559248072811279 0.877937173344061 -1.08030628455907 1.07683786818753 0.781495400731189 0.712918201334168 1.4427424256553 1.26652450539521 1.20195796774612 0.611798308937741 0.885213648639162 -0.473756365791249 -0.00866409895389907 -0.339027544465634 0.749082291264123 -0.386760307089241 0.272680004577433 0.418513414716001 -0.361899552143863 1.83304313996738 -0.579661335807445 -0.0954925218164517 0.0686401913919083 -0.385828796895462 0.264865654779051 -0.172598065990636 0.797138498498211 0.221750076825577 -0.891978988890036 -0.359256202350254 -0.0412337885225417 -0.279072277952465 0.163444172137717 -0.189351879749137 -0.62103139272709 0.655270498715332 0.802973356996039 -0.702657705252701 0.417959599381361 -0.263030916511646 -0.239471910423873 0.589573190480475 -0.397891635361249 0.574814037523338 0.0244738041196434 -0.226696876750588 -0.254132847291024 -0.767945694075883 -0.563333296512344 -0.854505693907162 -1.38047882391725 -0.3111979382347 0.21132065935374 -0.112403944117262 -0.547510735837439 -0.0238269148986805 -0.317109929787491 0.551025432041956 -0.0548698841994065