-3.45826135937085 -2.02383922690179 -0.71981910647538 -2.02383922690179 -4.12591966102917 -3.20006537552642 -0.71981910647538 -3.20006537552642 -1.22838695344168
-3.07261796738858 -2.11306285464929 3.16704227369537 -2.11306285464929 -1.3142842634594 -1.03866736937471 3.16704227369537 -1.03866736937471 -1.03101134453903
-2.31074694158962 1.9745930222851 -2.22110589644175 1.9745930222851 -0.572706677333636 -0.373504354782806 -2.22110589644175 -0.373504354782806 -2.38793784157807
-5.47511003195136 -4.79492394862438 -0.512079256649206 -4.79492394862438 -7.17686836970478 0.530183068752965 -0.512079256649206 0.530183068752965 0.426732713874338
-5.72263291067242 -2.41693026500815 -0.663262970638898 -2.41693026500815 -5.70671459937708 -2.12244150604448 -0.663262970638898 -2.12244150604448 1.36897477139869
0.921460526781892 -0.89102189076207 1.61878200650873 -0.89102189076207 -7.39105425535866 -3.50597743973771 1.61878200650873 -3.50597743973771 -5.47618733483893
9.22178245312466 -0.244040754573467 1.20787848223231 -0.244040754573467 -2.62282184713302 -2.15939091925613 1.20787848223231 -2.15939091925613 1.20541342410531
-3.24654676904645 5.37784708398611 -1.11792733500609 5.37784708398611 -3.84706409048857 -0.764051056299124 -1.11792733500609 -0.764051056299124 -0.678262867521678
-1.26424136059894 3.07100182933839 1.8975894596951 3.07100182933839 -1.26915103578573 -2.0203313393649 1.8975894596951 -2.0203313393649 -0.297035348800915
-1.2921812021987 0.422043053943931 -1.89398333467431 0.422043053943931 -2.35249924513191 -1.95129782348151 -1.89398333467431 -1.95129782348151 -2.25610669577435
-5.70385559429579 -3.11937639128981 1.81299287375046 -3.11937639128981 -11.4565719894444 -2.76706430092979 1.81299287375046 -2.76706430092979 -0.324024258287317
8.7169793716166 -2.26600028228299 1.48908589978596 -2.26600028228299 3.45208957289511 -0.528301780097976 1.48908589978596 -0.528301780097976 7.20717575496406
1.03419606033987 2.59553088929957 -1.64166073655891 2.59553088929957 -4.72165725606623 -0.943829414290752 -1.64166073655891 -0.943829414290752 -3.46907513444101
-1.41485432066043 -1.72469644902211 -0.139840252623414 -1.72469644902211 -9.77784982068813 -3.59471708214306 -0.139840252623414 -3.59471708214306 -1.6451794426284
-0.188985442908792 2.53157422973426 -4.74125017759091 2.53157422973426 4.85547214857974 -0.392508227579799 -4.74125017759091 -0.392508227579799 -6.41927476957227
-0.307993348794221 2.46660190542958 0.70891572524187 2.46660190542958 -5.48281263155229 -2.19843528277254 0.70891572524187 -2.19843528277254 0.966461887595658
6.82563059361052 -3.78921949221093 1.97391899129128 -3.78921949221093 -5.53402288629875 -0.876178327767046 1.97391899129128 -0.876178327767046 -0.949193188414299
0.515536473055992 0.689452391677291 -4.13257349485848 0.689452391677291 4.25679915101655 -1.42859504581781 -4.13257349485848 -1.42859504581781 -8.98151494022849
-1.66873664781415 1.08005695572811 1.19681986986088 1.08005695572811 4.45888378344511 -0.968159163017541 1.19681986986088 -0.968159163017541 1.5081876408816
-0.749979904213067 2.81917653744358 -4.58090218501333 2.81917653744358 4.8322804908576 -0.338633585558809 -4.58090218501333 -0.338633585558809 -5.94166904722818
-1.7020605727216 0.0711235686007584 2.61930935398655 0.0711235686007584 -0.799527012546456 3.76219152529529 2.61930935398655 3.76219152529529 -0.701425538614376
2.61027757870526 -4.09069327158665 -3.50014493508205 -4.09069327158665 -4.16889373623795 2.66151236589059 -3.50014493508205 2.66151236589059 -0.0674141936649086
-2.20196478353206 0.985641379295303 -2.98051661770947 0.985641379295303 -0.909621166530506 -0.854572046942204 -2.98051661770947 -0.854572046942204 -3.58867831982785
2.02510682522624 -1.40161939055053 1.05551022405732 -1.40161939055053 2.25830094449472 4.51414721404977 1.05551022405732 4.51414721404977 -2.46449363942685
-3.15883749412904 -1.93491492807582 2.28533259221554 -1.93491492807582 -1.8968260515389 -0.360574697882896 2.28533259221554 -0.360574697882896 0.566254631182295
-4.73051405638137 3.74251166735038 -3.29765195291757 3.74251166735038 -5.75472595705224 2.01480068339042 -3.29765195291757 2.01480068339042 -4.54946649818197
-2.95510788325941 -1.00589554614477 -3.60175502006676 -1.00589554614477 2.64453183905803 2.35945084326124 -3.60175502006676 2.35945084326124 1.49725466085143
-10.2026016201871 1.63479021201306 3.30734785466669 1.63479021201306 -4.65078931602395 0.299441771507343 3.30734785466669 0.299441771507343 -4.03302205768898
-2.37304797588518 -1.73485934547723 -3.88673003428961 -1.73485934547723 3.10569773931381 2.23020431131734 -3.88673003428961 2.23020431131734 1.98829165358147
-0.211290228808212 -0.336027833767277 -2.22491156600455 -0.336027833767277 -3.26099738678698 -0.651690344275931 -2.22491156600455 -0.651690344275931 -3.19735575160379
10.5148964619694 -0.451218863834766 3.69101307572894 -0.451218863834766 -1.96953826346834 4.60200471550908 3.69101307572894 4.60200471550908 -1.20610160759625
0.14040786807117 7.83853925020399 -0.799244787482047 7.83853925020399 -6.65857312814435 -1.04225840529753 -0.799244787482047 -1.04225840529753 1.34467535191236
-4.79919157156384 -2.44279636457669 -0.272294557251849 -2.44279636457669 -3.32513545874854 -2.66010836699884 -0.272294557251849 -2.66010836699884 -1.54998440281822
-0.0294672838107113 1.45126372767753 -0.0245560698422594 1.45126372767753 6.48034683137226 3.6441207645913 -0.0245560698422594 3.6441207645913 1.20324742227071
6.8305873379525 -1.72920198387156 9.3429597494224 -1.72920198387156 6.65335610968865 -2.96503054852216 9.3429597494224 -2.96503054852216 4.90738900962997
-4.51259118035933 1.25149880685364 -6.02621088721107 1.25149880685364 -2.07126907253395 2.87562046174379 -6.02621088721107 2.87562046174379 -3.04265829017395
-3.15586660331825 4.20336847334428 -1.56323620909498 4.20336847334428 -5.29896991903478 -1.2211947821477 -1.56323620909498 -1.2211947821477 -0.0961991513289219
-7.39749790056355 1.47258851488042 -2.08129387572449 1.47258851488042 0.380108587775993 2.55975223796001 -2.08129387572449 2.55975223796001 -2.38431750514032
-1.53754931723443 -4.32927708777611 -3.37421232416975 -4.32927708777611 -2.10691484938438 -0.404065861525771 -3.37421232416975 -0.404065861525771 0.241389995197214
-3.64073632611579 2.14148694554462 -1.23443064436457 2.14148694554462 2.0372276005814 0.352396585975698 -1.23443064436457 0.352396585975698 -2.56269469919605
2.5928257964629 -1.25847548748603 0.988989052535799 -1.25847548748603 6.49122179719925 -0.981139933071229 0.988989052535799 -0.981139933071229 1.54889290767511
-0.934556989698398 1.47728838598217 2.39066561387437 1.47728838598217 -3.57673227502135 -2.40125549477747 2.39066561387437 -2.40125549477747 0.315048956867165
-7.38818610053706 4.02745581269188 2.18447468709937 4.02745581269188 0.216821308893237 -0.146354383502935 2.18447468709937 -0.146354383502935 -6.46398527137964
-3.77491426106322 -0.41438148515018 -4.05790649482432 -0.41438148515018 4.20698276082347 1.47812907812716 -4.05790649482432 1.47812907812716 1.50086952548297
-1.10685969866076 7.58373944386544 -0.352794697140047 7.58373944386544 -4.23084327638942 -1.14456294873679 -0.352794697140047 -1.14456294873679 0.557469483267097
-0.273317117548093 2.29533307455437 1.08000064895217 2.29533307455437 -5.15852889818925 -2.25287604658574 1.08000064895217 -2.25287604658574 0.873022637605074
-1.52283837045489 0.780695620296496 -2.97820921816812 0.780695620296496 -2.79990219377941 0.679494336183987 -2.97820921816812 0.679494336183987 -3.73239974024467
-1.62786746738178 0.508560055503214 -2.51665934008366 0.508560055503214 -0.70342886181753 1.66826709795914 -2.51665934008366 1.66826709795914 -2.35268436891674
4.61198413600019 -1.29797102329556 -1.77738290125473 -1.29797102329556 4.37123144619537 0.826933151938301 -1.77738290125473 0.826933151938301 -2.03907060756432
-0.516977671654214 -5.55881546945364 -3.95044049097387 -5.55881546945364 -0.947792398032725 1.33160915426085 -3.95044049097387 1.33160915426085 0.765022514114569
-3.40168671340283 -0.593702624886037 -1.56706916010692 -0.593702624886037 0.624279584107635 -0.593702624886037 -1.56706916010692 -0.593702624886037 2.5863011341602
-2.47448004248147 2.27109812118162 1.78871792322686 2.27109812118162 -7.92146508857608 2.9099259509055 1.78871792322686 2.9099259509055 -1.60619568616289
-2.74744334922454 4.85286351277409 0.233935573727728 4.85286351277409 -9.7603119927513 1.25545424567214 0.233935573727728 1.25545424567214 -3.1217402671889
6.28365250253938 -2.96167566346753 8.29893707808622 -2.96167566346753 7.97706802787969 -3.10099211803453 8.29893707808622 -3.10099211803453 5.6158943237527
-7.82307542868872 0.407169088932445 3.32792868687452 0.407169088932445 2.41858438825873 -0.743762202449934 3.32792868687452 -0.743762202449934 3.4907963224475
-3.889562250252 -2.91651243984998 -1.99356546521391 -2.91651243984998 -3.7972675527884 -1.93027767266744 -1.99356546521391 -1.93027767266744 0.756816519201576
-5.15346811419407 3.51645345778847 -1.83773142160183 3.51645345778847 -4.01433530392456 2.43466829471789 -1.83773142160183 2.43466829471789 -3.24274877797543
-2.40365955850552 0.332814400408457 2.99532960367611 0.332814400408457 -2.15801083439452 -2.42743201567756 2.99532960367611 -2.42743201567756 -0.375076546492071
9.67451580179742 -2.26738384772217 0.946251411934222 -2.26738384772217 2.82324191757424 0.58688270630893 0.946251411934222 0.58688270630893 7.86991611455675
1.65161914014118 -0.26122547624682 -0.655170347683555 -0.26122547624682 -1.54628628681585 1.51889974495127 -0.655170347683555 1.51889974495127 2.81028052671982
-1.15596256109094 -4.62122901406651 -3.59632796783849 -4.62122901406651 -1.78767906273021 -0.0498033756479091 -3.59632796783849 -0.0498033756479091 0.262123029725837
4.12752444527494 0.542446462341988 -2.10814420592 0.542446462341988 8.10217761479896 4.16697509708163 -2.10814420592 4.16697509708163 2.1895111752713
-2.45628987410575 2.65240084209822 2.54699119680226 2.65240084209822 0.431444129583444 1.78460980873152 2.54699119680226 1.78460980873152 2.36558855140923
4.06249242979841 -1.12001000482955 0.618952897405804 -1.12001000482955 0.768778797174669 1.9305435609562 0.618952897405804 1.9305435609562 -2.83195512186068
0.871175959428904 -1.81380483666586 0.269322536353415 -1.81380483666586 -4.19098844835672 0.615594368807806 0.269322536353415 0.615594368807806 1.24218149420147
11.2935253164318 -0.823262313702587 3.15548061753367 -0.823262313702587 -2.49128204068224 4.39144884306628 3.15548061753367 4.39144884306628 -1.39503196238376
0.243146030183291 7.75905998540458 -0.961777630502796 7.75905998540458 -7.22954196411652 -0.996898723751493 -0.961777630502796 -0.996898723751493 1.42915833296623
-3.95237592303531 2.04283160233966 1.60216752833297 2.04283160233966 2.41277181261688 -2.76095083405426 1.60216752833297 -2.76095083405426 0.837805770333707
1.19495877691938 -4.17159032483118 -2.87436030123852 -4.17159032483118 -4.57260126573431 2.7747804031619 -2.87436030123852 2.7747804031619 0.33641857458316
-2.3075244217794 4.65146974762297 0.858492738655246 4.65146974762297 -10.190048658523 1.36318240925863 0.858492738655246 1.36318240925863 -2.59108717485038
-10.1501519202545 1.12779465780606 0.156751243052466 1.12779465780606 5.15650517729737 -3.55438532947541 0.156751243052466 -3.55438532947541 -1.58583400438794
-7.72194078005111 3.82032859644634 2.41683199151073 3.82032859644634 -0.498539334571721 -0.238431855664736 2.41683199151073 -0.238431855664736 -6.448497914569
-1.18088157400231 0.299121984604108 -1.58664704876962 0.299121984604108 -2.61146497863065 -2.13807192473545 -1.58664704876962 -2.13807192473545 -1.77652448247483
5.63131240686495 -1.54603817035051 7.5459107602402 -1.54603817035051 6.33732054967207 -1.95767681632619 7.5459107602402 -1.95767681632619 4.54717108926622
-5.73942237916845 5.32072458362513 -2.53393730809332 5.32072458362513 -10.4674448885829 -1.68838526644415 -2.53393730809332 -1.68838526644415 -0.706892382086119
2.24038399724476 -3.24717384292018 -1.4493348327855 -3.24717384292018 -5.98265504449433 1.04551253204755 -1.4493348327855 1.04551253204755 -3.06185812956783
-2.73268616353536 0.129344009461657 -2.65743146712131 0.129344009461657 0.92187003107217 2.23647550905519 -2.65743146712131 2.23647550905519 -0.526782874898383
7.58746567150008 -5.41549815910283 3.92019059694171 -5.41549815910283 2.30951805965836 1.88355507459169 3.92019059694171 1.88355507459169 -1.62842099499446
-1.24854810707521 -1.54582146590264 2.27995741291995 -1.54582146590264 -3.28810184720429 -3.06062310305808 2.27995741291995 -3.06062310305808 -2.38077185634839
1.86668277165763 -0.508713097681471 -1.93605273952329 -0.508713097681471 -0.111412372632719 0.931239265590462 -1.93605273952329 0.931239265590462 1.70481951330443
-0.198755475935603 -1.13180201574441 1.64801415463271 -1.13180201574441 -6.93987870141814 -2.71080385234392 1.64801415463271 -2.71080385234392 -2.95648770454209
-2.55164963046251 -2.08696343698389 0.516929019964389 -2.08696343698389 -10.3908232257735 -3.1538169462721 0.516929019964389 -3.1538169462721 -1.6277764883985
7.33181989519641 -3.42296851570686 3.71929169720662 -3.42296851570686 -2.79981829578823 3.61688589183538 3.71929169720662 3.61688589183538 -1.06327729832269
-0.682863894652082 -2.19892366076398 3.54681545281977 -2.19892366076398 -11.4073942401394 -4.05386737459501 3.54681545281977 -4.05386737459501 -0.728727887576476
-6.22219040009599 1.07376766410496 -0.420609555807594 1.07376766410496 8.99052925538732 -2.83911450170126 -0.420609555807594 -2.83911450170126 -2.65509782103544
5.29319550504079 -1.5491644493356 1.54395717387565 -1.5491644493356 5.63427204766762 -1.41377528737686 1.54395717387565 -1.41377528737686 4.1840458320711
-2.20169836078287 0.874681528120324 2.18420473022046 0.874681528120324 -0.0174936305624065 0.0924663329727199 2.18420473022046 0.0924663329727199 -0.157442675061658
-2.6524058451671 -0.564286341569864 -0.236636207755104 -0.564286341569864 -6.7610345072887 3.00866035574347 -0.236636207755104 3.00866035574347 -7.71017973619654
-3.42462353324086 -3.15855662796599 -2.27605748670777 -3.15855662796599 -3.46677274595767 -1.68333418287762 -2.27605748670777 -1.68333418287762 0.59799195541975
-2.01124832915799 0.647510960109998 2.93362108457999 0.647510960109998 -2.44468423714999 -2.43411262963799 2.93362108457999 -2.43411262963799 -0.198217640849999
11.0584237789921 -4.14442276069692 0.507175910727158 -4.14442276069692 0.937280972275188 2.48367026870799 0.507175910727158 2.48367026870799 1.67069711768946
-2.36885920211775 -0.451211276593857 -0.43326537354751 -0.451211276593857 -1.79202660419947 -1.79715400506985 -0.43326537354751 -1.79715400506985 2.45089761604391
-4.67401990834243 1.58716031009757 -5.8624608536667 1.58716031009757 -2.41546763562661 2.91450993734286 -5.8624608536667 2.91450993734286 -3.3235188341103
2.79606135393684 -0.701114483644823 -2.39722377342032 -0.701114483644823 1.30146999958021 0.730502515893409 -2.39722377342032 0.730502515893409 0.570967483686802
-10.5757051256555 0.96717812648287 0.167317734961172 0.96717812648287 4.04419208162247 -3.7544467357141 0.167317734961172 -3.7544467357141 -2.15268549248825
-1.18016990452392 2.06591072683814 0.861205065463404 2.06591072683814 4.96849076228887 2.82651918921322 0.861205065463404 2.82651918921322 1.66843146585503
0.753289664841925 1.92991567025617 -4.8994955886826 1.92991567025617 4.80818775051995 -0.556147741536187 -4.8994955886826 -0.556147741536187 -7.32537883441321
-2.5323485740131 2.28230060252294 2.73581898218646 2.28230060252294 -0.517256097886508 1.98077216631421 2.73581898218646 1.98077216631421 1.85329672986825
-2.22490180428427 -5.77018925877463 -2.87729707633492 -5.77018925877463 -2.14692627376029 2.17031893291749 -2.87729707633492 2.17031893291749 1.33598075631088
-2.03320913275681 4.26166882243648 1.38497728377288 4.26166882243648 -10.2727826349019 1.57241781841884 1.38497728377288 1.57241781841884 -2.13734276311567
10.7550314804843 -3.43377561098912 0.6470869562947 -3.43377561098912 0.128921539185151 1.71564817531009 0.6470869562947 1.71564817531009 1.48755622136713
-1.18825927789996 0.734560280883609 -2.8518222669599 0.734560280883609 -2.27089550887547 0.931403231970067 -2.8518222669599 0.931403231970067 -3.53357102438128
-6.16104694342073 1.29797337291167 0.435130121204675 1.29797337291167 -1.74546514528693 -0.714503437659949 0.435130121204675 -0.714503437659949 -2.84812442970332
-4.36405024379195 1.82857096287995 -1.05905821815872 1.82857096287995 -4.58055721942538 4.2910117459879 -1.05905821815872 4.2910117459879 -2.72850959653699
-11.8017023592309 4.44129592706637 -1.31523355780077 4.44129592706637 -7.51562033029012 -4.46580338466514 -1.31523355780077 -4.46580338466514 -4.40861931693467
-2.16446034948908 -1.67758907283139 -0.523915830316428 -1.67758907283139 3.46101972754489 0.156116333276107 -0.523915830316428 0.156116333276107 -2.54019796517056
1.07048475288799 -1.88154080290771 -1.79688512091912 -1.88154080290771 -8.0641364165261 -2.4468222923154 -1.79688512091912 -2.4468222923154 -1.88427163135896
4.11003720751584 -3.12525601521997 -3.91470870656459 -3.12525601521997 -4.85608356531575 0.718917399334454 -3.91470870656459 0.718917399334454 -1.43783479866891
-2.9362306470625 -0.137961191750277 0.713233330935396 -0.137961191750277 -5.94014036932326 2.02256313188614 0.713233330935396 2.02256313188614 -7.57224729814257
-2.94126487955304 5.88252975910607 -0.861447104321646 5.88252975910607 -3.5477665791689 -0.780938029151399 -0.861447104321646 -0.780938029151399 -0.585032612903797
0.836703557021471 2.32865688761397 -2.14216272128991 2.32865688761397 -4.88161081310418 -1.50707447921337 -2.14216272128991 -1.50707447921337 -2.90074034377022
2.23702938956279 -3.88677764308568 0.540980963489041 -3.88677764308568 6.72083557343592 1.62537974165401 0.540980963489041 1.62537974165401 2.1956029193857
-3.41445035926716 0.81898204346835 -2.88952418303819 0.81898204346835 -3.77412199853516 0.182266033412838 -2.88952418303819 0.182266033412838 -3.89320247369821
-6.47812684073339 1.27893194071004 -1.55895072351813 1.27893194071004 -5.42805640520304 -2.98596952052092 -1.55895072351813 -2.98596952052092 -3.96872774864548
-3.11330784056089 -0.405779448882094 -3.16927741971705 -0.405779448882094 2.02423311281412 2.3973636405218 -3.16927741971705 2.3973636405218 0.78124204238794
2.17803676317382 -2.1507772292167 -2.53786261140779 -2.1507772292167 -7.14199789676521 -1.62194227044859 -2.53786261140779 -1.62194227044859 -1.9217971439769
-2.29709282036729 2.7923038659534 2.25786818309314 2.7923038659534 1.55427625198811 1.7822694561441 2.25786818309314 1.7822694561441 2.55940758213815
2.76440780142484 1.59938943642836 -1.74752754749472 1.59938943642836 -1.08467227085879 -2.49072891826833 -1.74752754749472 -2.49072891826833 1.37090523122431
-2.44039456826407 1.74491950744111 -2.71958168945465 1.74491950744111 0.0124637107674365 -0.049854843069746 -2.71958168945465 -0.049854843069746 -2.13628002553862
-5.76706392169569 0.169013310071139 -1.53348661820643 0.169013310071139 2.90208220219712 -3.19476378793007 -1.53348661820643 -3.19476378793007 -8.43417640013537
3.94490999334647 -0.799329303569875 -0.230227534037925 -0.799329303569875 2.63856274964813 3.76124533136116 -0.230227534037925 3.76124533136116 1.34514963707552
7.95134494887269 -2.75539506830132 3.31993621704706 -2.75539506830132 -3.33947802604211 3.75854126338029 3.31993621704706 3.75854126338029 -1.11605442482812
4.0387313210631 -4.64853377337461 3.98791445003714 -4.64853377337461 8.71872315745378 -0.890505168454896 3.98791445003714 -0.890505168454896 4.07502908608164
3.68145314531855 -1.44957217596918 -1.11907808678717 -1.44957217596918 4.57671561474828 0.935005429521245 -1.11907808678717 0.935005429521245 -2.80919975804705
9.45081124142191 -4.31972691877392 0.971625533034366 -4.31972691877392 -1.74041171510022 1.09683500894086 0.971625533034366 1.09683500894086 0.308015310729967
2.32344853898894 1.76440282244818 -1.63895841776098 1.76440282244818 2.61797018477627 -0.766301689502222 -1.63895841776098 -0.766301689502222 -0.3163380639938
-3.44079921472538 3.62397545846151 -2.97453241248794 3.62397545846151 3.84045647378604 -0.112403604110811 -2.97453241248794 -0.112403604110811 -3.30549858014755
2.07838593558886 0.814136975952558 -1.18062159654752 0.814136975952558 7.96427652004345 4.41749247374862 -1.18062159654752 4.41749247374862 1.37985149096491
-1.71902692564867 -2.24001372420975 -3.92002401736706 -2.24001372420975 3.35084020219901 2.10230796247554 -3.92002401736706 2.10230796247554 2.18722651554497
-2.78850147418154 1.04287454236207 -4.02144427846091 1.04287454236207 1.94069699010303 0.962845800502147 -4.02144427846091 0.962845800502147 -1.0578799314608
-2.5094209429248 4.77700131829311 0.559093785211224 4.77700131829311 -10.0142798458066 1.2976176689321 0.559093785211224 1.2976176689321 -2.8500780864721
-2.42525013881416 -2.62367969562623 0.377567351156295 -2.62367969562623 -9.93525767093755 -1.67838333470207 0.377567351156295 -1.67838333470207 -1.67011543650157
-2.69500482652405 -3.84158739685437 -1.22962943874209 -3.84158739685437 -5.99009025060416 1.79488393018998 -1.22962943874209 1.79488393018998 0.881368377660451
-0.712487064959174 6.92710808023045 -1.84488095527452 6.92710808023045 -9.60096638104682 -0.961722083880254 -1.84488095527452 -0.961722083880254 1.23804786572754
-5.31771068993993 1.69372891606983 2.32445942735105 1.69372891606983 2.29999143337893 -2.72682199489251 2.32445942735105 -2.72682199489251 1.45720497433937
0.430953571932186 0.40370938060314 -1.06004671716653 0.40370938060314 -0.240244232628862 1.71143056439736 -1.06004671716653 1.71143056439736 -2.55104700626524
-5.80539751363722 -2.49637404520539 -0.536454848012222 -2.49637404520539 -5.98067484021547 -1.89352627045898 -0.536454848012222 -1.89352627045898 1.35441570537739
-5.43382713676907 1.36465978320684 1.48623856389254 1.36465978320684 -0.352330344027948 -0.508645919195278 1.48623856389254 -0.508645919195278 -2.20082405037176
-1.26946170303273 0.615641201846702 -2.62244062337026 0.615641201846702 -1.35536512654623 1.37206857000719 -2.62244062337026 1.37206857000719 -2.94457846154585
-2.35201686966221 3.4833141084741 -3.87219753431569 3.4833141084741 4.5397460888352 -0.228754956377404 -3.87219753431569 -0.228754956377404 -4.5106318216599
-10.6083783771063 0.872285300794223 0.132783476701697 0.872285300794223 3.58923951638279 -3.82824977444584 0.132783476701697 -3.82824977444584 -2.65566953403393
-0.834843977958014 -0.906329089220474 -2.47134241793076 -0.906329089220474 -3.52574780905204 0.252750929106555 -2.47134241793076 0.252750929106555 -4.4371829776484
-2.45025520297494 -3.72270532984175 -2.84723861032388 -3.72270532984175 -2.78677093900583 -1.08578905453718 -2.84723861032388 -1.08578905453718 0.341773794406375
-5.97225831146019 -3.4083060363678 1.45445083878233 -3.4083060363678 -11.0332323805683 -2.2627651102472 1.45445083878233 -2.2627651102472 -0.298612915573009
-1.44556808059248 -0.229199946018835 -1.06557869640336 -0.229199946018835 10.0888186765133 -1.94417848947556 -1.06557869640336 -1.94417848947556 -3.58074652508373
-1.94322891595149 3.7301659619873 1.78693704603582 3.7301659619873 -9.99226021660845 1.86247811649506 1.78693704603582 1.86247811649506 -1.78693704603582
-7.11255519076914 1.08777064511763 1.71439164018539 1.08777064511763 4.31039290546612 1.70082841518392 1.71439164018539 1.70082841518392 2.11315045522851
2.95348631653183 -1.363147530707 0.51256563654633 -1.363147530707 -7.41142204195369 -2.36888442836277 0.51256563654633 -2.36888442836277 -6.8850032800953
2.89719769689452 1.51680030082237 -1.91236872459798 1.51680030082237 2.59711130644405 -0.3846561913956 -1.91236872459798 -0.3846561913956 -0.229156879980357
0.318984806896516 -3.20351884640358 -3.47693439517202 -3.20351884640358 3.79591920206854 1.74074566049241 -3.47693439517202 1.74074566049241 2.20783055630517
-4.79390112593509 2.23784938305349 -1.71620617022051 2.23784938305349 -4.15488819021469 4.11315673318805 -1.71620617022051 4.11315673318805 -2.94728415250634
8.25456455580805 -2.51367323178706 3.21637394541864 -2.51367323178706 -3.4159062468202 3.81713967898638 3.21637394541864 3.81713967898638 -1.14080424496979
-3.08241551860498 -0.245378035976894 -3.02165524302975 -0.245378035976894 1.77606959373751 2.38133541581385 -3.02165524302975 2.38133541581385 0.486082204601846
7.11334057009852 -3.81110816543504 4.03824584406269 -3.81110816543504 -2.21677638276021 3.54247418013503 4.03824584406269 3.54247418013503 -1.06361586049677
-4.6150956252925 -2.38865210084583 -0.473544392391124 -2.38865210084583 -3.52149586827874 -2.76801086823099 -0.473544392391124 -2.76801086823099 -1.47295852439891
-11.3982233173403 4.43853506416114 -1.06611871639165 4.43853506416114 -7.18814226383449 -4.91720061029616 -1.06611871639165 -4.91720061029616 -4.65339062180129
-3.70218142987148 -0.328073337343758 -4.35328082244601 -0.328073337343758 4.45170282364914 1.70093407207456 -4.35328082244601 1.70093407207456 1.33500611888344
-2.54253285543885 6.24643610802587 -2.25219025615181 6.24643610802587 -10.3383673204077 -1.19393218398409 -2.25219025615181 -1.19393218398409 0.588825645283065
4.90132805088551 -0.881993368555338 0.663337630946911 -0.881993368555338 -0.0368520906081617 0.778807514852485 0.663337630946911 0.778807514852485 -2.47891729490901
-3.36968110469884 -3.71226981113367 -0.979589582462094 -3.71226981113367 -6.22547914974544 1.41853136258172 -0.979589582462094 1.41853136258172 0.926060097081651
7.74173878551955 -2.09817979145237 1.6676509343682 -2.09817979145237 4.0978047842951 -1.03741893273294 1.6676509343682 -1.03741893273294 6.40865545695772
0.449008615629901 0.816153782001311 -1.02205276043933 0.816153782001311 -0.969957838183929 1.40904361147947 -1.02205276043933 1.40904361147947 -2.9321999098041
-2.77305477131576 0.209383509436365 -4.97413507782974 0.209383509436365 -2.01467791396697 0.944779249895793 -4.97413507782974 0.944779249895793 -1.77720637277695
2.5340134567516 -1.38199908821189 -0.740132643308635 -1.38199908821189 4.22962807178918 0.972208133159647 -0.740132643308635 0.972208133159647 -3.14451834897228
-1.42880674345189 0.564378663663496 -2.5599454153513 0.564378663663496 -1.0335035444302 1.52167918177626 -2.5599454153513 1.52167918177626 -2.66710592111019
-2.5144264828858 6.42575656737482 -0.620547561481431 6.42575656737482 -3.42778653008791 -0.878437457162026 -0.620547561481431 -0.878437457162026 -0.354598606560818
-4.59861426427575 2.00586180897791 -1.43201317702064 2.00586180897791 -4.33255717127738 4.25430508510139 -1.43201317702064 4.25430508510139 -2.84837593680608
-6.62684977677338 1.72520526321239 1.1691249503845 1.72520526321239 4.82297949369753 1.92864928010064 1.1691249503845 1.92864928010064 0.857177457822508
-4.54640172745929 -5.22253326641477 -1.31858602807794 -5.22253326641477 -5.28470628149114 1.39371175462854 -1.31858602807794 1.39371175462854 0.865241126479431
-2.59474511350952 -2.48731936040244 0.482038635736907 -2.48731936040244 -10.1723924672937 -2.10719746479277 0.482038635736907 -2.10719746479277 -1.66372191991481
1.11825215069322 -2.33704890265491 -0.951495251028444 -2.33704890265491 4.24249171205981 2.65830116524442 -0.951495251028444 2.65830116524442 0.566482997390646
1.2592587694811 -1.32222170795516 0.637499752049809 -1.32222170795516 6.32515186087279 -0.595524459733772 0.637499752049809 -0.595524459733772 0.270215944284487
-1.96009496339544 -3.9550479767555 -1.51766586769058 -3.9550479767555 -5.71940158265727 2.12097827092447 -1.51766586769058 2.12097827092447 0.82050486839809
3.39580069304928 -3.12734701152868 -1.69374900093412 -3.12734701152868 -5.52682476285201 0.963112177001753 -1.69374900093412 0.963112177001753 -3.97975663944977
-0.603327126891502 -1.55178898576024 0.0658654068658845 -1.55178898576024 5.26132870044686 -0.0658654068658845 0.0658654068658845 -0.0658654068658845 -1.38053892790894
-3.11143161826369 5.62471733060256 -0.989757126844227 5.62471733060256 -3.67739030055131 -0.761764292747318 -0.989757126844227 -0.761764292747318 -0.649109010017081
-2.798254461959 0.00527972539992265 2.99360430175614 0.00527972539992265 -1.93237949637169 -2.41283450776465 2.99360430175614 -2.41283450776465 -0.554371166991878
-4.84230616386485 -2.60463209132105 2.46349439179134 -2.60463209132105 -11.9428155202051 -3.58489756805469 2.46349439179134 -3.58489756805469 -0.318201358939715
-3.44354904744844 1.76036062752664 -1.00741016954427 1.76036062752664 1.87299033592289 0.446347362903674 -1.00741016954427 0.446347362903674 -2.65305535333399
-0.224601905200888 -0.929803586046685 0.239092350697719 -0.929803586046685 8.62906029336313 0.415392770909168 0.239092350697719 0.415392770909168 4.30124723830947
3.92224233958813 0.562661505539802 -2.32985565157986 0.562661505539802 2.24245192256397 0.734737597039838 -2.32985565157986 0.734737597039838 0.360540382190553
8.99551446719001 -2.02761536101925 3.06630839547949 -2.02761536101925 -3.41253940696624 3.9470335309489 3.06630839547949 3.9470335309489 -1.20098882109465
-9.65712796556369 0.0438507358601447 2.46760049976632 0.0438507358601447 -3.58180783366727 -0.711577850094166 2.46760049976632 -0.711577850094166 8.31968052182927
-3.18155716343854 1.36441861304184 -0.807385326066044 1.36441861304184 1.78167201152558 0.540343151036448 -0.807385326066044 0.540343151036448 -2.77682136690931
-1.68641706321421 -1.63764701115779 -2.81582879504716 -1.63764701115779 -3.86823518152787 2.03807480698947 -2.81582879504716 2.03807480698947 -6.14759340395438
4.31284662695285 -1.02267694555539 -2.29054488010664 -1.02267694555539 3.32789137201221 0.720903420637406 -2.29054488010664 0.720903420637406 -1.02058129607679
-1.11926043878021 0.184379329822262 -1.2880584167865 0.184379329822262 -2.81762778672048 -2.28007114906966 -1.2880584167865 -2.28007114906966 -1.25689571315457
0.80488359950983 -1.29566628213778 1.57295849782256 -1.29566628213778 2.12018118895272 5.15076425418028 1.57295849782256 5.15076425418028 -1.88215158787817