-0.0646886541 0.4016328065 1.6171745764 3.1080888538 4.8063327057 4.2467046549 2.3533463732 2.0878408903 2.5599686658 7.2589380393 1.415409101 0.750259319 8.0891786729 4.1082043998 2.4839269602 0.9692839933 4.0801000706 1.3978128399 4.1302845265 1.560929853 4.7023277381 9.4424661125 2.0647373744 3.6456722357 6.2832057652 4.6546621511 0.2979481141 1.8697923678 4.1949632892 2.6958942295 3.7120697782 1.5593043709 1.2328545368 8.5639510738 1.9243314001 2.3268464801 6.7060483308 4.6496060469 3.7663005334 4.7618111713 4.822345275 0.4392731142 0.5056843141 1.6582940156 3.3802219375 5.6498894217 1.3924384472 4.5409842296 9.9039179173 4.4771302872 1.6506890463 1.550100845 5.12378157 0.3968349744 3.3364936407 0.5052439758 3.8243321886 9.1992666905 3.5304063887 4.057033223 6.8045696755 3.3573294694 1.068505153 8.8637504186 1.0560081579 4.6788339869 7.0679103028 5.7170412245 1.1733693241 1.1865535464 2.6139576007 0.9609320986 3.6244068231 2.8627371287 3.9419246789