-0.0935801362737162 0.506567738932111 -1.07565207602256 -0.0231440302520677 -0.00652622778048608 0.022920601502856 -0.00665786819429095 0.0231771974657022 0.0805150823137666 -0.0311332149750337 0.0129532110302521 0.0245823046169592 0.0495430754236073 -0.0181697195374531 0.0549395610590571 0.0305539457322556 0.0269281779285912 0.0659361635950611 -0.000764902795057562 -0.0329460988768659 0.00880679510558207 -0.00423306205641267 -0.117904559376913 0.0496464337172588 -0.00686509900196032 0.0191585653020888 0.0670810752409069 0.068475383764469 -0.148748268285649 0.0167203894346835 -0.0493445863621672 0.0063799320862381 0.0424848866740543 -0.024485374077888 0.00808431549075459 0.0808259285252707 0.0818368857656627 -0.0309532378467848 0.00249911098082672 0.0514698591366027 -0.00543582349348134 -0.0193084605389018 0.00862064733293613 -0.211904813689999 -0.0346530533832145 -0.0296566311928435 -0.00388596330907563 0.0438108038888818 -0.0164794771930133 0.109364901751689 0.152800838993447 -0.0325797168657879 -0.00951899031308105 0.072893822262978 -0.00510543690805311 0.024888008624799 0.030191677484109 0.0753831630568426 -0.0799939199723946 0.0513341049598665 0.0436555093382214 0.00438038619139351 0.0661775900570978 0.0165725510793362 -0.0327486382561586 0.0995978001118077 0.00741505768385213 -0.0265561394934825 0.0306966418839386 -0.09470807864747 -0.00857796704252284 0.0484830101382216 -0.0147884635180238 -0.00801283885982148 0.0166697387285906