10.168361895 0.087364478 -0.117324659 0.052208132 6.081767440 -0.031341894 -0.055773268 -0.024932094 4.996761254
10.075563234 0.109143510 -0.122231831 0.065223062 6.109100164 -0.083600729 -0.058106017 -0.066503360 5.034319716
10.211830782 0.060055629 -0.081900167 0.035888639 6.063754330 0.017865972 -0.038933332 0.014212163 4.942264004
9.971632922 0.051868696 -0.029468222 0.030996210 6.164953999 -0.010212597 -0.014008470 -0.008123996 5.001600334
10.110791893 0.106165010 -0.134756007 0.063443140 6.102123608 -0.088651091 -0.064059703 -0.070520861 5.019020005
10.266886681 0.019557331 -0.022178046 0.011687264 6.092124503 -0.019768174 -0.010542900 -0.015725341 4.977912505
9.985510260 0.096926305 -0.069418114 0.057922183 6.202699538 0.001965881 -0.032999670 0.001563834 4.992275370
10.120943250 0.072292217 -0.109058755 0.043201100 6.106797046 -0.053982079 -0.051843860 -0.042942086 4.983713464
9.975350723 0.103175316 -0.072761971 0.061656529 6.204840051 -0.004038382 -0.034589258 -0.003212483 4.986025905
10.212167442 0.061924520 -0.086556611 0.037005469 6.062703760 0.019359071 -0.041146891 0.015399905 4.946869050
9.967014294 0.070935731 -0.033941764 0.042390478 6.149711986 -0.016529921 -0.016135083 -0.013149350 5.013065272
10.038720582 0.045179151 -0.063446144 0.026998605 6.156180712 -0.029728582 -0.030160742 -0.023648724 4.985771687
10.216929619 0.062805206 -0.131763986 0.037531758 6.030106004 -0.047819250 -0.062637370 -0.038039630 4.914304123
10.329154917 0.012124959 -0.016586377 0.007245753 6.143744316 -0.009763500 -0.007884757 -0.007766745 4.956495386
9.998192673 0.094240703 -0.066654555 0.056317294 6.130280165 -0.045281188 -0.031685942 -0.036020633 5.028623334
10.203382867 0.054263020 -0.055853107 0.032427034 6.087784521 -0.002070438 -0.026551198 -0.001647008 4.935277779
10.276951447 0.018368433 -0.021315102 0.010976790 6.099470931 -0.017971759 -0.010132677 -0.014296315 4.974321407
10.211571810 0.060350635 -0.128952098 0.036064931 6.024191977 -0.047943282 -0.061300667 -0.038138296 4.919658736
10.202362319 0.080450546 -0.110662906 0.048076436 6.067264600 0.004779164 -0.052606434 0.003801767 4.983953225
10.104085310 0.117998353 -0.094822494 0.070514626 6.125102881 -0.051715297 -0.045076290 -0.041138888 4.963978141
10.148125366 0.059793305 -0.023981168 0.035731876 6.137646990 -0.049724128 -0.011400060 -0.039554937 4.969757180
10.083854766 0.047368818 -0.056986558 0.028307128 6.049899063 -0.069347074 -0.027090013 -0.055164751 5.031993509
10.061377503 0.051590510 -0.078077505 0.030829969 6.143475361 -0.039985903 -0.037116132 -0.031808298 4.982524079
10.213033391 0.026182547 -0.027850101 0.015646426 6.060883477 -0.030788794 -0.013239255 -0.024492110 4.997773897
10.089722373 0.046942742 -0.096597399 0.028052509 6.103361375 -0.009411964 -0.045920036 -0.007487102 5.021927108
10.033784808 0.134786013 -0.142328299 0.080546763 6.081027190 -0.020454741 -0.067659385 -0.016271497 4.933209574
10.083682550 0.048956691 -0.095001561 0.029256025 6.109712929 -0.007011882 -0.045161414 -0.005577867 5.020438695
10.163897339 0.057150621 -0.025859395 0.034152635 6.133652138 -0.041700058 -0.012292923 -0.033171887 4.966506014
10.131130592 0.061934501 -0.025503525 0.037011434 6.136696108 -0.058064647 -0.012123751 -0.046189718 4.971591038
10.205004517 0.027175423 -0.028864625 0.016239759 6.057574771 -0.032710920 -0.013721535 -0.026021138 5.000878207
10.219688258 0.079135623 -0.133316392 0.047290650 6.066584976 -0.055242885 -0.063375345 -0.043945041 4.921330382
10.003526295 0.114931439 -0.183878120 0.068681870 6.056361929 -0.000664101 -0.087411152 -0.000528284 4.978486610
10.209291906 0.056916522 -0.071326319 0.034012740 6.069500505 0.011688816 -0.033906784 0.009298311 4.935421907
10.014372374 0.099771792 -0.081644261 0.059622617 6.124897927 -0.056573883 -0.038811681 -0.045003834 5.034486636
9.960727545 0.107625142 -0.089673448 0.064315700 6.188818769 -0.033851185 -0.042628560 -0.026928205 4.983942119
10.112071541 0.040690821 -0.100957530 0.024316425 6.081887747 -0.018075797 -0.047992736 -0.014379076 5.027589510
10.183056259 0.087828840 -0.117183683 0.052485630 6.076460999 -0.017092380 -0.055706251 -0.013596780 4.997358227
9.965086564 0.100572117 -0.095932476 0.060100883 6.165534583 -0.056655252 -0.045603948 -0.045068562 4.989077330
10.128382960 0.104648249 -0.086629894 0.062536739 6.131064459 -0.056580810 -0.041181729 -0.045009345 4.983947382
10.080874756 0.048306098 -0.058332007 0.028867237 6.050983110 -0.070205734 -0.027729607 -0.055847805 5.032259800
9.970514120 0.076952093 -0.038941237 0.045985795 6.145637400 -0.021135279 -0.018511710 -0.016812857 5.017483806
10.193970155 0.086437533 -0.133381386 0.051654198 6.081218038 -0.071629509 -0.063406242 -0.056980401 4.949573480
10.072552309 0.129887485 -0.111186282 0.077619452 6.108782684 -0.041796990 -0.052855234 -0.033248995 4.943309912
10.210665124 0.082288193 -0.132156189 0.049174595 6.074351775 -0.062001314 -0.062823814 -0.049321289 4.932189171
10.201675786 0.056749696 -0.122376496 0.033913046 6.019037393 -0.046661589 -0.058174787 -0.037118725 4.931347756
10.124980613 0.073731825 -0.110359576 0.044061395 6.104812331 -0.053442545 -0.052462238 -0.042512892 4.984820207
10.198826071 0.082890158 -0.112789040 0.049534323 6.069593926 0.000127732 -0.053617145 0.000101609 4.988276196
10.025998467 0.133444329 -0.150786874 0.079744986 6.074524745 -0.014514542 -0.071680385 -0.011546141 4.936558515
10.076218805 0.060141275 -0.071395520 0.035939820 6.118386253 -0.078908181 -0.033939680 -0.062770495 5.010131974
9.991040141 0.091122871 -0.059721663 0.054454109 6.133402307 -0.039697838 -0.028390215 -0.031579146 5.026078254
10.155289099 0.058645484 -0.024454743 0.035045950 6.136536806 -0.046121207 -0.011625186 -0.036688857 4.968600078
10.064690957 0.053924280 -0.065931534 0.032224606 6.058152236 -0.074492639 -0.031342235 -0.059257985 5.033009605
10.155839411 0.040290979 -0.103895542 0.024077483 6.042883978 -0.033735023 -0.049389395 -0.026835799 5.007798854
10.017005001 0.083207172 -0.189567328 0.049723767 6.073312403 -0.029220068 -0.090115662 -0.023244208 5.042512591
10.011349214 0.081505841 -0.068929474 0.048707069 6.184882472 0.007699984 -0.032767383 0.006125243 5.003822194
10.036221637 0.069434498 -0.162121329 0.041493356 6.092588647 -0.054352479 -0.077068507 -0.043236734 5.055428115
9.995513919 0.082989397 -0.095133139 0.049593627 6.116436746 -0.079494843 -0.045223963 -0.063237178 5.009173510
10.063827375 0.055842689 -0.088739197 0.033371028 6.130675292 -0.000029412 -0.042184440 -0.000023397 5.016574955
10.048455491 0.134652203 -0.128449731 0.080466799 6.092579777 -0.030244329 -0.061061854 -0.024058995 4.933228838
10.122586998 0.108219547 -0.088057248 0.064670911 6.130417624 -0.055704210 -0.041860258 -0.044312019 4.978897518
10.174418600 0.088040468 -0.117564636 0.052612096 6.079376446 -0.025689901 -0.055887347 -0.020436003 4.997735413
10.382007924 0.004010522 -0.006864281 0.002396648 6.194584429 -0.003044430 -0.003263111 -0.002421807 4.945889953
9.963162385 0.109134249 -0.083440688 0.065217528 6.199002629 -0.020520814 -0.039665658 -0.016324057 4.983087296
9.987723378 0.089491320 -0.056492388 0.053479111 6.135021892 -0.036989010 -0.026855097 -0.029424306 5.024963447
10.133060417 0.061736458 -0.025142569 0.036893085 6.136978884 -0.057137621 -0.011952161 -0.045452280 4.971393914
10.010887786 0.090630329 -0.194085319 0.054159771 6.065353935 -0.017910255 -0.092263404 -0.014247389 5.030763519
9.962407205 0.103213222 -0.094270714 0.061679181 6.173682997 -0.049526529 -0.044813987 -0.039397749 4.986321238
10.131521146 0.038237153 -0.102420712 0.022850137 6.065503746 -0.024857696 -0.048688297 -0.019773994 5.026744920
10.169542520 0.043840225 -0.106635464 0.026198477 6.030637365 -0.038370426 -0.050691886 -0.030523206 4.988341352
10.386961429 0.003113184 -0.005512623 0.001860407 6.199462559 -0.002463792 -0.002620566 -0.001959917 4.945794876
10.119613157 0.062853951 -0.028709642 0.037560888 6.134540288 -0.063455979 -0.013647860 -0.050478457 4.973137051
10.190424739 0.053395529 -0.037095931 0.031908630 6.114339499 -0.023483200 -0.017634496 -0.018680599 4.950508438
10.209086965 0.072028921 -0.102555358 0.043043757 6.062580502 0.015845337 -0.048752304 0.012604772 4.969025536
10.065691627 0.131674313 -0.115537673 0.078687242 6.104489182 -0.038980234 -0.054923778 -0.031008301 4.939682101
10.023147608 0.132618920 -0.154040150 0.079251730 6.072144821 -0.012307555 -0.073226912 -0.009790510 4.938525514
10.045758897 0.064683950 -0.140656577 0.038654477 6.101118489 -0.064664473 -0.066864690 -0.051439800 5.051640247
10.206891840 0.075628419 -0.106281810 0.045194781 6.063947189 0.011880292 -0.050523768 0.009450627 4.975563676
10.099778112 0.042894728 -0.050343084 0.025633457 6.045321856 -0.064506459 -0.023931868 -0.051314102 5.030268094
10.077500578 0.060272943 -0.069151126 0.036018503 6.119092143 -0.078795736 -0.032872751 -0.062681047 5.008173967
10.146850219 0.038872452 -0.102990700 0.023229786 6.051730157 -0.030348880 -0.048959255 -0.024142164 5.017407555
10.210686598 0.058142539 -0.076022785 0.034745395 6.066240585 0.014860275 -0.036139369 0.011821168 4.937801792
9.986907704 0.096080857 -0.069135094 0.057416952 6.202174749 0.002580687 -0.032865129 0.002052905 4.993162031
10.004542379 0.118037168 -0.180529689 0.070537822 6.057284588 -0.000653152 -0.085819390 -0.000519575 4.971320844
10.099761910 0.119976899 -0.096761888 0.071696985 6.123288593 -0.050583170 -0.045998230 -0.040238294 4.960806783
10.075470633 0.050088757 -0.060831905 0.029932536 6.053142254 -0.071711475 -0.028917997 -0.057045603 5.032664220
10.4063 0 0 0 6.2187 0 0 0 4.9469
10.065794549 0.055140800 -0.089433092 0.032951586 6.128640321 -0.000626383 -0.042514300 -0.000498280 5.016936893
10.088197161 0.108904154 -0.127942126 0.065080025 6.106026488 -0.086318583 -0.060820551 -0.068665380 5.030061743
10.062536843 0.060068851 -0.098445977 0.035896540 6.111429772 -0.077056272 -0.046798805 -0.061297325 5.030522551
10.184998364 0.088508720 -0.134271451 0.052891919 6.084043525 -0.075882423 -0.063829358 -0.060363542 4.958105885
10.202187915 0.084489141 -0.132564360 0.050489859 6.078370457 -0.067191853 -0.063017848 -0.053450300 4.941295397
10.157710410 0.077111616 -0.084687654 0.046081125 6.120286533 -0.055911357 -0.040258435 -0.044476802 5.007381177
10.391422220 0.002305422 -0.004244653 0.001377697 6.203869388 -0.001935605 -0.002017804 -0.001539750 4.945864029
10.207389298 0.074909883 -0.105581094 0.044765391 6.063601739 0.012758867 -0.050190665 0.010149523 4.974292665
10.143651529 0.038549525 -0.102815163 0.023036808 6.054767229 -0.029161970 -0.048875809 -0.023197991 5.020106059
10.056916375 0.060954998 -0.111619089 0.036426093 6.108627450 -0.074263164 -0.053060979 -0.059075441 5.038502461
10.199348535 0.053472551 -0.047519767 0.031954658 6.099568861 -0.010875443 -0.022589732 -0.008651282 4.939899249
10.145265086 0.038700154 -0.102896341 0.023126822 6.053246157 -0.029758119 -0.048914399 -0.023672221 5.018794432
10.021623761 0.070964564 -0.084929928 0.042407708 6.086985001 -0.081835325 -0.040373607 -0.065099003 5.022851196
10.341814353 0.010433742 -0.014957483 0.006235099 6.155608995 -0.008022914 -0.007110421 -0.006382130 4.952774734
10.061373277 0.060201423 -0.101054817 0.035975764 6.110868600 -0.076591803 -0.048038984 -0.060927845 5.032196629
10.021031136 0.101572095 -0.087305233 0.060698460 6.123157393 -0.060671445 -0.041502768 -0.048263394 5.036478214
9.989766886 0.094363581 -0.068655681 0.056390725 6.200938989 0.003711783 -0.032637228 0.002952678 4.994920158
10.067382927 0.052937472 -0.064654973 0.031634900 6.056819915 -0.073826853 -0.030735390 -0.058728361 5.032994864
10.211568504 0.065907543 -0.094263491 0.039385683 6.061996913 0.019718165 -0.044810554 0.015685560 4.956356439
10.353507763 0.008745671 -0.013114371 0.005226325 6.166795943 -0.006495252 -0.006234251 -0.005166894 4.949835622
9.978779405 0.091944325 -0.098345728 0.054945002 6.140803310 -0.071847318 -0.046751149 -0.057153665 5.000269366
10.149827216 0.087382854 -0.084717742 0.052219113 6.127070756 -0.057287654 -0.040272738 -0.045571630 5.002198027
9.967620323 0.058022639 -0.029029301 0.034673744 6.159469010 -0.011182005 -0.013799818 -0.008895148 5.004497759
10.146293060 0.060065824 -0.023965554 0.035894731 6.137757940 -0.050638870 -0.011392637 -0.040282604 4.969995611
10.088630645 0.124562263 -0.102199002 0.074437153 6.117905603 -0.047364370 -0.048582901 -0.037677779 4.953142179
10.047756938 0.063836206 -0.135489754 0.038147873 6.102722418 -0.066693375 -0.064408509 -0.053053767 5.049833437
9.966827598 0.108002670 -0.078755517 0.064541307 6.203002678 -0.013032591 -0.037438443 -0.010367267 4.983028278
10.163103889 0.093722446 -0.135791957 0.056007589 6.091296570 -0.083461000 -0.064552168 -0.066392207 4.977686397
9.969276587 0.106763918 -0.076539890 0.063801041 6.204140540 -0.009754141 -0.036385188 -0.007759300 4.983503997
10.019044678 0.041434771 -0.050927467 0.024761001 6.164649094 -0.021505213 -0.024209670 -0.017107134 4.987810691
9.986011013 0.087982704 -0.097567016 0.052577577 6.129930440 -0.075904831 -0.046380968 -0.060381367 5.004378180
10.140335853 0.038319526 -0.102684401 0.022899363 6.057819260 -0.027955350 -0.048813648 -0.022238140 5.022481231
10.000082646 0.094986430 -0.068469576 0.056762933 6.129538423 -0.046697285 -0.032548759 -0.037147121 5.029323092
10.056010268 0.058731865 -0.085806684 0.035097571 6.138644497 0.002098900 -0.040790395 0.001669649 5.015020953
10.134984706 0.061527173 -0.024830806 0.036768018 6.137228122 -0.056207179 -0.011803956 -0.044712126 4.971202794
10.125338143 0.062455478 -0.026883214 0.037322764 6.135692722 -0.060807477 -0.012779621 -0.048371606 4.972258730
10.012753172 0.040793154 -0.047307805 0.024377578 6.166925797 -0.019163185 -0.022488971 -0.015244080 4.988804396
10.006273689 0.098722476 -0.194220835 0.058995557 6.059136625 -0.008674885 -0.092327825 -0.006900765 5.015211659
10.219924023 0.064678696 -0.133199128 0.038651337 6.034668592 -0.047543355 -0.063319601 -0.037820159 4.911534175
10.158776036 0.058049236 -0.024916963 0.034689638 6.135575191 -0.044348084 -0.011844913 -0.035278360 4.967863963
9.980655696 0.045265388 -0.032568066 0.027050140 6.170476478 -0.010661109 -0.015482061 -0.008480782 4.998123178
10.035517635 0.065272233 -0.079104836 0.039006028 6.075852388 -0.080316525 -0.037604501 -0.063890816 5.028509932
10.196340964 0.053263351 -0.043045991 0.031829642 6.105861243 -0.016018159 -0.020463009 -0.012742250 4.943773377
10.051739207 0.062363852 -0.124942803 0.037268010 6.105580417 -0.070404633 -0.059394747 -0.056006027 5.045369927
10.217207040 0.080187001 -0.132717290 0.047918944 6.069372027 -0.057314219 -0.063090547 -0.045592762 4.924545566
10.142660688 0.080012455 -0.114392784 0.047814637 6.095544086 -0.048357818 -0.054379526 -0.038468054 4.989665742
10.008390194 0.123750462 -0.173039811 0.073952029 6.060373813 -0.002213174 -0.082258886 -0.001760553 4.958416533
10.047591195 0.106769620 -0.106475078 0.063804449 6.116688487 -0.074074424 -0.050615643 -0.058925301 5.039347324
10.193430177 0.085416502 -0.115005854 0.051044041 6.072480503 -0.006157508 -0.054670965 -0.004898223 4.992900664
9.966678499 0.069893061 -0.033256538 0.041767389 6.150416544 -0.015895692 -0.015809343 -0.012644829 5.012276637
10.225104615 0.072969165 -0.135934172 0.043605637 6.052001712 -0.048360299 -0.064619774 -0.038470028 4.910411159
10.059907442 0.057267905 -0.087303866 0.034222723 6.134692764 0.001086641 -0.041502118 0.000864409 5.015824172
10.168217175 0.043423961 -0.106306434 0.025949722 6.031655258 -0.037975552 -0.050535473 -0.030209088 4.990446679
10.212169830 0.062439659 -0.087702095 0.037313311 6.062531843 0.019591557 -0.041691427 0.015584845 4.948136102
10.180238566 0.088061285 -0.117425110 0.052624536 6.077389508 -0.019944723 -0.055821020 -0.015865784 4.997765083
10.202868857 0.054122605 -0.054646447 0.032343123 6.089479592 -0.003291231 -0.025977582 -0.002618134 4.935744656
10.097834949 0.044385837 -0.098490680 0.026524529 6.095130558 -0.012653375 -0.046820056 -0.010065605 5.024142414
10.207621225 0.055914013 -0.066619664 0.033413651 6.074016424 0.007952813 -0.031669355 0.006326365 4.934142909
10.123534846 0.037807226 -0.042591503 0.022593217 6.042234435 -0.056821790 -0.020246957 -0.045201041 5.026790537
10.003914596 0.105168229 -0.191592390 0.062847474 6.056483222 -0.003892564 -0.091078327 -0.003096487 5.001098117
10.018818514 0.081456355 -0.187719245 0.048677497 6.075420935 -0.032171111 -0.089237129 -0.025591726 5.044941299
10.115881973 0.063043004 -0.030176429 0.037673864 6.133728111 -0.065147858 -0.014345135 -0.051824326 4.973907333
10.057738600 0.108028253 -0.112628009 0.064556595 6.113980755 -0.078065615 -0.053540595 -0.062100245 5.038305226
10.000572521 0.080458404 -0.093385002 0.048081131 6.109745706 -0.080727042 -0.044392941 -0.064217377 5.011755602
10.070404304 0.054513865 -0.083557730 0.032576936 6.137515911 -0.043917273 -0.039721297 -0.034935655 4.980866792
10.105369944 0.063193021 -0.035799506 0.037763513 6.131162126 -0.069767239 -0.017018208 -0.055498988 4.977567939
10.093227506 0.108544191 -0.129876451 0.064864914 6.104979760 -0.087112439 -0.061740082 -0.069296882 5.028014745
10.197361263 0.085644687 -0.133027721 0.051180402 6.080105966 -0.069861071 -0.063238118 -0.055573630 4.946216378
10.062837633 0.108500840 -0.115531447 0.064839009 6.112574306 -0.079844277 -0.054920819 -0.063515148 5.037420112
10.211964660 0.060493999 -0.083071858 0.036150604 6.063428105 0.018320607 -0.039490325 0.014573819 4.943337897
10.184142420 0.053976116 -0.032991021 0.032255583 6.120621670 -0.029201102 -0.015683123 -0.023229121 4.956124895
9.964450549 0.101115272 -0.095622372 0.060425467 6.167181414 -0.055292903 -0.045456532 -0.043984830 4.988432148
10.152373378 0.084500928 -0.084741655 0.050496903 6.125462308 -0.056985882 -0.040284106 -0.045331574 5.004051663
10.150048062 0.082534367 -0.115473410 0.049321706 6.091343837 -0.044749196 -0.054893229 -0.035597440 4.991721076
10.100519896 0.065008354 -0.100285207 0.038848337 6.117511474 -0.053371331 -0.047673130 -0.042456243 4.979258205
10.179867954 0.054526893 -0.030907326 0.032584722 6.124102838 -0.032356025 -0.014692585 -0.025738823 4.959175825
10.163681868 0.032144207 -0.034624041 0.019209054 6.045801329 -0.044047095 -0.016459421 -0.035038927 5.016326057
9.962021440 0.103717635 -0.093901050 0.061980613 6.175284685 -0.048016403 -0.044638258 -0.038196463 4.985915209
10.218919364 0.079488322 -0.133099783 0.047501420 6.067529807 -0.055910723 -0.063272375 -0.044476298 4.922358968
10.127002849 0.037206053 -0.041687751 0.022233963 6.042146821 -0.055683578 -0.019817335 -0.044295607 5.026145640
10.086840541 0.046461242 -0.055666370 0.027764770 6.048884729 -0.068469806 -0.026462428 -0.054466895 5.031704828
10.038922608 0.066060549 -0.078570538 0.039477118 6.155924694 0.005499953 -0.037350508 0.004375146 5.010725314
10.010106078 0.098486014 -0.077840018 0.058854249 6.126127505 -0.053780482 -0.037003237 -0.042781717 5.033024816
9.980280233 0.085232283 -0.049215406 0.050933953 6.139056108 -0.030608217 -0.023395798 -0.024348463 5.022470720
10.171421485 0.087783608 -0.117485077 0.052458600 6.080506187 -0.028539967 -0.055849526 -0.022703196 4.997348247
10.087704526 0.047608250 -0.096080723 0.028450210 6.105467910 -0.008604960 -0.045674421 -0.006845141 5.021409524
10.050738350 0.062703870 -0.127597795 0.037471201 6.104907311 -0.069523772 -0.060656865 -0.055305313 5.046582192
10.197156540 0.053295724 -0.044132917 0.031848987 6.104334684 -0.014736635 -0.020979707 -0.011722813 4.942739054
10.027978255 0.103214562 -0.092828839 0.061679982 6.121474003 -0.064616004 -0.044128555 -0.051401243 5.038059389
10.163637995 0.086443724 -0.116962974 0.051657898 6.083945947 -0.035396057 -0.055601331 -0.028157132 4.995598789
10.031669226 0.069749050 -0.075427528 0.041681329 6.163503185 0.006510710 -0.035856398 0.005179190 5.008741049
10.045974330 0.061111519 -0.074558528 0.036519628 6.068790367 -0.078550009 -0.035443297 -0.062485574 5.031235613
10.116888859 0.070847170 -0.107597357 0.042337555 6.108791197 -0.054302912 -0.051149147 -0.043197305 4.982630865
9.965772216 0.100021308 -0.096231625 0.059771726 6.163878453 -0.057982698 -0.045746156 -0.046124529 4.989764410
10.042697433 0.066095638 -0.148192554 0.039498087 6.098492992 -0.061431424 -0.070447109 -0.048867949 5.053732978
10.003979123 0.096433434 -0.072171610 0.057627648 6.128113149 -0.049536901 -0.034308615 -0.039406001 5.030778915
10.170859227 0.044269341 -0.106975272 0.026454912 6.029670247 -0.038750797 -0.050853423 -0.030825786 4.986203618
10.171804980 0.031171148 -0.033411301 0.018627564 6.047523656 -0.041648171 -0.015882914 -0.033130612 5.013496425
10.105982945 0.042113689 -0.100049816 0.025166716 6.087356581 -0.015814843 -0.047561230 -0.012580514 5.026308420
10.405929583 0.000031699 -0.000093722 0.000018943 6.218329344 -0.000058071 -0.000044553 -0.000046195 4.946869757
10.203861676 0.079127248 -0.109498113 0.047285646 6.066180909 0.006958217 -0.052052720 0.005535177 4.981649766
9.963658889 0.109074067 -0.082661335 0.065181563 6.199832782 -0.019185225 -0.039295173 -0.015261612 4.983020227
10.078171065 0.049184313 -0.059574083 0.029392049 6.052031504 -0.070967992 -0.028320059 -0.056454172 5.032477132
10.144542263 0.080667036 -0.114692571 0.048205808 6.094485279 -0.047530556 -0.054522037 -0.037809978 4.990182960
10.122029429 0.039001928 -0.101950083 0.023307159 6.073417304 -0.021596894 -0.048464571 -0.017180066 5.028367346
9.990659288 0.085505980 -0.096545810 0.051097512 6.123203603 -0.077881169 -0.045895512 -0.061953520 5.006748914
10.004943071 0.101915272 -0.193186683 0.060903539 6.057559121 -0.006028881 -0.091836215 -0.004795901 5.008367333
9.972235570 0.078864984 -0.040930867 0.047128919 6.144261066 -0.022981495 -0.019457531 -0.018281499 5.018758363
10.098447082 0.064268985 -0.099230959 0.038406498 6.118743941 -0.053006146 -0.047171966 -0.042165742 4.979024212
10.209033296 0.026678426 -0.028350379 0.015942758 6.059184631 -0.031733953 -0.013477075 -0.025243972 4.999316606
10.009247867 0.124620471 -0.171707471 0.074471938 6.061038969 -0.002675492 -0.081625524 -0.002128322 4.956482334
10.012260880 0.088712188 -0.193375496 0.053013510 6.067238326 -0.020608323 -0.091925972 -0.016393670 5.034026492
10.120066750 0.039266245 -0.101800624 0.023465112 6.075055773 -0.020916396 -0.048393522 -0.016638738 5.028383844
10.113243346 0.039789281 -0.045607046 0.023777674 6.043024060 -0.060189431 -0.021680472 -0.047879958 5.028470321
10.118611912 0.110512962 -0.089252077 0.066041432 6.129665602 -0.054984726 -0.042428250 -0.043739679 4.975516747
10.028265769 0.074192359 -0.175644574 0.044336606 6.085111316 -0.045149376 -0.083497126 -0.035915778 5.053157771
10.023316362 0.102137330 -0.089165619 0.061036239 6.122594048 -0.062005496 -0.042387150 -0.049324615 5.037059420
10.219230256 0.064192942 -0.132868687 0.038361055 6.033506838 -0.047615647 -0.063162518 -0.037877667 4.912152192
10.192746690 0.028669294 -0.030482248 0.017132481 6.053244616 -0.035833319 -0.014490514 -0.028504968 5.005639186
10.154348499 0.095922776 -0.136267192 0.057322484 6.094017741 -0.085418079 -0.064778084 -0.067949040 4.985358947
10.195566183 0.054367172 -0.117923366 0.032489274 6.018932784 -0.045148084 -0.056057878 -0.035914750 4.940814254
10.138835809 0.078666688 -0.113719879 0.047010420 6.097657058 -0.049857878 -0.054059644 -0.039661334 4.988621172
10.176036202 0.030667512 -0.032800257 0.018326596 6.048527754 -0.040428585 -0.015592439 -0.032160446 5.011962908
10.186843624 0.088083194 -0.134100584 0.052637629 6.083461163 -0.075059607 -0.063748132 -0.059709002 4.956387938
10.055850357 0.061196774 -0.114281334 0.036570575 6.108051011 -0.073570146 -0.054326545 -0.058524154 5.039973493
9.986603079 0.042958784 -0.034932482 0.025671736 6.171670037 -0.011659367 -0.016606046 -0.009274884 4.996073188
10.019138313 0.131088982 -0.158754687 0.078337455 6.068844002 -0.009264151 -0.075468088 -0.007369519 4.942067802
10.089185521 0.061876934 -0.051277556 0.036977032 6.125307847 -0.076124506 -0.024376093 -0.060556116 4.991422322
10.320246840 0.013249143 -0.017555733 0.007917555 6.135597289 -0.011043772 -0.008345565 -0.008785186 4.959340604
10.122964466 0.073012814 -0.109729274 0.043631722 6.105805310 -0.053739536 -0.052162608 -0.042749145 4.984265524
10.139186340 0.097027491 -0.085045647 0.057982651 6.130602298 -0.057534400 -0.040428616 -0.045767913 4.993454371
10.030352001 0.103726167 -0.094627134 0.061985712 6.120911046 -0.065889366 -0.044983421 -0.052414187 5.038467659
10.236152460 0.023301440 -0.025183464 0.013924706 6.072601544 -0.025746009 -0.011971602 -0.020480636 4.989071462
10.212065338 0.060951583 -0.084239610 0.036424052 6.063147465 0.018722107 -0.040045446 0.014893208 4.944465823
10.059105129 0.060534515 -0.106315481 0.036174816 6.109754036 -0.075519160 -0.050539774 -0.060074571 5.035430513
10.094272620 0.062782388 -0.097047282 0.037518122 6.121324374 -0.052114859 -0.046133900 -0.041456735 4.978723629
9.976504289 0.102463910 -0.072235855 0.061231400 6.204764067 -0.003187164 -0.034339155 -0.002535350 4.986658893
10.169379196 0.092185818 -0.135423353 0.055089316 6.089204294 -0.081700237 -0.064376943 -0.064991542 4.972160040
10.061864853 0.056551219 -0.088029438 0.033794439 6.132692661 0.000541651 -0.041847037 0.000430877 5.016205018
10.073661818 0.059930769 -0.076014653 0.035814024 6.116999925 -0.079002806 -0.036135503 -0.062845769 5.014031524
10.073024380 0.109081636 -0.120961656 0.065186086 6.109775948 -0.082931095 -0.057502207 -0.065970675 5.035033601
10.147049860 0.090213030 -0.084715992 0.053910398 6.128411843 -0.057495732 -0.040271907 -0.045737154 5.000042289
10.224235348 0.069372372 -0.135398820 0.041456230 6.044884758 -0.047325035 -0.064365281 -0.037646488 4.908810251
10.019573936 0.076589668 -0.070934818 0.045769214 6.176436985 0.007595152 -0.033720674 0.006041851 5.005756483
10.023849401 0.077283983 -0.181776743 0.046184129 6.080779818 -0.039494009 -0.086412209 -0.031417003 5.050111634
10.393469412 0.001939356 -0.003651239 0.001158940 6.205897085 -0.001689746 -0.001735710 -0.001344172 4.945941538
9.965422622 0.108585015 -0.080304129 0.064889311 6.201929997 -0.015388187 -0.038174615 -0.012241115 4.982934786
10.137475414 0.098341396 -0.085203161 0.058767827 6.130842742 -0.057452327 -0.040503495 -0.045702625 4.991963734
10.208056849 0.056146256 -0.067799273 0.033552437 6.072772429 0.008934645 -0.032230113 0.007107401 4.934359345
10.082644431 0.060930841 -0.060661148 0.036411657 6.121934469 -0.077950091 -0.028836823 -0.062008346 5.000423647
10.188040727 0.051106238 -0.113282781 0.030540573 6.020779124 -0.043148916 -0.053851858 -0.034324436 4.954712127
10.015310923 0.085000694 -0.191121797 0.050795558 6.071236381 -0.026291288 -0.090854618 -0.020914399 5.039887984
10.210974852 0.058489354 -0.077198205 0.034952649 6.065613817 0.015552763 -0.036698135 0.012372033 4.938566077
10.052748288 0.062042841 -0.122280825 0.037076177 6.106228790 -0.071251466 -0.058129308 -0.056679672 5.044099623
10.085781719 0.059780911 -0.092414882 0.035724470 6.126918834 -0.049722338 -0.043931770 -0.039553513 4.978822892
10.050008278 0.048171475 -0.070855900 0.028786788 6.150290885 -0.034826399 -0.033683159 -0.027703975 4.984405291
9.966413696 0.068840049 -0.032616822 0.041138119 6.151136680 -0.015298071 -0.015505238 -0.012169429 5.011485816
10.086542023 0.061498773 -0.054857759 0.036751047 6.124001157 -0.076946668 -0.026078034 -0.061210136 4.994883161
10.004562663 0.102994244 -0.192715979 0.061548322 6.057143089 -0.005259012 -0.091612454 -0.004183480 5.005984509
10.182225385 0.048581894 -0.110618794 0.029032050 6.023086733 -0.041690723 -0.052585464 -0.033164461 4.965934828
10.106476516 0.041273182 -0.047875495 0.024664438 6.043996289 -0.062377301 -0.022758837 -0.049620382 5.029419521
9.974235409 0.103859056 -0.073319143 0.062065125 6.204862108 -0.004917872 -0.034854124 -0.003912107 4.985451142
10.193476239 0.053486228 -0.116503443 0.031962831 6.019279126 -0.044587074 -0.055382882 -0.035468473 4.944488731
10.008026866 0.097818056 -0.075941083 0.058455084 6.126769384 -0.052371012 -0.036100530 -0.041660501 5.032276155
9.962842830 0.102700258 -0.094626528 0.061372639 6.172070841 -0.051011691 -0.044983133 -0.040579178 4.986775742
10.211735447 0.065287656 -0.093216965 0.039015245 6.062037089 0.019850966 -0.044313061 0.015791201 4.954937640
10.114052340 0.063112671 -0.030985138 0.037715496 6.133313757 -0.065967635 -0.014729575 -0.052476449 4.974363982
10.029849022 0.043213055 -0.057647643 0.025823686 6.160250566 -0.025878865 -0.027404277 -0.020586322 4.986615419
10.207855475 0.074189053 -0.104859079 0.044334630 6.063292699 0.013596987 -0.049847437 0.010816237 4.973003368
10.216262610 0.080534771 -0.132557615 0.048126768 6.070264115 -0.058048239 -0.063014642 -0.046176666 4.925705816
10.188664480 0.087663657 -0.133924643 0.052386918 6.082890015 -0.074220868 -0.063664493 -0.059041795 4.954675272
10.101933271 0.118997092 -0.095774634 0.071111463 6.124221970 -0.051159992 -0.045528914 -0.040697150 4.962385067
10.151740018 0.059229322 -0.024138709 0.035394846 6.137227631 -0.047911654 -0.011474951 -0.038113136 4.969224449
9.993353966 0.041407304 -0.037774717 0.024744587 6.171616783 -0.013180425 -0.017957175 -0.010484867 4.993820060
9.960817525 0.107947826 -0.089077535 0.064508533 6.190162536 -0.032282225 -0.042345277 -0.025680117 4.983831826
10.214351835 0.061527235 -0.130467322 0.036768056 6.026951454 -0.047948025 -0.062020967 -0.038142069 4.916829729
9.967598656 0.107636936 -0.077999313 0.064322748 6.203443634 -0.011906480 -0.037078962 -0.009471460 4.983136980
9.998853022 0.040745568 -0.040243348 0.024349141 6.170807593 -0.014658518 -0.019130701 -0.011660672 4.992123172
10.056815362 0.133506488 -0.121783727 0.079782132 6.098570642 -0.034816496 -0.057892999 -0.027696098 4.935760770
10.046466295 0.134826809 -0.130163649 0.080571142 6.091089968 -0.029051140 -0.061876609 -0.023109828 4.932847934
10.211898828 0.081933473 -0.132179953 0.048962618 6.073588546 -0.061176799 -0.062835111 -0.048665398 4.930803102