5.0180156773 3.0550976428 2.3895801669 2.7335054436 4.5526932745 4.9019996258 2.1898104335 1.3342231631 2.4288013118 7.4330628933 1.6264660010 -0.0932564815 7.9844765882 4.5686501442 2.4430600148 1.0599150149 4.4291251806 2.1180465383 3.9768413556 1.5065097011 4.6952901510 9.1006672675 1.4877117686 2.6798996401 6.2017289365 4.6511568709 0.2118035243 1.2941061412 4.5270633560 3.6378911297 3.8387075414 1.4797758809 1.2257122527 8.8959747288 1.5384061721 1.1639261321 6.3702983237 4.4777435861 3.6915779161 4.7018564095 4.5740851192 0.5994606092 0.4306220345 1.3927118346 3.1609431812 5.4758819852 1.6153918291 4.2928291947 9.7246880530 4.4692703278 1.6657267672 1.7318694249 5.6737617489 1.3822185831 3.2393450665 0.3040699749 3.9781315760 8.3722768846 2.7060264643 3.3848090411 6.9251283072 3.4566706208 0.9800852772 8.3633165482 0.2835555791 3.3713570441 6.9258049342 5.8660225420 0.8600831888 1.8393267651 3.2542629207 1.4462974034 3.2707377813 2.7166841812 3.9729069083
5.1273073844 2.8645237212 2.4190553390 2.7401556480 4.5221239349 4.8551818457 2.1673147345 1.4873042125 2.3355304740 7.3332193653 1.5022091514 0.0087075182 7.8918159696 4.6770899555 2.4891471796 1.0735537776 4.5827636638 2.0850646717 3.9377743347 1.3787422715 4.6171719521 9.0043853488 1.5980319208 2.7565602959 6.1493603462 4.5411030373 0.1725617911 1.3060534245 4.6135492095 3.6049623142 3.7679169572 1.5048532173 1.1035935030 8.8118228706 1.5493277405 1.2329973932 6.2904472024 4.4853449967 3.6860580852 4.6483057699 4.4166592580 0.5480270655 0.4460273146 1.4570486938 3.1747821467 5.4497423548 1.4777010518 4.2652663948 9.6299829271 4.6821275384 1.6760797101 1.8229202093 5.7585518101 1.3429935211 3.2686776958 0.1489146375 3.9383651824 8.2986217818 2.8087886570 3.4440127078 6.8702245610 3.3435872266 0.9148874141 8.2324211720 0.3949418916 3.4752204015 6.8544512677 5.7622452558 0.8763019753 1.7756069383 3.3538017779 1.3924707028 3.2220171999 2.5682665932 3.8431501678
5.1116747528 2.9597891158 2.4299883317 2.8062692236 4.5706267210 4.8653777960 2.1816385272 1.4026673253 2.3472892926 7.4390220964 1.5714173563 0.0226615829 8.0096885857 4.5701298661 2.5041642055 1.0955211076 4.4416254493 2.1609721591 3.9792567441 1.4698268774 4.6408224674 9.1243523036 1.5037431147 2.7241146859 6.2031283690 4.6403706150 0.2314859353 1.3062045767 4.5422471593 3.6800847616 3.8258585445 1.3932388360 1.2216670518 8.9588192010 1.5558782209 1.1956665112 6.3295455904 4.6114718853 3.6467703930 4.7006967989 4.5662847635 0.6484099241 0.4167272120 1.4009665450 3.1333914706 5.4818191951 1.6097071583 4.2851449033 9.8042901041 4.4909162796 1.7281125493 1.8367776154 5.6311975160 1.4239202198 3.2943832182 0.2807327894 3.8681156808 8.3757726910 2.7030226547 3.4473036463 6.9339856261 3.4239825424 0.9686073475 8.3424551089 0.2974054590 3.3741875791 6.9343695520 5.8395741944 0.9296529351 1.8876648284 3.2394988043 1.5169748863 3.2458417923 2.6927303784 3.9557092887
4.9174403821 3.1723351047 2.4813311417 2.7060940018 4.5512151593 4.8985578811 2.1828163976 1.5060349794 2.3675972882 7.2454067642 1.3903743668 0.0894938520 7.8524666916 4.6770244330 2.5407017025 1.0791328715 4.5942370115 2.1658907281 3.9319850923 1.4072387629 4.6581228249 8.9411762773 1.6210997239 2.8081860744 6.0526155986 4.6049389897 0.2804563481 1.2194904583 4.5160115736 3.6982360592 3.7858845478 1.4933291543 1.1870312927 8.7420277675 1.5268138655 1.2892625972 6.2242491602 4.6735665283 3.7551002057 4.5544731046 4.6142554196 0.6770034030 0.4746200942 1.5548092218 3.1792711810 5.4346706521 1.4805897293 4.2751520544 9.5581933819 4.6752070219 1.7491772660 1.8163735435 5.8021392218 1.4987217361 3.1817538964 0.1978079870 4.0220488148 8.2161497294 2.8481669942 3.4525588937 6.7305620765 3.3634697149 0.9747566611 8.2302172516 0.4133992669 3.5681309394 6.7808804814 5.7960563924 1.0267850421 1.8123050948 3.3783554065 1.4748267610 3.2226833830 2.6229182246 3.9203723254
5.1827210390 2.8296935363 2.4070523268 2.7487470346 4.5294331442 4.8175872492 2.1661261804 1.4821391550 2.3328533818 7.3705766692 1.5223720367 -0.0147681754 7.9177096624 4.6618323625 2.4715477160 1.0546372835 4.5512634226 2.0697034570 3.9373199950 1.3819057527 4.5989029097 9.0464977727 1.5654883447 2.7393393879 6.1640279073 4.5553418014 0.1813433002 1.2864553560 4.6116607882 3.5873268130 3.7641885855 1.5060250270 1.1024689510 8.8512680931 1.5195663184 1.2077109145 6.3053639971 4.4790738649 3.6674037018 4.6566815251 4.4237415998 0.5345680809 0.4450494622 1.4310129884 3.1794852392 5.4502354211 1.4957270836 4.2707234352 9.6490263068 4.6749062405 1.6798803287 1.8000950795 5.7309596449 1.3000200853 3.2833305826 0.1397804836 3.9159026413 8.3221054821 2.7875102920 3.4052757365 6.8899082941 3.3459978792 0.8877571272 8.2803145265 0.3726331486 3.4566336937 6.8705837749 5.7693270328 0.8740133670 1.7445026012 3.3158558696 1.3844154746 3.2364598086 2.5665129209 3.8065921739
5.5594905318 2.2990885635 2.3383611063 2.8180690681 4.5723181818 4.9018758132 2.1900701459 1.4893413004 2.4852964320 7.5142390720 1.4387284751 -0.0234137122 8.0231691830 4.5922395555 2.5284348564 1.1033407825 4.4929494893 2.1685083992 3.9914725051 1.4986721494 4.7133806600 9.1608713423 1.5016800022 2.7212164499 6.1715262340 4.6001862460 0.2489467768 1.3193559867 4.5543680353 3.6949704586 3.7800040666 1.5445639466 1.2683677567 8.9692130508 1.5428518021 1.2019172006 6.4159732848 4.4801300936 3.7070655533 4.6824251814 4.5709768046 0.6145279122 0.3816255183 1.4660010069 3.1199851737 5.5059930786 1.5170008899 4.4171644093 9.8459707714 4.4669459242 1.8711764460 1.8033185534 5.6986857592 1.4205487891 3.2306868913 0.3290340094 4.0114449346 8.3771596494 2.6650188184 3.4314687591 6.9383453683 3.4411810190 1.0213776144 8.4142734602 0.2929136588 3.4038278312 6.9325419210 5.8101623487 0.9383346473 1.8491747453 3.2959553968 1.4894197474 3.3244868931 2.7242067913 3.9696438273
4.7591687617 3.3233367477 2.4294260663 2.7055894463 4.6009540692 4.9144051339 2.2038419722 1.4790860977 2.3737326130 7.2876378177 1.5275820625 0.0129669729 7.8471367009 4.8088379342 2.5420809027 1.0786186117 4.6028856739 2.1560157282 3.9298752232 1.4486541202 4.6217955781 8.9680539381 1.6109847382 2.8026873139 6.1194004901 4.6558216662 0.2815608951 1.2390213166 4.5766537925 3.6829901488 3.7763920090 1.4953923362 1.1599983780 8.7391644446 1.5858175427 1.2806273258 6.2684015845 4.6712833766 3.7369431281 4.5908115438 4.6126366608 0.5922108084 0.4907435189 1.5172517614 3.1921971433 5.4304555517 1.5521835915 4.2434377824 9.5663016296 4.6870669963 1.7336599754 1.8017378181 5.8226559162 1.4595759420 3.2342278756 0.2395713533 3.9206637051 8.2460818538 2.8100693026 3.5061560707 6.7783085194 3.4271730737 0.9998857217 8.2555553713 0.3811551063 3.4981375455 6.7947402295 5.8878112890 0.9857824954 1.8661615423 3.4152009748 1.4637893012 3.1756537966 2.6616365033 3.9203797795
4.9963674512 3.1369742926 2.4385834293 2.6920883212 4.5326938966 4.8639612136 2.2016373943 1.3346826151 2.4286405756 7.4104212646 1.5773657353 -0.0804026404 7.9322765177 4.5855789864 2.4431069635 1.0583400608 4.4600126459 2.0836620856 3.9670433775 1.4921135075 4.6507355564 9.0396581160 1.4881681653 2.6790572196 6.1755445611 4.6175037341 0.2041808638 1.2460549037 4.5151710727 3.6089879597 3.8240063853 1.5014871752 1.1956975321 8.8800356196 1.5179480538 1.1515253018 6.3492747851 4.5081018814 3.6573150714 4.6648226240 4.5902384877 0.5319663451 0.4174302751 1.4469604768 3.1419361738 5.4680108065 1.5254562962 4.2671436253 9.6817272743 4.5348994984 1.6326190878 1.7821671009 5.6888672912 1.3838625705 3.2095541602 0.2882815756 3.9604018567 8.2528354962 2.6606983503 3.4013963323 6.8721313823 3.4053276542 0.9690375256 8.3138196119 0.2633189051 3.3700734900 6.8861292149 5.8460013927 0.8580858732 1.8353225794 3.2610881742 1.4263682970 3.2782235576 2.7112507681 3.9155426115
4.7843787148 3.2990349193 2.4305932251 2.7054004820 4.6061877726 4.9063731947 2.1991399381 1.4866428010 2.3708637464 7.2882747203 1.5321680829 0.0088238989 7.8349440473 4.8080854558 2.5206766345 1.0780154796 4.6064043753 2.1484674460 3.9256929441 1.4424386434 4.6184819634 8.9585600356 1.6140696330 2.7873473124 6.1065563270 4.6694516055 0.2705169452 1.2385535639 4.5874567932 3.6778430082 3.7746484465 1.5130463320 1.1553550847 8.7466075287 1.5790059849 1.2644746404 6.2600396453 4.6752142463 3.7291429929 4.5855340532 4.6067637407 0.5950463043 0.4888701750 1.5224799821 3.1988513860 5.4239676871 1.5497475619 4.2421638307 9.5573717873 4.6893548069 1.7148732079 1.8155252600 5.8212993805 1.4708760800 3.2171463475 0.2297077101 3.9335237798 8.2279784419 2.8056353258 3.4829204170 6.7733574376 3.4365523504 0.9797087476 8.2388091886 0.3795780067 3.4807463279 6.7863649883 5.8949805697 0.9738132538 1.8456522044 3.4117522914 1.4608369816 3.1889079355 2.6608627719 3.9106599037
5.1045794348 2.9598766861 2.4235957537 2.8041921537 4.5734233223 4.8739176898 2.1827082250 1.3998155717 2.3520117055 7.4398313385 1.5797601340 0.0124861047 8.0080612597 4.5662166156 2.5010970828 1.0920699056 4.4393157328 2.1625874465 3.9755566687 1.4769769403 4.6502925215 9.1278405940 1.5052205992 2.7208489839 6.2047932912 4.6415985137 0.2321484147 1.3041203495 4.5444007340 3.6773966522 3.8230715712 1.3952650874 1.2264961925 8.9639249164 1.5482293609 1.1888626847 6.3285619670 4.6127195961 3.6517070986 4.7041365206 4.5717108694 0.6507923628 0.4204452807 1.3947893527 3.1315211182 5.4770315867 1.6129794207 4.2892287076 9.8041626387 4.4780068488 1.7266288553 1.8304775170 5.6307654068 1.4209271067 3.2992803994 0.2830955438 3.8758899189 8.3848707634 2.7086750147 3.4509864555 6.9365984835 3.4277560046 0.9751492836 8.3438431127 0.2987624928 3.3702633171 6.9341319132 5.8482234020 0.9236777032 1.8882021780 3.2356712332 1.5163548773 3.2375807402 2.6974008439 3.9681723944
4.9337679267 3.1091418673 2.4585393811 2.7170836713 4.5396815643 4.9239045320 2.1739396550 1.5198583715 2.3494574111 7.2435252809 1.3925958825 0.0924507968 7.8516571288 4.6903059141 2.5494958987 1.0920561965 4.6028863813 2.1668009687 3.9354779218 1.3969360535 4.6635724032 8.9232468322 1.6428459003 2.8359387319 6.0589539911 4.5932016534 0.2721809009 1.2398822308 4.5003721079 3.6861023202 3.7834726336 1.4924282345 1.1856911650 8.7138535319 1.5472479028 1.3092650038 6.2232149456 4.6133048095 3.7575880644 4.5543393843 4.5506712482 0.6675274761 0.4662103358 1.5579332299 3.1775177071 5.4343114696 1.4864090792 4.2735970808 9.5685074860 4.7038671075 1.7464411225 1.8261841538 5.8137514549 1.4629140568 3.1964110092 0.1873033015 4.0107711868 8.2318191907 2.8837061610 3.4749125577 6.7430610580 3.3698545254 0.9764791288 8.1899658158 0.4377442653 3.5616052811 6.7858304923 5.7842126997 1.0136542418 1.8569289801 3.4115282155 1.4534597547 3.2270389642 2.6107347681 3.9225337998
4.9541045537 3.2204771381 2.5025471061 2.6889864487 4.5492050593 4.8590208415 2.2057390426 1.4199681301 2.4091870047 7.3234988591 1.4577678538 0.0215508749 7.8664109322 4.6368833539 2.5025288347 1.0546675092 4.5315121796 2.1290830329 3.9416543604 1.4430804226 4.6512146135 8.9907589365 1.5391265951 2.7457545606 6.0993074942 4.6368703765 0.2469057110 1.1970230180 4.5527554184 3.6650158052 3.7958024376 1.5442189152 1.1938138675 8.8155646643 1.5034671264 1.2183650540 6.2793565116 4.6408680326 3.7021661743 4.5897280074 4.5993297021 0.5786242445 0.4522016508 1.5312871735 3.1679611375 5.4398137189 1.4531967779 4.2474815214 9.6024189648 4.6005362377 1.6804200164 1.8531236986 5.7315973794 1.4790458866 3.1922915614 0.2568554303 3.9404979610 8.2055612208 2.7413637094 3.3909997550 6.7574475409 3.3870295636 0.9534194966 8.2769206973 0.3071983141 3.4482352233 6.8663220698 5.8002418084 0.9780056380 1.7975870522 3.3304827268 1.4303280876 3.2319691400 2.6650733931 3.9268644346
5.1703943504 2.8640142741 2.3433352583 2.7620558690 4.5088769794 4.7097826506 2.1410951223 1.3858089302 2.2894565692 7.4705657102 1.5272007453 0.0013696216 8.0018065579 4.5053686867 2.4270413837 1.0297188995 4.3570581600 2.0045906176 3.9908150995 1.4639117047 4.5397514823 9.1600233907 1.4621514307 2.7026978910 6.1944734469 4.6440323478 0.2283635262 1.2348733123 4.3700820821 3.5304256994 3.8382790106 1.4406430224 1.1501836923 8.9780782542 1.5252234350 1.1756820600 6.3589508153 4.5476452731 3.6252323760 4.6978275903 4.5549593061 0.6231563271 0.4390807055 1.3937799002 3.1980075256 5.5038883170 1.4897412006 4.1911000576 9.7362646116 4.4669029089 1.5607765654 1.7998159561 5.5729582843 1.3340886107 3.2169730344 0.2825591640 3.8474247491 8.3721319759 2.6528572848 3.3880566433 6.9528097736 3.4435571801 0.9779837414 8.4240027265 0.2444360025 3.3817460991 6.8909499756 5.8605477011 0.9392584448 1.7440931714 3.1550077968 1.2787141065 3.3366245439 2.7032348658 3.7935652457
5.5955723175 2.2552555859 2.3163375322 2.8320468274 4.6069136698 4.8888215229 2.1882561733 1.5109603634 2.4671343120 7.5585576201 1.4517353780 -0.0140391679 8.0774344935 4.6357083459 2.5299132907 1.1075495197 4.5496097439 2.1724370389 4.0133545884 1.5293697729 4.6972022688 9.2109897171 1.5322366020 2.7254500251 6.2232350174 4.6219156114 0.2692402326 1.3677926372 4.5853713636 3.6871101647 3.7865990189 1.5654580990 1.2594770261 9.0147898326 1.5543957918 1.2011335156 6.4673673025 4.5264152122 3.7049151179 4.7103640912 4.6145953801 0.6145723187 0.3773991656 1.4803678883 3.0892260258 5.5447523176 1.5170015193 4.3939364578 9.9161219077 4.5259603525 1.8932129347 1.8068874392 5.7534225457 1.4255950547 3.2697110743 0.3208124321 4.0033179168 8.4108059343 2.6960896194 3.4318975412 6.9642979655 3.4457440037 1.0306620643 8.4679415027 0.2954474325 3.4185887526 6.9587729425 5.8562289225 0.9350669604 1.8692679597 3.3340006961 1.5180316521 3.3371890274 2.7316104856 3.9366019069
4.9999407112 2.9937118880 2.4329756938 2.7252041382 4.5226981679 4.9234928344 2.1674237706 1.5120734713 2.3340138111 7.2737146271 1.4338541790 0.0722275788 7.8545481988 4.6939576331 2.5356635740 1.1039041858 4.6030297254 2.1235117153 3.9302286713 1.3963078674 4.6409628293 8.9292019494 1.6482187720 2.8164023668 6.0994890705 4.5505566599 0.2331786476 1.2873864155 4.5476788965 3.6457566452 3.7933700080 1.4966757111 1.1465165956 8.7082694213 1.5609609633 1.2982911081 6.2308710454 4.5491220229 3.7390357409 4.5941626640 4.4747736676 0.5950090591 0.4460309302 1.5232035822 3.1801367548 5.4392701828 1.4471182747 4.2728911751 9.5977824932 4.7158180742 1.7044251130 1.8355556564 5.8191663576 1.4394824914 3.2485789550 0.1633309108 3.9791568217 8.2566804592 2.8793649486 3.4898811947 6.8045238100 3.3544953075 0.9770191648 8.1763950231 0.4294948750 3.5082949174 6.7987111845 5.7730279188 0.9328227815 1.8669795524 3.4123388258 1.4169472599 3.2118238542 2.6081076336 3.9167417486
5.1455214647 2.9805642488 2.4540168964 2.8166579098 4.5542527823 4.8300855449 2.1720728209 1.4121323920 2.3415002166 7.4227256330 1.5309472075 0.0682343742 8.0220264840 4.6032238675 2.5113605785 1.1002532541 4.4823083331 2.1533786591 4.0089872994 1.4507077986 4.5926811570 9.1107809127 1.5068037187 2.7523647733 6.1912408485 4.6264952426 0.2391853396 1.2853052354 4.5198793480 3.6753653608 3.8470609137 1.4102188872 1.1849326582 8.9156458637 1.5864108411 1.2254202125 6.3362693033 4.5914062626 3.6439931248 4.6957085369 4.5459466611 0.6199195864 0.4021318165 1.4435785564 3.1657480993 5.5230043874 1.5510790732 4.2675081893 9.8062526261 4.5636235898 1.7574393270 1.8608583080 5.6815575313 1.4364455670 3.2757019300 0.2580157088 3.8661196885 8.3257460677 2.7040492758 3.4273521115 6.9180117672 3.4093319480 0.9429474099 8.3552718417 0.2965081923 3.4248929168 6.9339247233 5.8180502332 0.9507598313 1.8550038697 3.2627533441 1.4943296515 3.2943502418 2.6745558687 3.8931284260
5.5651488269 2.2907538418 2.3343937627 2.8203894888 4.5774596256 4.8996166378 2.1897073123 1.4927808069 2.4828810018 7.5219568141 1.4401309740 -0.0221579051 8.0318663066 4.5992610398 2.5293215313 1.1053342827 4.5007152077 2.1689850282 3.9956833496 1.5026771762 4.7092521332 9.1687792972 1.5059944593 2.7214570425 6.1767707504 4.6034568644 0.2512658758 1.3271072238 4.5590185331 3.6940739338 3.7806653792 1.5496427079 1.2697327649 8.9759053644 1.5454568410 1.2018824542 6.4257510663 4.4857119971 3.7058129670 4.6879772171 4.5772035525 0.6149282054 0.3802053088 1.4677170452 3.1146512073 5.5110956903 1.5179178114 4.4130335705 9.8571356644 4.4748566170 1.8752358474 1.8038591062 5.7055752737 1.4199842660 3.2364433200 0.3293670338 4.0109057861 8.3829385317 2.6685537956 3.4312616963 6.9424528192 3.4433781674 1.0240879676 8.4235335055 0.2943112632 3.4059452001 6.9374145907 5.8155219966 0.9383492274 1.8531641437 3.3017715931 1.4946050414 3.3265588726 2.7252044935 3.9646384228
5.1514336228 2.8852550114 2.3487190627 2.7585982787 4.4968756311 4.7142894046 2.1460211191 1.3718414272 2.2925789542 7.4562114040 1.5262510220 0.0097567002 8.0025865076 4.4953920007 2.4317640336 1.0311321160 4.3519684542 2.0096261560 3.9917111978 1.4644185364 4.5467054370 9.1571354713 1.4639700999 2.7109469649 6.1933574815 4.6371096660 0.2277879358 1.2459073193 4.3686839952 3.5309817702 3.8372945041 1.4489326216 1.1523696074 8.9705616254 1.5361717705 1.1806345999 6.3534326495 4.5392239170 3.6242522307 4.6956666316 4.5563169582 0.6229713684 0.4406288063 1.3978964300 3.1973242599 5.5003153654 1.4846379712 4.1878868051 9.7377137963 4.4559762926 1.5649805539 1.7895614579 5.5664194740 1.3270155615 3.2073120868 0.2885488167 3.8533123977 8.3701591738 2.6515450731 3.3969007028 6.9400967068 3.4351757979 0.9812569953 8.4229498190 0.2371938180 3.3849528759 6.8923723373 5.8433175872 0.9324511264 1.7502164070 3.1494597496 1.2943979155 3.3362560835 2.6978427222 3.8029098451
5.0548612133 2.9890031660 2.3834562939 2.7814177701 4.5756610572 4.9157602964 2.1834437116 1.3656235145 2.3996880236 7.4388376591 1.6252299108 -0.0535110564 8.0041962294 4.5580869850 2.4674227834 1.0767207418 4.4359776263 2.1445846209 3.9729436111 1.5124095856 4.6883872702 9.1422904539 1.5036960994 2.6892810109 6.2156402281 4.6658464462 0.2333038408 1.2864176131 4.5363779509 3.6663559384 3.8344122365 1.4376370157 1.2294656504 8.9341053139 1.5313577458 1.1690381441 6.3404625608 4.5518603889 3.6953641248 4.7130672931 4.5771383020 0.6448472855 0.4397648895 1.3776235757 3.1581434369 5.4764222694 1.6238234459 4.3183421265 9.7692710057 4.4181783182 1.7167689899 1.7751335246 5.6540557367 1.3949270819 3.2959184558 0.2922175703 3.9575191605 8.4397316531 2.7248693004 3.4167011928 6.9430575966 3.4551316937 0.9921633600 8.3687690953 0.3144767395 3.3747849410 6.9414380443 5.8823737894 0.8807106051 1.8537084286 3.2417865734 1.4898401917 3.2168757288 2.7264036940 4.0249169014
5.0416316701 3.0498502974 2.3619429432 2.7461167811 4.5528504656 4.7614112112 2.1731551434 1.3841235220 2.3510212413 7.4422244685 1.6166879794 -0.0009041591 7.9443249680 4.6541128804 2.4817997076 1.0598082877 4.4783687719 2.0306515507 3.9573612947 1.5193449791 4.5600083205 9.0860669319 1.5087733418 2.8039184142 6.1584684449 4.6897369707 0.2586906217 1.2593907646 4.5068562858 3.5534159477 3.7514776078 1.5397997142 1.1142072951 8.8485234962 1.5318856105 1.2890180768 6.3216925263 4.6185522701 3.6915605970 4.6403309009 4.6106846616 0.5996410657 0.4791202498 1.3900126715 3.2565106881 5.4743466567 1.5398901650 4.2391999822 9.6491424967 4.6267217251 1.6449479596 1.7925838866 5.7016686154 1.3316458035 3.2305612017 0.3312998667 3.8270955719 8.3115622519 2.7144970907 3.4829266146 6.8780803246 3.4684833512 0.9814019994 8.3724168830 0.2893477185 3.4964529526 6.8684860995 5.8904361616 0.9848656252 1.7603420834 3.2585132418 1.3380308839 3.3033337054 2.7666511539 3.8348684578
5.1484071527 3.0319209700 2.4254895974 2.8003664716 4.5086935099 4.8208707461 2.1731481072 1.4461330178 2.3815304821 7.3568674482 1.4708467284 0.0730980243 7.9941140937 4.6619834461 2.5095092411 1.0800806744 4.5415257320 2.1308481435 4.0191060631 1.4186473890 4.5941025671 9.0751006204 1.5819485281 2.8224717697 6.1841500331 4.5784967532 0.2525304796 1.2957118216 4.4992085382 3.6530529429 3.8120736807 1.5902721064 1.1386522993 8.8674475293 1.4793615092 1.3002669166 6.3940785507 4.5566169084 3.7057919659 4.6666851753 4.5228764253 0.6024690957 0.4376342756 1.5578529241 3.1748956729 5.5236688517 1.3874440530 4.2008579290 9.7216230009 4.6648259725 1.7747795066 1.8306077872 5.7639983865 1.4697458092 3.2625765780 0.2127037084 3.9286908024 8.3062830720 2.7800325663 3.4888307859 6.8734499139 3.3557045721 0.9859957636 8.3621212114 0.3639702628 3.5571847344 6.8983271020 5.7861190712 0.9755989658 1.7714393016 3.3407553067 1.3817072555 3.3631793773 2.6478521836 3.8211749291
5.4038955062 2.5625328641 2.4425139528 2.7285816773 4.5229193546 4.9141768730 2.1819190718 1.4345735507 2.4667688315 7.3750088038 1.4795864888 -0.0415160916 7.8653161898 4.4973386369 2.4559638425 1.0381076753 4.4524614125 2.1434897969 3.9265931500 1.4546578695 4.7491537211 9.0084176135 1.4835655099 2.7207758397 6.1165622776 4.5776905878 0.1997734811 1.2547492259 4.4636376613 3.6662063811 3.7648863027 1.4486214868 1.2315166312 8.8790241564 1.4711056518 1.1908638757 6.2610915588 4.4904794812 3.7013658516 4.6250344148 4.5256383662 0.6291126641 0.4044099735 1.4502592880 3.2018068789 5.4372675250 1.4557289387 4.3930568879 9.6277373603 4.4873626243 1.7120504419 1.7750189415 5.6753151984 1.4530683311 3.2008341175 0.2687975997 4.0203029288 8.2044118470 2.6709627524 3.3958142629 6.8858571595 3.3685843541 0.9032156741 8.2457130870 0.2869460344 3.4092200465 6.8336537118 5.7872044769 0.8967386747 1.7770093182 3.2457269800 1.4643309047 3.2615653094 2.6799673189 3.9980642144
4.9687259298 3.2092276181 2.4931145204 2.6863358332 4.5426224845 4.8544404467 2.2075995954 1.3904603418 2.4169119448 7.3508616493 1.4880712409 -0.0078120285 7.8784489751 4.6232937606 2.4852112930 1.0537349174 4.5144812857 2.1125684338 3.9517362346 1.4543400087 4.6442023044 9.0035065944 1.5174973181 2.7229697288 6.1215449673 4.6349993383 0.2264090402 1.1966382405 4.5381800007 3.6411126480 3.8002047305 1.5434086545 1.1902392131 8.8317823158 1.5060220708 1.1894613317 6.3014700171 4.6013845286 3.6805902795 4.6039295837 4.5858162333 0.5520047649 0.4391500009 1.5197317413 3.1601429554 5.4485447203 1.4600756387 4.2486727257 9.6223921777 4.5797462217 1.6603291104 1.8568499293 5.7138975206 1.4422703302 3.1933069657 0.2705457055 3.9313880589 8.2093631124 2.7032831321 3.3885437484 6.7797141922 3.3919177266 0.9519726203 8.2765382606 0.2903995806 3.4188205074 6.8834781928 5.8091396275 0.9480946998 1.8093279970 3.3123988942 1.4223740323 3.2404922116 2.6814270620 3.9227045601
5.5285340159 2.3527744985 2.3623235480 2.8022886567 4.5485400898 4.9132271308 2.1915486635 1.4717753486 2.4943912750 7.4710592807 1.4367506696 -0.0295101691 7.9772615758 4.5560100104 2.5184665892 1.0849762539 4.4626440959 2.1676859008 3.9649918850 1.4877997834 4.7398702690 9.1219458977 1.4874750795 2.7206530354 6.1594778957 4.5850387553 0.2418908155 1.2838243339 4.5306387362 3.6936703822 3.7762917042 1.5086940730 1.2546384946 8.9375978939 1.5245597904 1.1981117017 6.3560139851 4.4635196823 3.7164998339 4.6517011727 4.5466220909 0.6110600596 0.3928310362 1.4583885377 3.1481857247 5.4890194783 1.5048550524 4.4356226991 9.7849385517 4.4372537683 1.8433679334 1.7998987908 5.6744468138 1.4310841800 3.2042888156 0.3152807269 4.0108078011 8.3392526299 2.6583186080 3.4342386977 6.9171583792 3.4186392577 0.9995308904 8.3581989249 0.2729876572 3.3980647105 6.9006503593 5.7974585319 0.9312259744 1.8267140825 3.2648542128 1.4631204065 3.3121787514 2.7175289432 3.9926450550
4.8272038628 3.2886098032 2.4655662149 2.7010673660 4.5113350206 4.8855293652 2.2062650766 1.3319271751 2.3607138213 7.3296498023 1.5304588441 0.0387015277 7.9393170749 4.6295848978 2.5815841306 1.0670140448 4.4960303823 2.1236780554 3.9649119851 1.4374696679 4.6364288288 9.0154771124 1.5476780512 2.8168019843 6.1514997327 4.5746055080 0.2405390535 1.2599170343 4.5884580317 3.6476710153 3.8067703421 1.4352237347 1.1362204397 8.7415183646 1.5299685989 1.3075596991 6.3232005161 4.5294533421 3.7394198209 4.6272695960 4.5933173638 0.5373557038 0.4509848184 1.4853987616 3.1347811066 5.4640649099 1.5347398976 4.2615456857 9.6507885122 4.4939217394 1.7144207681 1.7771365100 5.7107170227 1.3999619050 3.2472258407 0.2407424435 3.8918677915 8.3278512104 2.7558513821 3.5431593155 6.7380145451 3.3185288885 0.9900983010 8.2930087927 0.3316491305 3.5362314671 6.9100838579 5.7614131137 0.9168947146 1.8608209927 3.3131446069 1.4589174091 3.2296024860 2.6538978643 3.9421308886
5.0503117664 3.0342904629 2.4020579589 2.7143889065 4.5749707747 4.7559100145 2.1364215624 1.4059138718 2.3169692249 7.3632655718 1.5930099827 -0.0308298728 7.8610891302 4.6416774511 2.4571765788 1.0218572118 4.4915135825 2.0231547606 3.9255652974 1.5048984986 4.5367933025 8.9976744088 1.5658297453 2.7150545752 6.1382454069 4.6316263879 0.2751275483 1.2125010720 4.5323178676 3.5473284591 3.7602312053 1.5156145541 1.1207996024 8.8657365146 1.5618419607 1.1846613495 6.2931429945 4.5852095952 3.6855825326 4.6336461267 4.5248007547 0.6276238251 0.4593560794 1.4066960269 3.2199741490 5.4408333860 1.5720981571 4.2011701885 9.5624055311 4.6161987748 1.5122234950 1.7860827712 5.7040881446 1.3389469983 3.2172414117 0.2973355607 3.8253258110 8.2867992194 2.7976993774 3.3922339495 6.8511188193 3.4122379098 0.9976432395 8.2246295021 0.3809263930 3.4247416193 6.8512464828 5.8474878081 0.9695722006 1.7833464740 3.2825847377 1.3639459282 3.2260924753 2.7145949287 3.7943367364
4.8145446538 3.2975735919 2.4638005476 2.6989866975 4.5172085505 4.8879835451 2.2069203722 1.3387462053 2.3617515573 7.3271288930 1.5291109930 0.0374091001 7.9343191244 4.6426692923 2.5833146062 1.0689935430 4.5055276096 2.1262138582 3.9626756988 1.4376543823 4.6328923816 9.0099698805 1.5531096357 2.8164257217 6.1492630837 4.5776530232 0.2442637683 1.2631451446 4.5864681676 3.6512521542 3.8056860735 1.4342507560 1.1372992870 8.7372457305 1.5324591805 1.3078779176 6.3228786726 4.5361119123 3.7432736985 4.6249949504 4.5929391003 0.5354083828 0.4523833973 1.4850191024 3.1315890252 5.4625558696 1.5428558832 4.2604532440 9.6452937262 4.5045113701 1.7192573633 1.7777550037 5.7235404553 1.4047307475 3.2461937215 0.2382158885 3.8887170109 8.3229395295 2.7607962378 3.5470358377 6.7391529016 3.3236596916 0.9926238201 8.2919168542 0.3374293671 3.5395187656 6.9101886968 5.7682359348 0.9221559325 1.8639082936 3.3205781875 1.4646747912 3.2266737925 2.6550579348 3.9449669822
5.1588819093 3.0283365259 2.4365899187 2.8089309595 4.5200963747 4.8216282580 2.1697556360 1.4359092924 2.3753771307 7.3674630281 1.4839892952 0.0788348638 8.0111418195 4.6525223231 2.5116058499 1.0818758564 4.5353503419 2.1451896842 4.0266968837 1.4296358976 4.5974064071 9.0817046815 1.5720084436 2.8202847055 6.1855477881 4.5866403555 0.2508922772 1.2851757791 4.5010993301 3.6647836163 3.8234705167 1.5539802830 1.1526186356 8.8923364288 1.5039209375 1.2909356431 6.3834434715 4.5676107412 3.6961840807 4.6816303178 4.5316658027 0.6058423817 0.4257530272 1.5283382696 3.1835664958 5.5328430149 1.4041377643 4.2038019475 9.7469950064 4.6545793429 1.7819563636 1.8377742178 5.7560246778 1.4666811335 3.2777724077 0.2264791213 3.9152953919 8.2944845456 2.7644285892 3.4785337746 6.8868351948 3.3707177091 0.9884616574 8.3772919440 0.3481444045 3.5340857572 6.9010173555 5.7908314631 0.9665734730 1.7755585583 3.3340628187 1.4028606014 3.3622601907 2.6521346488 3.8303759107
5.1316210617 3.0287944743 2.4157455391 2.7895194447 4.4939883922 4.8210178727 2.1789552782 1.4560624684 2.3839441344 7.3489539012 1.4563359207 0.0648331277 7.9716978822 4.6674511488 2.5067496024 1.0822551328 4.5446061122 2.1085501554 4.0061653288 1.4062292461 4.5845915488 9.0653196718 1.5858669015 2.8198379006 6.1780891576 4.5723744159 0.2572644294 1.2994278532 4.4933186618 3.6355745913 3.8006213979 1.6095492943 1.1282568788 8.8356007075 1.4624344540 1.3076518968 6.3946135435 4.5428017680 3.7065173531 4.6577133630 4.5143137379 0.5925543537 0.4443347746 1.5827164115 3.1644337488 5.5143832893 1.3791647105 4.2091463788 9.6996532001 4.6655455913 1.7629855903 1.8266794263 5.7686489204 1.4640017474 3.2425145962 0.2018949943 3.9450497032 8.3251888206 2.7900114789 3.4872500245 6.8610686281 3.3382096918 0.9730684835 8.3462003245 0.3751358637 3.5715917709 6.8923110543 5.7730471190 0.9807668476 1.7716350978 3.3438555537 1.3662069782 3.3518072977 2.6378731512 3.8112378420
5.5235250828 2.3621286327 2.3664650183 2.7992008360 4.5455680576 4.9147657710 2.1916119599 1.4692598961 2.4950539107 7.4644176060 1.4374022228 -0.0303490599 7.9704983579 4.5508276452 2.5162043322 1.0816650437 4.4598386880 2.1675129213 3.9611652974 1.4873004299 4.7428181165 9.1163532434 1.4867089791 2.7208976183 6.1585778349 4.5831935763 0.2415518243 1.2800250872 4.5269538658 3.6926591327 3.7752128056 1.5023479145 1.2542825054 8.9336690596 1.5211291583 1.1973577782 6.3465358365 4.4630496488 3.7178558491 4.6491037552 4.5445205503 0.6103913955 0.3945072753 1.4573110258 3.1521695848 5.4869300625 1.5018211287 4.4374382246 9.7750005951 4.4350321598 1.8379697073 1.7990214584 5.6724458950 1.4337488939 3.2018654734 0.3124494203 4.0109305324 8.3324597640 2.6585931676 3.4346444251 6.9143844632 3.4135039316 0.9954151419 8.3494825554 0.2692573779 3.3981073004 6.8950250124 5.7976642425 0.9291574289 1.8231000556 3.2608628772 1.4603840405 3.3099690939 2.7159385382 3.9952218407