-28927.8138701601
-28927.8465406751
-28927.8308390344
-28927.8053110958
-28927.8400329399
-28927.5391089307
-28927.8098015161
-28927.8524180589
-28927.8306235203
-28927.8256511867
-28927.8096019207
-28927.8737234731
-28927.8112286164
-28927.5072436002
-28927.8301432396
-28927.8639989458
-28927.5329558958
-28927.8266668511
-28927.800915099
-28927.8188337861
-28927.8346561093
-28927.7470085589
-28927.8768783593
-28927.6070334081
-28927.8288768225
-28927.8647575988
-28927.8271177435
-28927.8526372465
-28927.8220541157
-28927.6169039244
-28927.8179928187
-28927.8453315379
-28927.8448328895
-28927.833291187
-28927.8828083971
-28927.8320208242
-28927.7976168089
-28927.8970872913
-28927.8257514606
-28927.7511974772
-28927.8148440551
-28927.8427725806
-28927.8354437424
-28927.8291783245
-28927.8593120594
-28927.84892167
-28927.7965853619
-28927.8659180277
-28927.8297381984
-28927.8289143742
-28927.84192862
-28927.7734505273
-28927.8620929254
-28927.8200403383
-28927.7884609993
-28927.8250884556
-28927.8580365265
-28927.8193811428
-28927.8536414821
-28927.8215892094
-28927.807075345
-28927.445616242
-28927.8649226358
-28927.8279558537
-28927.8230865151
-28927.8221886759
-28927.8943710524
-28927.8326143041
-28927.8715832988
-28927.4428865335
-28927.8165185067
-28927.890689218
-28927.8138255335
-28927.8411631642
-28927.8649348809
-28927.8388329185
-28927.808487343
-28927.7259971636
-28927.828794236
-28927.8486275151
-28927.8388289729
-28927.8073248733
-28927.8489566366
-28927.8197782928
-28927.7589529897
-28927.4831365034
-28927.8201991166
-28927.8434183065
-28927.8404873698
-28927.8464314214
-28927.8383134535
-28927.835162921
-28927.4403119297
-28927.8095828728
-28927.8438513754
-28927.8428997938
-28927.8776186446
-28927.8462018935
-28927.8233689691
-28927.4849374879
-28927.8410366313
-28927.8361277002
-28927.8025575773
-28927.7701112841
-28927.8204803461
-28927.464936995
-28927.8795951425
-28927.8377425589
-28927.8039414115
-28927.8329373031
-28927.8239255777
-28927.8414790882
-28927.8539319634
-28927.8548249046
-28927.8469741522
-28927.862027346
-28927.8721807245
-28927.8395578294
-28927.8303765771
-28927.8162481618
-28927.8242049024
-28927.8192727055
-28927.8555379785
-28927.8263009942
-28927.8036642637
-28927.845877534
-28927.8093789235
-28927.8042914858
-28927.8843244786
-28927.8439594045
-28927.8215249906
-28927.8406822032
-28927.8562465626
-28927.8470389153
-28927.7928171314
-28927.8087832667
-28927.8025473731
-28927.8177902301
-28927.8712058771
-28927.8246435497
-28927.8006118283
-28927.8659479602
-28927.8307692372
-28927.8500376082
-28927.6987023908
-28927.834964278
-28927.819316924
-28927.8145894927
-28927.8476288578
-28927.8494804554
-28927.8805019614
-28927.8108548682
-28927.8417321539
-28927.8413860253
-28927.8475306247
-28927.8293839064
-28927.8882740729
-28927.8968204839
-28927.8377217422
-28927.8364565496
-28927.8681411966
-28927.8821585896
-28927.6657487415
-28927.8936054605
-28927.8192333851
-28927.695294983
-28927.7428762403
-28927.8068005102
-28927.832022729
-28927.8242141542
-28927.8103792135
-28927.8283236153
-28927.8437011686
-28927.88276758
-28927.8397782415
-28927.8197982931
-28927.8002478763
-28927.7923572593
-28927.856108737
-28927.8971194008
-28927.8338173188
-28927.8308745452
-28927.8718809912
-28927.657981392
-28927.8319219108
-28927.4807053035
-28927.803083301
-28927.863168999
-28927.755054961
-28927.8399337545
-28927.8312597221
-28927.8660018387
-28927.8304334489
-28927.8168610979
-28927.869494282
-28927.6118921342
-28927.8571717492
-28927.8219860873
-28927.8313900646
-28927.7097842212
-28927.8196282221
-28927.8207598069
-28927.837288129
-28927.8052478294
-28927.6327085601
-28927.8527716706
-28927.8699149697
-28927.8418673944
-28927.6534026709
-28927.845508956
-28927.8432995288
-28927.8171881785
-28927.862922464
-28927.8216082574
-28927.519068301
-28927.8506191152
-28927.8340429011
-28927.841035815
-28927.5782512618
-28927.8280259229
-28927.8420129753
-28927.8723506595
-28927.8278974853
-28927.8545526548
-28927.8185775911
-28927.8318770121
-28927.8468651707
-28927.8373079933
-28927.8009074799
-28927.7910056705
-28927.8192746103
-28927.4396361353
-28927.8578689045
-28927.8329416569
-28927.8487751367
-28927.8257721412
-28927.8707932167
-28927.82087736
-28927.8372139781
-28927.8440109701
-28927.8781326674
-28927.8740621186
-28927.8079746808
-28927.8235408089
-28927.8319579659
-28927.8714479223
-28927.7177279003
-28927.8333864268
-28927.8707766178
-28927.8315572785
-28927.895102494
-28927.8210426691
-28927.8136470269
-28927.8708091354
-28927.8106750011
-28927.8226424255
-28927.8447100302
-28927.8192616849
-28927.8382163089
-28927.8289766882
-28927.8808852335
-28927.8184648
-28927.8517591356
-28927.8381769884
-28927.8477521253
-28927.8551602847
-28927.8276913592
-28927.8677539788
-28927.8522924784
-28927.7887252217
-28927.8602909885
-28927.8486196238
-28927.7928636628
-28927.8024366228
-28927.5920508278
-28927.8579438718
-28927.8913182088
-28927.8190038572
-28927.8461900566
-28927.4925577599
-28927.8449587421
-28927.888944561
-28927.8317317034
-28927.8272495826
-28927.8954808681
-28927.7926021616
-28927.7938921166
-28927.8466067987
-28927.8120351614
-28927.5562557673
-28927.8528421481
-28927.776553848
-28927.8177164873
-28927.4414795696
-28927.8235710135
-28927.8329630178
-28927.8204007529
-28927.8248446417
-28927.8492325599
-28927.8582599318
-28927.8219013239
-28927.8521549249
-28927.8533138572
-28927.8312903349
-28927.7933767332
-28927.822665147
-28927.7665509484
-28927.8185124198
-28927.889337085
-28927.8230357659
-28927.80900191
-28927.8612514138
-28927.7929769982
-28927.8506916335
-28927.8733616979
-28927.8668189961
-28927.8319259925
-28927.846025836
-28927.8046136684
-28927.8661642906
-28927.8473726627
-28927.8376914015
-28927.8353487747
-28927.867833436
-28927.8063101613
-28927.8174590677
-28927.8113722924
-28927.8552034147
-28927.8377926278
-28927.450275917
-28927.8903915256
-28927.8339624915
-28927.8862163491
-28927.8708959396
-28927.8110043947
-28927.8237346899
-28927.8444047186
-28927.8510177618
-28927.8567061626
-28927.8204695976
-28927.8333234324
-28927.477202656
-28927.8394986447
-28927.8190786885
-28927.8307076035
-28927.8559623398
-28927.4775977651
-28927.8112623585
-28927.8421712094
-28927.8929307546
-28927.8422497142
-28927.8442259399
-28927.8610428386
-28927.8205071493
-28927.8396125243
-28927.8221018717
-28927.6691022708
-28927.8694372741
-28927.5354740359
-28927.8062619972
-28927.8036076641
-28927.8355580301
-28927.8059421275
-28927.8810519032
-28927.8586992594
-28927.8404102256
-28927.4827381289
-28927.8073952147
-28927.8090627274
-28927.8182622113
-28927.8398708962
-28927.8359961332
-28927.8317489826
-28927.8526141168
-28927.8082252975
-28927.8210268865
-28927.8173987945
-28927.8017446377
-28927.803839505
-28927.8221705804
-28927.8227909996
-28927.8919718259
-28927.8539901958
-28927.5306691883
-28927.4561161573
-28927.8824781871
-28927.4467261938
-28927.8682807909
-28927.7884222231
-28927.8859047789
-28927.8203396633
-28927.8521501629
-28927.8120898563
-28927.8243489866
-28927.8041936609
-28927.843209051
-28927.8402866859
-28927.8727712112
-28927.8113997759
-28927.854888171
-28927.8695102006
-28927.8551654549
-28927.8495205922
-28927.8341140588
-28927.850977625
-28927.7955888815
-28927.8254212506
-28927.8604782027
-28927.8123124453
-28927.8264618134
-28927.8746780479
-28927.4511181089
-28927.8264946031
-28927.824280686
-28927.8490310597
-28927.8708966199
-28927.849819237
-28927.8170163387
-28927.821628802
-28927.8196469979
-28927.86549285
-28927.7962837239
-28927.8699244937
-28927.8708767556
-28927.6380774995
-28927.8531168469
-28927.8579029187
-28927.82669311
-28927.8296437749
-28927.815473318
-28927.8218141114
-28927.8320341577
-28927.8424683575
-28927.8725853575
-28927.8460071962
-28927.8204621145
-28927.4532003229
-28927.8252038318
-28927.805124834
-28927.8438792671
-28927.8315653058
-28927.8375176569
-28927.8429384339
-28927.8228499122
-28927.8185018074
-28927.8499888999
-28927.5303595229
-28927.8019306274
-28927.8608388894
-28927.795539629
-28927.8666293329
-28927.8475182436
-28927.8275615609
-28927.8127691881
-28927.8226318131
-28927.8241666704
-28927.8041248162
-28927.8108218064
-28927.8222613303
-28927.8199729901
-28927.8355842891
-28927.8438915122
-28927.8383635224
-28927.8193415503
-28927.5301407435
-28927.8871226237
-28927.4427134691
-28927.8544816331
-28927.8661921822
-28927.8147954828
-28927.6722602863
-28927.873969872
-28927.8353694553
-28927.8262974567
-28927.8654987005
-28927.8809327174
-28927.8351972074
-28927.7932601325
-28927.8394907534
-28927.829895208
-28927.8707424675
-28927.8433851086
-28927.8438638926
-28927.8809614254
-28927.8416227642
-28927.8189525638
-28927.8373901717
-28927.8360505559
-28927.8738417065
-28927.8662950412
-28927.8895364083
-28927.8364179094
-28927.8051023846
-28927.8462780854
-28927.8224275918
-28927.8294922076
-28927.8298032336
-28927.806228119
-28927.8535050171
-28927.8203841539
-28927.8052418429
-28927.8534032465
-28927.8653170646
-28927.8900702954
-28927.8057044362
-28927.8877344714
-28927.8393068045
-28927.7218260687
-28927.8252151245
-28927.8910689527
-28927.8157412139
-28927.8157088324
-28927.8147602441
-28927.8298900378
-28927.8183745943
-28927.8239878917
-28927.8385164503
-28927.8020681808
-28927.7945604278
-28927.7946797497
-28927.8312727836
-28927.8579853691
-28927.831470066
-28927.7999016116
-28927.8139492092
-28927.8334816666
-28927.806433973
-28927.8210874318
-28927.8812919074
-28927.8427955743
-28927.8963324479
-28927.8189468494
-28927.876796181
-28927.8622593229
-28927.8943355416
-28927.8289527422
-28927.8638996243
-28927.8335081976
-28927.8212547817
-28927.8402571616
-28927.8242914345
-28927.8182811232
-28927.8292930204
-28927.8203354456
-28927.4670422026
-28927.8472930695
-28927.8126388457
-28927.8342004549
-28927.8267407299
-28927.8397857246
-28927.8250005628
-28927.6832870137
-28927.8057389946
-28927.8660347644
-28927.8436413036
-28927.8361706941
-28927.8067141141
-28927.8327544427
-28927.8200935365
-28927.8444245829
-28927.8129351775
-28927.5233614388
-28927.8415394974
-28927.8259424844
-28927.6621937121
-28927.8038199128
-28927.8479940344
-28927.8811252378
-28927.4397021229
-28927.6860576754
-28927.8165593238
-28927.8418269855
-28927.8277377545
-28927.8424667248
-28927.8393531999
-28927.8226816099
-28927.8350631914
-28927.8701823214
-28927.8389240766
-28927.85809748
-28927.8235544146
-28927.8330311823
-28927.8410226174
-28927.8531518135
-28927.8212021277
-28927.7388578012
-28927.8341916112
-28927.8716797631
-28927.8625982405
-28927.7970181588
-28927.8180654731
-28927.8075424282
-28927.876772371
-28927.8413046633
-28927.8841361759
-28927.8363757318
-28927.8366595464
-28927.8303103175
-28927.7925907328
-28927.8243485784
-28927.8474296705
-28927.4407165628
-28927.5496507515
-28927.7987232232
-28927.8076131777
-28927.8304138567
-28927.8364157325
-28927.8494375975
-28927.8323427347
-28927.8471488492
-28927.8599177845
-28927.8709070963
-28927.864334462
-28927.8232497833
-28927.8738414344
-28927.8198833287
-28927.837580107
-28927.8431958535
-28927.8237508807
-28927.8312492458
-28927.7059630646
-28927.7891551613
-28927.8158329163
-28927.8739565385
-28927.8000651519
-28927.8346533881
-28927.8719004473
-28927.8012903438
-28927.8109751425
-28927.8210894726
-28927.8476919882
-28927.6485096584
-28927.8023375734
-28927.7980036185
-28927.8409524121
-28927.8105533663
-28927.825845748
-28927.8271689009
-28927.7882994998
-28927.804158014
-28927.8215709778
-28927.8515611728
-28927.823789929
-28927.8319092575
-28927.8521385981
-28927.5001097314
-28927.8104275137
-28927.8963676867
-28927.8119246833
-28927.8210874318
-28927.8394293917
-28927.6273481924
-28927.81383152
-28927.8181932305
-28927.8462779493
-28927.8636087348
-28927.8303482773
-28927.6806377147
-28927.8642918762
-28927.8312133268
-28927.8876654906
-28927.8005338678
-28927.8616326451
-28927.8670513812
-28927.8218571054
-28927.873436121
-28927.8323726672
-28927.8614342742
-28927.8048671423
-28927.8296162915
-28927.8251144424
-28927.8794068398
-28927.8165797323
-28927.8753361549
-28927.815944891
-28927.817921661
-28927.8433832038
-28927.8155564487
-28927.8261744613
-28927.8335045241
-28927.6920512517
-28927.8554121259
-28927.8325963446
-28927.8374530299
-28927.819919928
-28927.8250819248
-28927.8283256562
-28927.8442255317
-28927.8003216191
-28927.822842157
-28927.8038378723
-28927.8577333918
-28927.837697252
-28927.8857825998
-28927.8369738377
-28927.8442415864
-28927.8189637204
-28927.8539665219
-28927.5285152723
-28927.4725198514
-28927.8242204129
-28927.7951106417
-28927.4554824045
-28927.8585661958
-28927.8284709649
-28927.8475986532
-28927.7302337017
-28927.8364421275
-28927.8569399083
-28927.8454104508
-28927.8242525223
-28927.8596141057
-28927.8054456561
-28927.8448433659
-28927.8478679097
-28927.8406661485
-28927.8027588054
-28927.8390033977
-28927.8797348729
-28927.8596807735
-28927.8146746643
-28927.840064233
-28927.8599010496
-28927.8455935834
-28927.5708482726
-28927.5438691517
-28927.5296407346
-28927.8030430282
-28927.7902393983
-28927.8348203299
-28927.8883181553
-28927.8440145076
-28927.8108445279
-28927.8476084493
-28927.7794347157
-28927.8307393047
-28927.842404955
-28927.878859347
-28927.8273641424
-28927.8372489447
-28927.8004812138
-28927.8597892108
-28927.8446240423
-28927.8708217886
-28927.6433735123
-28927.8013454469
-28927.8152636544
-28927.8073516765
-28927.8635106378
-28927.7628106096
-28927.8315284344
-28927.8502396527
-28927.8563310539
-28927.8738593939
-28927.8793113279
-28927.826779098
-28927.8071860953
-28927.868601749
-28927.846480674
-28927.797638714
-28927.8129883757
-28927.884593599
-28927.8463266577
-28927.8474760659
-28927.8046142127
-28927.6752419722
-28927.8307708699
-28927.8311459786
-28927.8637812548
-28927.8510785792
-28927.8339468449
-28927.8251631508
-28927.513645211
-28927.8739572187
-28927.8238180928
-28927.4443154025
-28927.8039650854
-28927.826456099
-28927.8641468396
-28927.8765308701
-28927.8137141029
-28927.8135293377
-28927.8437215772
-28927.8778438187
-28927.8461203955
-28927.8222830994
-28927.8504665955
-28927.7891071332
-28927.8140292106
-28927.8721015394
-28927.8296761565
-28927.8705566138
-28927.8781917161
-28927.7896095912
-28927.8467804073
-28927.7962961051
-28927.8788223396
-28927.8430924503
-28927.7887012757
-28927.8187279339
-28927.8708144416
-28927.8121414218
-28927.805505249
-28927.8405200234
-28927.8311816255
-28927.7919164351
-28927.831960687
-28927.8757669109
-28927.7950998932
-28927.7985980509
-28927.8739021157
-28927.842440874
-28927.8968762672
-28927.8502554353
-28927.8909390184
-28927.8497414125
-28927.8753632302
-28927.890141181
-28927.8025062839
-28927.8391676184
-28927.8389525125
-28927.8667263414
-28927.8702521186
-28927.8234921005
-28927.8908509896
-28927.8593345088
-28927.4600098322
-28927.8306135882
-28927.8558590727
-28927.8679308527
-28927.8895625312
-28927.8425717607
-28927.807058474
-28927.7137104137
-28927.8022032853
-28927.7906583174
-28927.7847021567
-28927.8320846348
-28927.4485923496
-28927.81292198
-28927.8357743605
-28927.4612114863
-28927.5264847599
-28927.8746677076
-28927.8274309463
-28927.8120034602
-28927.8288311074
-28927.5977310652
-28927.8709212462
-28927.8222322141
-28927.851535186
-28927.7941872239
-28927.7990719369
-28927.8035109277
-28927.8042235935
-28927.8152296402
-28927.8473360634
-28927.8316910224
-28927.8513094677
-28927.8690647505
-28927.7897463283
-28927.8096011044
-28927.8043586979
-28927.8173445079
-28927.8434066056
-28927.841943042
-28927.8216674421
-28927.8262977288
-28927.8654944827
-28927.8845574079
-28927.8211750524
-28927.8051010241
-28927.8487106458
-28927.6220641525
-28927.8722458957
-28927.8287471603
-28927.8434183065
-28927.793036319
-28927.8710368945
-28927.6023176777
-28927.7998195693
-28927.8281110945
-28927.8233910103
-28927.8928095279
-28927.872306441
-28927.8227354884
-28927.7821314986
-28927.8022981169
-28927.8087148301
-28927.8309220291
-28927.445939241
-28927.819058552
-28927.872313652
-28927.8265597743
-28927.5634201128
-28927.8082589036
-28927.871923441
-28927.8742862042
-28927.798224847
-28927.8225756216
-28927.8195746157
-28927.8720891582
-28927.8462236626
-28927.8687076013
-28927.8257694201
-28927.8866079207
-28927.6780778051
-28927.8542653027
-28927.8128079643
-28927.860184456
-28927.8704670884
-28927.8540670679
-28927.8369228164
-28927.8638058811
-28927.8171766137
-28927.8281615716
-28927.8378509962
-28927.6889740539
-28927.8107354103
-28927.8759958946
-28927.8539750935
-28927.5853800965
-28927.8612239303
-28927.7872164873
-28927.8026122722
-28927.8621068032
-28927.8510463337
-28927.8395738841
-28927.4496616203
-28927.8400507634
-28927.8484892813
-28927.8414732377
-28927.832065995
-28927.8411374494
-28927.7898021116
-28927.8199353024
-28927.8219749306
-28927.8659735389
-28927.8767863849
-28927.7883166429
-28927.8640846616
-28927.8722288886
-28927.8719069781
-28927.814846232
-28927.8321142952
-28927.8813274183
-28927.8331012516
-28927.8010741495
-28927.8179194841
-28927.847110073
-28927.895779785
-28927.8293988726
-28927.8552084488
-28927.8417022214
-28927.8474990595
-28927.8049017008
-28927.8349864553
-28927.8421231813
-28927.7022634067
-28927.8549725262
-28927.8192302558
-28927.8374360228
-28927.7917346631
-28927.8201704086
-28927.8117537958
-28927.8288511077
-28927.8712265578
-28927.7998656926
-28927.5314308345
-28927.8316117012
-28927.8608504542
-28927.4708498896
-28927.8359902828
-28927.7345262953
-28927.8138966912
-28927.812113122
-28927.8627303517
-28927.8001256972
-28927.8262121491
-28927.8052320468
-28927.7941322569
-28927.8443867591
-28927.8678681305
-28927.8229621591
-28927.8254929526
-28927.8166597337
-28927.8452904487
-28927.8279411595
-28927.8272951616
-28927.828839815
-28927.8802614129
-28927.8250413799
-28927.8355055122
-28927.8752512554
-28927.870336882
-28927.8371671745
-28927.861996325
-28927.8794620789
-28927.8020032817
-28927.4476776394