0.106469069758165 0.0793521729550959 0.182235841208361 0.143462340028981 -0.0731241929871365 -0.101745184362 0.0618427123681329 0.234698659872531 -0.178276858607253 -0.0200255408398818 -0.313827146968232 0.364152865789538 -0.211528661491959 0.0677814433799781 0.164076406078236 0.0352505774490006 0.384309275712675 0.0887747469494722 -0.00260761147814245 -0.0660588051524535 -0.251178394175727 0.0326126269692391 0.271268469671596 0.108810572196683 0.0890611676935711 -0.181605664149307 -0.107778017700901 -0.213657019588593 -0.0794424186294036 -0.165764848651394 -0.0296147222329799 -0.0580747626331519 -0.115557143404182 0.0652836179500675 -0.0595050665823637 -0.243252201447649 -0.115157337069286 0.322740128579481 -0.114460311362597 -0.20120157387304 0.0830743570774651 -0.107371012280875 0.0029038024092034 0.0932507781290208 -0.0332021806193457 -0.0203243028727749 -0.286203485994051 0.0877632754887138 0.156455660247814 0.0497675326135519 0.0443545919263765 0.300309321975645 -0.0624579770365607 0.0360183084560735 0.108173453162682 -0.114680911899793 -0.0107811442024718 -0.123838919515644 -0.0966618589297027 0.185581616022507 0.0083776782098002 -0.270378611327497 0.0402302874774628 -0.175308007321697 -0.0310686803190473 0.0805631619180274 0.0537190590193468 0.205966082678154 0.0293419283285913 0.132913623432133 -0.203200348437335 0.00754386988564166 -0.183570243059235 0.104081030376486 0.0099193108683431
-0.0187340763896048 0.169826675325787 -0.111328709331067 -0.00946216896259106 -0.0545019595272292 0.0419400701958267 -0.0807490525804901 0.0660168961925899 -0.0732247230687726 0.30698673054386 -0.088146883882067 -0.0715205967744394 0.172040136893064 -0.148507870264346 -0.113841447151604 -0.161080815333626 -0.378190053352215 -0.0369295069453791 -0.0686574177741835 0.115060149420032 -0.065639715553817 0.10229180061151 -0.179490161561833 0.0792467577799788 -0.0121813662602478 0.104573653487522 0.474089837698875 -0.148535895274316 -0.244897192399843 -0.038976618224118 0.074221539249088 -0.0325730320010244 0.0926056886793404 -0.148457733778619 -0.128035986146407 -0.0990270155050757 -0.0758117657322581 0.160690779185693 -0.229960890526472 -0.0990864079573978 0.248515246898011 -0.0600923062408213 -0.111752169802818 -0.0188335780305081 0.12567931420708 -0.0346129441946333 -0.114880429401966 0.132685309589441 0.175288209837589 0.0892925668584625 -0.00451794013941226 -0.0350063227749486 0.151158419143085 -0.00814113684124458 0.0594081360432925 -0.102884696693998 0.0412129625977014 -0.0106554173228809 0.121979755780833 -0.0505961987340462 -0.013961597168812 0.0741940284594842 0.0154001286438867 0.138554620851818 0.0555648530246302 -0.0643554501886699 -0.0878499216204564 0.107049367441676 0.00356097603749487 0.129261373279598 -0.163851177557742 -0.00748319188240348 -0.0414577314921199 0.190870115381007 0.029214658787901
-0.0254477374936529 0.154618093768394 -0.0782810519318321 -0.0440164920354519 -0.163999015913089 0.0101874767894339 -0.117170252693658 -0.165774618838356 0.334178703520427 -0.116271138382963 -0.13941825395723 -0.060937170302858 0.205290654226854 0.078261511557908 -0.229847247825492 -0.202311004313603 0.110155515565068 -0.0665429436274429 0.123261964264515 0.313969843119915 -0.390800793618428 0.107972135889226 -0.0664871507176858 -0.0600108023127429 -0.155926784600946 -0.151113167750839 0.479075461261551 -0.220125911798222 -0.125744620193616 -0.0883510293675378 0.109416323788331 0.119374201184156 -0.0445937043967643 -0.178430610496814 0.000943851482573549 0.0160454752037503 0.0101879910098003 -0.228269105520933 0.0455375558793378 0.306736562335594 -0.0808763221211804 -0.12746160199711 -0.0348672261658306 0.102393616244062 0.157312094268096 0.190720220144194 -0.191509548406657 0.00541654022974039 0.0861452811057567 -0.0559073237886694 0.172387492750585 -0.0190919737646367 0.297771644467336 -0.0221690684373255 -0.00819692975100172 -0.0333585036107389 0.196272514550671 0.0393221743103558 0.0827701957307246 -0.161534614806996 -0.0560189096081837 0.0454532237392441 -0.0378011104664699 0.201086131400778 0.161369807179557 0.0949307360661321 -0.0301461689816804 -0.0989668517222039 -0.0517891899841528 -0.251474327996605 0.0533724744923762 -0.0957732861365199 0.0793560296078441 -0.0190289817697497 0.0045493075817642
0.131413899733454 -0.149171471647217 0.0556337585537312 -0.0434950725838967 0.103265991095702 0.201497250583735 0.0245571078190043 -0.255623829243474 0.13452441872996 0.188887024537888 0.376730953062483 -0.120256089112576 -0.313613488405982 0.0151193643238185 0.253557691811177 -0.127078764934306 -0.233263985050204 0.180157105377087 0.0321480288681739 0.112402401456163 0.0441566170853028 -0.13557522804875 -0.162705237471164 0.402110813467768 0.205923916608107 0.0650779298034974 0.0354344112299977 0.0343334654254812 0.195275184149989 -0.189173959502354 -0.0314947118926306 0.148353861264601 0.138078967012875 -0.0650928421941237 -0.0238860502408194 -0.0891434429521992 -0.00857539594069071 -0.191754060190892 0.0647843099742686 -0.131009208305077 -0.244440307604274 -0.186062412065115 -0.0984873412305124 -0.0171014267262046 -0.0204181480896475 -0.107127786047556 -0.0674104333856023 -0.0413332901634449 0.0248926366080968 0.00269939981354936 -0.0474039186992783 0.15326209466213 0.104390848147258 -0.072133290341035 0.119035844183049 0.0782370860905028 -0.248060161873725 -0.0374817796189198 -0.0254824473683866 -0.00203476998994472 -0.00246774353847478 0.101686563240227 0.0153610478960383 -0.0331710702871769 -0.0976316785407808 -0.314031292453703 0.106666530378872 -0.026591877808949 -0.0621605005545837 0.122339710037331 0.0743097280419299 -0.191067061781348 -0.00878982583349004 0.117513494788247 0.0579814316366457
-0.0775377463921644 0.171170333143256 -0.132540556556292 -0.137340032346322 -0.0562587934091211 0.105681798377168 -0.119369316090675 -0.03009731804687 -0.215397141308576 0.2584078183073 -0.12503345342685 -0.0344666485003853 -0.018982187716405 -0.184033555609384 0.0266065330893922 0.254714173415267 0.0420048619619963 -0.22261628103282 0.0154348385186204 0.0133733290696215 0.0634941310749076 -0.100003519980917 0.151672896619693 -0.305128595249782 -0.142487121104055 -0.0667447751212648 -0.419334881751365 0.0879350250910998 -0.305923837046459 0.0703057511587597 0.0439483578369006 -0.0413921683954006 -0.0818841940393739 -0.114310673235967 -0.0545808923534755 0.141037791001286 -0.0431371752088647 0.239757045617056 0.06948145591138 0.0240847964124427 0.23524039102856 0.0498495507619967 0.0266795523814246 0.0239827236697073 0.127225060628554 0.132681195826509 -0.238181988634696 0.0777727450996208 -0.0414317633636154 -0.0238978773092471 -0.284871141024643 -0.069876891373161 -0.0741886291456368 0.266523501240407 0.0674299737595265 0.116660146090164 0.0472864193455501 0.040779474828805 -0.0625510509228837 -0.00197486331725618 0.0899191443749516 0.0364271136473816 0.309601283996949 -0.0739346042846227 -0.035258290754497 0.0968055835221186 -0.059752149468431 0.201589038919142 0.108210991249431 0.114658029093487 -0.11397874398944 0.00838462018474694 -0.158509199281133 0.180243237288463 0.129947086138226
0.00941871734162812 0.325563969721705 0.142716463387481 -0.211766745521614 -0.0941460357869672 0.0215432622513859 0.0383011897728184 -0.0760567917368597 -0.30435855025106 -0.226745213465032 0.297319644765248 0.164687556983733 0.0501310864126146 -0.437475804948298 -0.37650341055034 -0.498041193926231 0.288891058739172 0.153558028483008 -0.280260641219274 0.520249600221588 0.512664849816815 0.209270976973169 0.325262379476797 0.0614832723320016 1.08151907329328 -0.186679219394642 0.359723114442968 0.0862905483592718 -0.0754708376293181 -0.142494834409552 0.0550879136347708 -0.328756249756473 -0.399417584298616 0.117672903101839 -0.177534067287952 -0.0931728737435074 -0.264452478714629 0.223332332893067 0.150991040413813 -0.21202976923904 0.0614601324155125 0.000763617244141499 0.152644516002053 0.0321364589099293 0.0256027749341301 0.353234938969597 -0.212272481251993 -0.0426147273165767 0.012254128442097 0.160733202365923 -0.109755452119989 0.00690700796182398 0.177572633815434 0.249308688923405 0.0650684167267185 -0.380924677260864 -0.158483231152629 -0.154519877678406 0.278895643256598 0.080498627262041 0.0133411902967199 -0.390013265127247 -0.197542381745558 -0.197601002867331 -0.380344379577354 0.128621940253948 -0.150948874343766 0.252031999983993 -0.132338467952287 -0.0465050614987669 -0.142870472387226 -0.0370308083575649 -0.0082717488143166 -0.0609047744197732 -0.0584514290515584
0.345664072514718 -0.190210113540701 0.185579044920675 -0.0995620617963412 0.184462672505166 -0.122387018311042 -0.10912090418782 -0.265343622609644 0.0172387235640401 0.162739947345897 0.281894833543773 0.134654259372483 -0.0392357852887963 -0.379170928701171 0.0845866791751218 0.116568871975124 0.0650344781825344 -0.0874172051821096 0.0156618668103971 0.275701049230181 -0.0145678629808274 -0.148603258142317 0.277490021884975 -0.219956219077302 -0.366017171728013 0.0367868107936961 -0.481877962258569 0.136535791693233 0.138833585400604 0.046559568857608 0.0365991203599509 0.00495991254435477 0.058008428205883 0.0269022098000867 -0.125723280048409 -0.0388694032777184 0.0831936562024758 -0.00724562207311501 0.104942863710615 0.106315060758421 0.0488524774714982 0.00819590131026888 -0.0162038550766093 -0.048526975979551 -0.0890331426836009 -0.0120489545158933 0.0363085858529206 0.034675421969154 -0.0525448368126147 -0.0670111412710731 -0.0822878570270177 0.0344849033233934 0.015664180802046 0.0557898244349413 -0.120195925329704 -0.149670522512833 0.0120816075091613 -0.139598745305845 -0.0135448215618243 0.0650866715497266 -0.0523545752770374 0.200380621058042 0.034360976215085 -0.120620928462555 -0.0945427567996643 0.134090930961064 0.164592683326127 -0.1420009257476 0.0155567087454631 -0.1340137979061 -0.0714398641769106 0.0981638966200309 0.180862872830006 -0.0119376258065622 0.0468254207870498
-0.0183664088276107 -0.121401257868605 -0.135707125572739 0.284039132471767 -0.0382741932035811 -0.15466025983844 -0.069497139632556 0.345700839270918 -0.280187879037425 -0.277394634007003 -0.365290835460437 0.304082671024473 0.0383227870282083 0.0163948879427363 -0.07938611149928 0.131452980481302 -0.149590047025488 0.152469166857102 -0.0263712772717526 -0.337913486041774 0.186052384767969 0.110964384201455 -0.0185373870994471 0.0829383457905456 0.0617576088974895 0.37060427450671 -0.315441798918807 0.00753641369032849 0.0236289400576067 0.121902108505503 -0.0173675357658297 0.0721587442491731 -0.0307910013211776 -0.0848041943901197 0.0278982546498524 0.105823980308485 -0.0882710681005587 0.0529258741041358 0.255072842120849 -0.148299096795577 -0.149994224233498 0.180249150822677 0.0805245953905455 0.00166221733446963 0.0780241988588027 -0.0458905681608887 0.0425139401247573 -0.0886518482818966 -0.202477611712325 -0.131343194433071 -0.0138397269419692 0.112853115607335 -0.00411941935543269 -0.00679670769322576 0.00173035153302097 -0.0309259841673643 -0.128130859804012 0.304759127916506 0.139062413463663 -0.297624834552722 -0.124881244198388 0.171557283968991 -0.156275940229749 0.0875179923739289 0.172539701979046 0.00620201183945496 0.149671550953566 -0.180725833102353 0.117938240810914 -0.122200870538396 0.220857133159279 -0.00408728058253111 -0.145308391144448 -0.129389157040655 0.100826272567198
0.344194944927841 -0.173465298638612 0.139841714428981 -0.158055399807763 0.130139147445086 -0.122575480075337 -0.109017803004352 -0.22716121774147 0.0457429869157247 0.0996340526476407 0.275359864017058 0.0685610014554788 0.0011323132468684 -0.356621851413057 0.0968390078459362 0.00611562281789552 -0.0193326288961238 0.157933786691104 -0.0173749919611428 0.336113971869469 -0.194191721837931 -0.0818502554951898 0.017322027263401 -0.0990725240075043 -0.218216611577686 -0.201918397063837 -0.25050476549571 0.0856336318411636 0.0749031383447847 0.00755672539480229 -0.0328008316233507 -0.0692767962055428 0.374945065729888 0.00900656971793828 -0.0891781528269329 -0.0754340708731187 0.0583365007996623 0.0269603167014927 -0.232051710536357 0.0179786866713261 0.117742579961489 0.0261169953005553 -0.0594675284956147 -0.0805240811701791 -0.126068836134647 0.0972426708335801 -0.0526193987657464 -0.0318541519287619 -0.0944357989634478 0.0141472307210915 -0.0349955241472537 0.0461924155159804 0.126204590311383 -0.106504036743082 -0.00191315687328515 -0.00149586704593106 -0.00561117263843235 -0.213296294001546 0.152570468269288 0.114110898623611 0.00699956762778053 0.198082570240488 0.128506240671503 -0.0224068953567971 0.0211339428397114 0.0698049005218615 0.17579008891522 -0.0382022023522816 0.0894887419282537 0.0433513479914808 -0.14452986150968 -0.00991493999522849 0.0172274107159788 -0.0363546085757157 -0.0306691310943349
-0.0178071941791233 0.162117226482156 -0.0318011872310201 -0.0878296099159826 -0.155917785744533 -0.0217039561158938 -0.124963519457016 -0.159686763920247 0.317082161887704 -0.073705262001197 -0.204410051849351 0.00664218447311498 0.21508372399524 0.149116964288376 -0.18721452279609 -0.0464017032051154 0.0337860778454215 -0.214352245524 0.124629276218839 0.223687144945901 -0.43198341721451 0.0366477141845781 -0.113282232503117 -0.150391202356378 -0.0972069325181135 0.00576646718909277 0.456466734410932 -0.149175585410149 -0.111992567824122 0.0733411939817679 0.143390349177681 0.111938574685647 -0.0656703116656193 -0.219420401455487 0.0694968825223728 0.135408363539845 0.025087526126972 -0.273219935962179 0.0440059505179402 0.249959434797116 -0.12672858086477 -0.113681010397279 -0.0561814032439741 0.126604396646279 0.191484094498519 0.205616669939168 -0.11969944556592 0.0213648277842364 -0.024248318488966 -0.0183926340662984 0.130872168577425 -0.0218065430789957 0.245247633579562 -0.00667046659326836 -0.0629824818103145 -0.0101257703454628 0.189451638500223 0.0600465406282095 -0.0183334987241595 -0.239851405054295 -0.0679976730440599 0.0515050832317028 -0.0847525152432939 0.201858747501332 0.19973938826111 0.0828231604284664 -0.0416878451060952 -0.210534416413475 -0.0498791184330662 -0.280679987928094 0.160665839497921 -0.0420223454544548 0.10977396405318 -0.0173477382817223 -0.00896903163118924
0.146492126427959 -0.0853428402239501 0.137407652324507 -0.0503195481769094 0.154149124794214 -0.0994314498232692 0.0505818005637863 -0.240048094344453 0.23102352691369 0.104777541862809 0.495834417223717 0.0413155495608033 -0.225368388433928 -0.0833114126663872 0.121692306596002 0.0760588486183254 0.0550861138634883 -0.39130113003496 -0.171976630677811 0.203423005855997 -0.0547698683381368 0.00712298051572259 0.00733406797614015 -0.378613513823966 -0.0404465171415446 -0.224562862229923 0.024977482968557 0.108419764718199 0.283568877946671 0.100047485822247 0.0617185281496412 0.0351395058498528 -0.156021658258551 -3.72809765658308e-05 -0.0338015044564143 0.102729402143338 -0.0424396352818089 0.141026992373591 0.0575086060097177 0.159192855258296 0.0751437934762717 -0.186542693887356 0.0194606697673637 -0.111033546840739 0.0540874979118905 0.0162249381116328 -0.165193292714112 0.0772752368951043 -0.0705042402201998 -0.049749534900727 -0.00903588027882452 -0.0919366879826211 -0.12048131763307 0.280258070117442 0.146004902630771 0.00508795341559465 -0.0174418406087781 -0.0738325315418873 -0.101719987564045 0.0605995846322998 0.127741852096811 -0.159974213105079 0.136379725812023 0.0370302941371984 -0.207320282013134 -0.0802327753325992 -0.0357483427637003 0.127639008023526 -0.106679900108399 -0.152126696093063 -0.145624122449433 0.0105924253279938 -0.106090860678659 0.144729636122036 0.0441761574592269
-0.032874879356116 -0.247591192899545 -0.159924847949902 -0.0518251854098026 0.0319215147967636 0.187749054866989 -0.168434166573507 0.0189814163858553 -0.103583007951603 -0.0272973881516845 0.212574585717268 -0.141488505152458 0.202119971447476 -0.0478826578604202 -0.117369513085648 0.132307871840484 -0.0593333169799777 0.0109220405828723 0.0890786511860296 0.0843395962890544 -0.123057818779044 -0.105324929442869 0.0104564140410743 0.0628780950759301 0.284698105871341 -0.253945413967462 -0.142368079089228 0.0760814743144481 -0.108080636386542 -0.128234475207847 0.0452951009765683 -0.220261151754592 -0.0547436430994491 -0.0349623569336193 0.016247049587389 -0.106167993733623 -0.079293037612957 -0.0713943556744819 0.22917721868804 -0.0863386279635326 0.147367843711981 0.0980795644799372 -0.0654368556192622 -0.0861668783611466 -0.0288446772342581 0.0175104890276959 0.116542132516069 0.152798782111981 -0.072450050086753 0.0308005143979565 0.0597012416521549 -0.136776703934903 0.247185215920252 -0.163967648470738 0.00127783761056675 -0.112647170350581 0.261539163228647 0.0544939891115496 -0.0918862943867114 0.170007938004952 0.11831644989042 -0.0489244683227977 0.0747527288876053 0.0558854694230964 0.235428081462305 0.0606533206605913 -0.264864112117952 0.110601601732942 -0.18782670214232 0.0242426620649353 -0.0322709275357495 0.15974461371147 0.0245697062179817 0.117938240810914 -0.07042582161432
0.0486478177656609 0.229170533823276 0.00559780290890529 -0.0503372887795511 -0.0496181515971054 0.0664804658529222 0.205826471848669 -0.109665977776231 -0.0411908511219451 -0.113148792318029 0.0546179162198581 -0.12197152825497 0.224506297989616 0.129228977396513 0.150591748299284 -0.16033519580231 0.138306766635201 0.0343221525774198 -0.00346481682897335 -0.0772199582057136 0.175153741211769 -0.0394828681748637 0.122424042177425 0.0392506976794227 -0.00227696778253101 -0.0400415686029847 0.323914350786213 0.174281880580495 0.075398075447469 -0.0605584470029858 -0.0638492002379242 0.268104728867164 -0.166235617396856 0.0497963289540717 -0.130180027964217 0.0929170491112109 -0.10489761231837 -0.173387651363282 0.0291550092253957 -0.0195115775836397 -0.14035464924449 -0.25157074431531 -0.0112688822200262 0.0701445430738854 -0.13709654900282 -0.0227781624613562 0.0353518788611864 0.0353498219797207 0.0859583620025611 -0.00943465817298731 0.0145740336252245 0.0277326756918635 0.15579745817879 -0.0973665979418886 0.00304675567106962 -0.201322672769334 -0.2608920168975 0.0191423673605464 0.161283675268181 0.0278136653995754 -0.199520844605379 -0.17408056330704 -0.321120848645608 -0.060802958787221 0.0363353253119747 0.0571805334159384 0.0692464572039237 -0.226370603928091 -0.130451022097323 -0.0527932052495981 0.0691832080988534 0.340516469536618 -0.00371704191870493 -0.213670903538486 0.19563693817777
0.0314654013317444 0.324897797237001 0.106223529533197 0.29267957728881 0.0643924740550525 0.191160649888038 0.192457513652162 -0.127109103935925 -0.167259173036226 -0.42329283591174 0.137272412368137 0.081956956221223 -0.0793370034542864 -0.300712727853105 -0.222480012635717 -0.0347029327587577 -0.0174508394651906 -0.107392866646448 0.0892550287717134 -0.429042848049107 -0.27990582916644 -0.124194245788844 -0.291443648638107 0.141686737103715 0.0615832881932714 0.0533714460516433 0.160884383153652 -0.253070210903806 0.0348345731725626 0.0955722259732476 0.0363792911533041 -0.227118280340873 0.0175197449942915 0.103503560904991 -0.100158557421394 0.150412285391401 -0.115457384653095 0.120704746382282 0.0196661008037505 0.26458386201825 -0.1052953617718 -0.108227446301156 -0.0170880569966775 0.148553635876957 0.153477552995662 -0.230125955264094 0.004215321453771 0.205081880758085 -0.118738367701072 0.0567221059592702 -0.0941524635415475 -0.00169744142956976 0.0877252231815983 0.203724596100906 0.112101068321438 0.170809350446025 -0.0778889589024329 0.185052997485822 -0.0661647345479371 -0.0815255253337923 0.119358260352797 -0.0958478480896516 -0.116529534117092 0.0931677315398432 0.307820795978202 -0.21825055012187 0.0698216126837703 -0.00350492601755452 0.145223030563621 -0.286449797549568 0.200313515300224 -0.215619027396688 0.0327452958237768 0.0522147073373697 0.0166424850491701
0.0991997935481946 0.0621553583509195 0.112879340846022 0.0935726800784031 0.209633759441682 -0.396700958102791 0.0527978332328959 -0.114448484294169 0.232599869446966 -0.124689182891528 0.177227591949562 -0.200448241036227 0.0834654216661315 -0.0638625699674513 -0.0634342244022191 -0.378519668607094 0.0637507270377538 0.20011708312025 0.156533050412961 -0.194801072972145 0.177449992258041 0.253239903624726 -0.24486891027969 -0.0718669241912268 -0.188945902769844 0.119282927069116 0.120253775120927 -0.0430469295345571 0.0179002680654462 0.0566657988291467 -0.165668946553055 0.0222485154839382 0.0548526578171312 0.205114790861537 -0.00454005161516855 -0.117583171647897 0.187551080025916 0.0259187633492984 -0.361456037077821 -0.0450400476748214 0.0465446564669817 0.186112548550841 0.0425247387524523 -0.025840858963785 -0.0290812186028137 0.0291989750667251 0.228743730919143 -0.00404357185138497 0.0529227887819373 -0.117374398179129 0.11268470843733 -0.00322236192620384 -0.11984265593797 -0.169385474251394 -0.163836779387482 0.0671947179418869 0.026741773045762 -0.0652923596962967 -0.0766962247625095 -0.0386768277504921 -0.0591176015362623 0.0203435861365158 -0.076995501015769 0.0646261872115928 0.00584977088845366 0.176084994295365 0.133316257979044 0.103315613361062 0.225701603231372 -0.206423738804272 -0.205323307220122 0.0293365290147438 -0.0102604960814663 -0.0025109380492545 -0.181808266973678
-0.052404968872947 0.0458383747936966 -0.216380073538998 -0.110333178701668 -0.0833492078633194 0.0958064533501543 0.134170892228043 0.00083817919727316 0.171285518505335 -0.207049030769845 0.086310088733196 -0.412810710852345 -0.0437681235984685 -0.152227483284883 -0.171443127047645 0.126504380785009 0.00315319928691964 -0.190040163709597 -0.0274696519744369 0.000230370724158513 0.293191997883953 -0.047065047477804 0.385647534216297 0.0400094298300831 0.288583812070233 -0.113343424726721 -0.0303726830530907 0.0687589762965525 0.0107346072593103 0.138634839228981 -0.114664199737884 0.240910699009131 0.0462839467412041 0.273024532222938 -0.332823732854897 0.164589340893746 0.10293046230661 0.0346180863982976 0.0703240059817678 -0.188529127162856 0.0371714476277822 0.12213633588241 0.111545196105332 -0.00375689399710289 -0.114312987227616 -0.0925113292421013 -0.200021181021911 -0.217909364908746 -0.273182912095797 -0.0665722541883292 -0.0710868518953597 -0.200509690370015 -0.139917047712662 0.0688934449223727 0.179395287904228 0.0922516479570566 0.0515369648944212 0.118512367850028 0.0854649675609761 0.11940968238944 0.0791493130205412 -0.110008962760637 0.291481958055406 0.108954811009465 0.0541553750002586 0.00218800765913945 -0.10051516924551 -0.0648956386835996 -0.0701903086864972 -0.129270886356377 0.149315967570183 -0.136853065659317 -0.00425671619326823 0.040275281759525 -0.0443725896392014
0.024091224167023 0.331248932982719 0.134199174348197 -0.147637038073804 -0.0784952247144482 0.0443304235691545 0.0626238131047328 -0.0812409043609759 -0.289771146896309 -0.258282348537892 0.276623303457365 0.159145289874402 0.0358275327001298 -0.428532227225247 -0.374167050315487 -0.500204261897599 0.259690026790981 0.128993721578874 -0.283987453324941 0.449457910816556 0.573472950807701 0.1657877314577 0.249415903869805 0.0704139945458922 1.11768187767232 -0.170903452773081 0.341935203527586 0.03855341486255 -0.0559379199004717 -0.11513522559353 0.0775981672852194 -0.334750516567892 -0.484173699084475 0.117499867948536 -0.172024967392255 -0.0740773004363057 -0.276590650464097 0.218264691181946 0.163610779536438 -0.257020708868868 0.0435380099844932 -0.00976453053804911 0.157473045242787 0.0492314578815536 0.0455100450897341 0.318616595461117 -0.192703310987313 -0.0050501582186624 0.0296424901327669 0.147653750235713 -0.100652208973163 0.0124551886053692 0.182523290393193 0.248225740831714 0.051813615451558 -0.361000437833168 -0.168477361084287 -0.116853750058123 0.256359421477645 0.0681637662224153 0.0126019985199836 -0.358142401036577 -0.205017860322465 -0.172260737430261 -0.320457247262736 0.0836541405406096 -0.133320114631793 0.240056836090682 -0.111687378036649 -0.0730180064814697 -0.119116833890761 -0.0762717358500255 -0.00309252128368146 -0.0307580912177264 -0.0474098322334921
0.0520396153026019 0.212841980307809 0.017939863033661 0.0255500673465715 -0.00740914414963824 0.11991387545872 0.168495873017478 -0.0678020121946351 -0.038221999836389 -0.00532423767396706 0.0624587483671103 -0.135463642229236 0.181773042878578 0.135446930067327 0.15312762603631 -0.0719525418822366 0.0947952389995791 -0.061821115112743 -0.101265416760125 -0.181012510956635 0.188104895360556 -0.15745170509758 -0.0286551870292304 -0.122981714164813 -0.164465928005804 -0.209724776446539 0.0248507276482331 0.0840369776034132 0.0963684962106571 0.0384595696456774 0.000257367293395838 0.200181874886419 -0.204401567213305 0.0248478994362178 -0.183568700398135 0.198475177490254 -0.109495770834944 -0.174915142961748 0.224738211374874 -0.0607219690795091 -0.13466120134743 -0.27808908861186 0.0494988524720947 0.0545914338709872 -0.0981793232310237 0.0443602483504072 0.0259915255311476 0.0693166482839407 -0.0870940176818113 -0.0121906222268434 0.0253513211749481 0.105751475236819 0.227285916180328 -0.0657297041179414 0.0503712273237352 -0.267383534803253 -0.217983669751695 -0.0180985000167032 0.174548246730304 0.0841254235064383 -0.134501535923655 -0.24652881362251 -0.318820740946587 -0.0100311537980406 0.182588339269546 0.0143323500530046 0.198424526784161 0.062260002195487 -0.00241657861201547 -0.0164496524117606 0.021711412311207 0.2427521221413 -0.0485550009895212 -0.0372184987913101 0.142620818399326
0.0845072321285091 0.17069365086358 0.22468190424475 -0.211947493980412 -0.0984755141620846 -0.194720340374616 0.0981086179306402 0.106840851083091 -0.0573656527478515 0.173469669511727 -0.312997709517188 0.127467515531324 0.0601558124560749 0.259562500140108 0.244270614883354 -0.235066584544708 -0.023472102845847 0.257978187191152 0.0216949572594814 -0.0858678592180703 -0.0319713941723068 -0.145208118172995 -0.0374411562099722 0.208924906666564 -0.243547106827793 -0.280100461575132 0.0493888093136797 0.101929532363363 0.0440838549034536 -0.0707664926070767 -0.0408116136017065 0.0198260233377088 0.123588751307378 0.05000587375339 0.0938732418825786 -0.0484680977475953 0.131194841857357 -0.0183162723418843 -0.207931432918631 0.166820028843298 -0.00968636904235247 -0.0836572258628081 -0.0909100470210531 0.0894599455877339 -0.0528893644581196 -0.000409576521857713 0.0543320096961257 -0.145785073424124 0.225093023427707 0.364600237508328 -0.0934605800385224 0.0244789463233077 -0.0151098512470396 0.0948332913066946 -0.164104945308573 0.0803852416712443 -0.186898791491105 -0.345391535720513 0.0435146129578209 0.0942565931657486 -0.0332358620533465 0.01007511963937 -0.0727768371296162 -0.0670558784429521 -0.13223948053175 -0.0248535558602485 0.0161506332686843 -0.10362671668275 0.135622536322462 0.144879788469032 -0.0596629322348563 -0.0527122155418861 0.279200318823705 -0.160250092331666 -0.236755541338232
0.126898530695874 0.0210244139016628 0.0768319789392458 0.00543659482403097 0.16634077546179 0.154622464641508 0.0209634787882414 0.0866687574387776 -0.347615538805302 -0.585949479558276 -0.281295766816888 0.335013026064952 -0.253187967367717 0.0565868660029004 0.10270883332868 -0.0447245734800195 0.0393627977193034 -0.058899572100898 0.347871620547782 -0.149070170235032 0.182204730876192 -0.214171497065201 0.216481117841 -0.0652067420052869 -0.013146557888028 0.260416363058557 -0.183596468297922 0.193851307955358 0.0960082848439763 0.170859486931752 0.0825148853187944 -0.0787263667691564 0.0267500005716248 0.282787262989704 0.030774546269452 -0.165563531377938 0.106040724192933 -0.0771816487884149 0.101389600978617 0.130238649085989 0.0529785816916944 -0.0689775199522833 -0.00685481459463182 0.193450216069546 -0.26383155762217 0.0954884080535203 0.0896311809697535 0.0479909012475527 -0.00705510342735445 -0.112642542367284 -0.134867660824549 0.0695732442467869 -0.0623695311335356 -0.00675428451299568 -0.0993946830670698 -0.251774118470231 0.0955737686343469 0.183822211038783 0.0696768596506216 -0.0646855796639149 -0.0402202601803175 -0.134874859909679 0.00137708214128682 -0.220680498463412 0.0209120567515989 0.172429658820631 -0.053401270832896 -0.0908344566271886 -0.268366467033675 -0.0185399582012792 0.12789303288454 0.155470671135927 -0.0881607678319605 -0.2894358752174 0.00514271788461894
-0.152585894880281 -0.123942020699112 0.127119645453437 -0.00261352501235634 0.0543114408814687 0.272313622566355 0.27828037858817 0.0845558259531363 -0.17300172897828 0.28281168845711 0.00620946803476813 0.000850006265700941 -0.266021622162775 0.0254752482832566 0.229385735046625 0.2257823358289 0.0264075298075856 -0.307489895172407 -0.150672995117179 0.00146064295083093 -0.190407831271591 -0.0583033335860279 -0.180172274877896 -0.0323606589896907 -0.182187247383734 0.280485869739768 0.289907672403595 -0.128005904254971 -0.00564562540298284 -0.0961057296034138 0.0172011854772911 -0.34614281167586 0.13687569135544 -0.118734511048323 0.211861619179219 0.0451017541187924 -0.173759175578024 0.0278871989119743 -0.147116132842616 0.192248740183394 0.0926594247076318 -0.112336838359444 -0.105659172681045 -0.0660554627200718 -0.0113239037992337 0.0537787085818521 0.221474968929539 0.323230951919234 0.134378123035712 -0.118171439747088 -0.0086077918237755 0.0921755433428257 0.0331232477930994 -0.163915455103545 -0.0652892743740981 0.0938822407389911 0.126098660915899 0.223167011045261 -0.0787363940663017 -0.189037948215434 0.0523342635725636 0.0130388287212619 -0.175529636299626 0.0372822621167468 -0.0738047636421003 -0.109751081246874 -0.0538298735083114 -0.0981109319222891 -0.0322125635241602 0.102900123304991 -0.00459841562675781 0.162900126990039 -0.234677833947691 -0.0774536713622539 0.0354128139746078