-1.02389356835134 -1.10487950031133 0.364436693819968 -1.10487950031133 1.11644891916276 0.474346172908529 0.364436693819968 0.474346172908529 -1.08752537203419
-0.315120375460168 -0.999492233821516 0.823566134638232 -0.999492233821516 0.396317036621684 1.08455540265739 0.823566134638232 1.08455540265739 -1.28754705556118
-1.82206042199165 0.540506393525824 0.0592074141318041 0.540506393525824 1.51074401865345 -1.30065319431479 0.0592074141318041 -1.30065319431479 1.38659944063515
3.45998599413591 0.786796593231127 -0.951831976201559 0.786796593231127 -1.02859261944362 -0.784877577150076 -0.951831976201559 -0.784877577150076 0.207253736753565
-0.168068245538089 -0.792045754834672 1.28465957796355 -0.792045754834672 0.183522796851936 0.888636700546217 1.28465957796355 0.888636700546217 -1.74250066063628
-1.34280959231932 0.217647864456967 -0.334244934701771 0.217647864456967 3.10148206851178 -0.660716731387222 -0.334244934701771 -0.660716731387222 0.336188219205851
1.19059739409225 -0.258573826269629 -0.60784145727562 -0.258573826269629 -2.02999750175858 -0.810455276367493 -0.60784145727562 -0.810455276367493 0.0733269059570589
-0.299846238525265 -0.0499743730875442 0.811122517036294 -0.0499743730875442 -0.0961045636298927 1.38390571627045 0.811122517036294 1.38390571627045 0.0768836509039141
1.89894795186865 -0.741475620151553 -0.666365102785552 -0.741475620151553 -1.84694836292296 -0.716438781029553 -0.666365102785552 -0.716438781029553 1.46561804398788
-1.78525401660885 0.539016737348712 0.189229280133058 0.539016737348712 0.92129811135489 -1.45649203496354 0.189229280133058 -1.45649203496354 0.995842979286095
3.68392783122304 -0.279986186027363 -0.889819111758194 -0.279986186027363 0.301081035659561 -0.974198510286988 -0.889819111758194 -0.974198510286988 -0.249302768380528
0.461517267447572 0.65766210611279 -0.16153104360665 0.65766210611279 -1.34416904144105 -0.321139098598935 -0.16153104360665 -0.321139098598935 -0.434595426846463
-1.73808365435362 0.385401158139281 0.449634684495828 0.385401158139281 0.759466988097995 0.187032914979357 0.449634684495828 0.187032914979357 1.02773642170475
-5.06303333508235 -0.00196317694264535 0.455457050693721 -0.00196317694264535 -1.52538848443544 -0.634106152474448 0.455457050693721 -0.634106152474448 1.80612278723372
2.04261539565214 -0.359669565901083 -0.600090398722663 -0.359669565901083 0.438527599066561 -0.126942199729794 -0.600090398722663 -0.126942199729794 0.59816703206009
-0.742354363032783 0.233420701778349 0.0095664222040307 0.233420701778349 0.285079381680115 -0.455361696911862 0.0095664222040307 -0.455361696911862 1.67603717014618
-1.63086134030299 0.192667389844864 -0.231590094864028 0.192667389844864 2.6642591585618 -0.638332362314296 -0.231590094864028 -0.638332362314296 0.375604103434936
-0.846026567609743 0.285156276136319 0.528766604756089 0.285156276136319 1.70527230033839 0.458893874841892 0.528766604756089 0.458893874841892 0.738384794498682
-2.47583117510436 -0.45242638114271 0.360015886271008 -0.45242638114271 0.45242638114271 -0.610294309881868 0.360015886271008 -0.610294309881868 -0.641097808172436
-1.06772652315062 -0.519486333525708 -0.743766411099537 -0.519486333525708 -1.82299447668984 0.594246359383651 -0.743766411099537 0.594246359383651 0.306707798391562
-0.952388786348717 -0.21056871746858 -0.857729454642658 -0.21056871746858 -2.24091479140875 -0.119773031954605 -0.857729454642658 -0.119773031954605 -0.519660412835304
0.249040890261379 0.896547204940965 -0.494250382211045 0.896547204940965 2.04021960098745 0.413791017665061 -0.494250382211045 0.413791017665061 -0.681988899485007
-0.261393853438509 0.24409573078449 0.355572521221501 0.24409573078449 -1.09746978171609 0.347884466708603 0.355572521221501 0.347884466708603 -0.299834126002995
-1.58133546477225 0.0675784386654807 -0.312791630394511 0.0675784386654807 2.83057117381699 -0.859211577318255 -0.312791630394511 -0.859211577318255 0.519388571457552
0.179491138970938 0.250901592109913 0.314591996260891 0.250901592109913 0.395652510634862 -0.11580073481996 0.314591996260891 -0.11580073481996 0.449692853550844
2.15030621672644 -1.18689391176516 0.163385712537293 -1.18689391176516 0.621616906320045 -0.1577517224498 0.163385712537293 -0.1577517224498 2.58600145015922
0.18337808902323 0.108096557740009 0.27410198569788 0.108096557740009 0.0154423653914299 -0.299195829458954 0.27410198569788 -0.299195829458954 0.555925154091476
-0.803854304250749 0.0579702623257752 -0.62221414896332 0.0579702623257752 -2.01543278685945 0.0908200776437144 -0.62221414896332 0.0908200776437144 -1.11302903665488
-0.214113367369391 -0.356855612282319 -0.979906221834691 -0.356855612282319 -1.02234310545745 0.138884346401767 -0.979906221834691 0.138884346401767 0.19675282406917
-1.60914538130801 0.0443769109953049 -0.272049758710348 0.0443769109953049 2.59122571594324 -0.872102772603384 -0.272049758710348 -0.872102772603384 0.368521304352315
-3.12412878331772 -0.119939130620973 -0.220840304000521 -0.119939130620973 -0.51021725407017 -0.614926018898003 -0.220840304000521 -0.614926018898003 1.03185728248519
3.51505390335053 -0.321774206355964 0.707526909882119 -0.321774206355964 1.51478500652954 -1.43951618632931 0.707526909882119 -1.43951618632931 0.809139817152424
-0.990589606786004 0.395090652417539 0.0286297574215608 0.395090652417539 2.4316207303379 -0.90088303353178 0.0286297574215608 -0.90088303353178 1.69297298886163
1.77276245273245 -0.45089827602108 0.094418869765098 -0.45089827602108 0.344917911999031 0.327575670613605 0.094418869765098 0.327575670613605 -0.678274329741112
2.21628008491784 -0.7419553571481 0.496554102070692 -0.7419553571481 -1.49924829273854 -0.277993609267376 0.496554102070692 -0.277993609267376 0.205140111666271
-0.493987489347342 0.96674895376179 0.540298816473655 0.96674895376179 0.968678592392053 0.287516155909195 0.540298816473655 0.287516155909195 -1.71930801956438
-1.06899960763677 -1.09022523161511 0.650275934609369 -1.09022523161511 -0.108057722071586 -0.218045046323023 0.650275934609369 -0.218045046323023 -1.9855606430654
2.43294612528651 -0.105198142209716 0.175967801514433 -0.105198142209716 -0.460959132228027 0.881751701066889 0.175967801514433 0.881751701066889 1.04050526112882
-1.46578018884546 -0.505974189034927 -0.971393194979269 -0.505974189034927 -2.17453029333331 0.811103661811715 -0.971393194979269 0.811103661811715 -0.519492583398456
0.176232177610365 0.844765112240989 -0.396522399623321 0.844765112240989 1.92897611797432 0.419509205398586 -0.396522399623321 0.419509205398586 -0.771973560619316
3.54973184988819 -0.287816095936881 -0.805885068623266 -0.287816095936881 -0.320435253476394 -1.01119388372491 -0.805885068623266 -1.01119388372491 -0.79437242478579
-1.62914222446754 0.122520684331284 -0.0478596423169078 0.122520684331284 -0.183781026496926 0.149322084028752 -0.0478596423169078 0.149322084028752 0.185695412189602
0.260004346956453 -0.975490761573844 -0.683223101491408 -0.975490761573844 -0.804684986200992 0.774319515023596 -0.683223101491408 0.774319515023596 1.11213538187213
-2.96422649634509 0.057261297418128 -0.559252004783716 0.057261297418128 -1.05360787249355 -0.391285532357208 -0.559252004783716 -0.391285532357208 1.05360787249355
-0.205958784266389 -0.156831000863397 0.14927288033986 -0.156831000863397 1.79883268460186 0.338225893428291 0.14927288033986 0.338225893428291 1.3850255859382
-0.403757328375566 -0.0711381959518854 0.805592002806486 -0.0711381959518854 -0.298011361420061 1.37469757042157 0.805592002806486 1.37469757042157 -0.0788288117304676
-2.45107497002368 -0.635892091279728 0.412366386466248 -0.635892091279728 -0.0828586664394797 -0.510640618754933 0.412366386466248 -0.510640618754933 -0.917226168027729
1.86077013064351 -1.10483226506959 0.36577638656803 -1.10483226506959 0.894745314835641 -0.617130416312214 0.36577638656803 -0.617130416312214 2.14588813453244
0.0539666526633167 0.487627254422111 -0.880812866683418 0.487627254422111 0.154190436180905 1.10438899914573 -0.880812866683418 1.10438899914573 -0.185028523417086
2.26417036056154 -0.290228968119518 -0.845700304454224 -0.290228968119518 0.132621184107594 -0.384409229297375 -0.845700304454224 -0.384409229297375 0.663105920537971
-0.88504220096032 -0.112079580034276 -0.743976522641317 -0.112079580034276 -2.34980636761517 -0.0869582948541799 -0.743976522641317 -0.0869582948541799 -0.78648946679225
0.0612795200762425 0.473001295588497 0.128303995159633 0.473001295588497 1.39793905173928 0.465341355578967 0.128303995159633 0.465341355578967 -1.59709749198707
-1.02609331590366 0.446878023561783 -0.310704891918493 0.446878023561783 0.700044972532407 0.258920743265411 -0.310704891918493 0.258920743265411 -1.19487128188408
1.5081372476859 0.281340324124145 1.45263473476344 0.281340324124145 0.177990817303031 -0.155024260231672 1.45263473476344 -0.155024260231672 -1.39904610159694
0.535608131188129 -0.16435628574365 -0.897191959824159 -0.16435628574365 -1.7015709582872 -0.775374948037689 -0.897191959824159 -0.775374948037689 -0.516272097571229
-0.667322847006806 0.528457977109436 1.22471100534486 0.528457977109436 -0.497599117132243 0.543887407098033 1.22471100534486 0.543887407098033 -2.64036120679861
1.06815461465508 0.0649682592097901 0.750956643219045 0.0649682592097901 0.0707007526694775 1.06051129004216 0.750956643219045 1.06051129004216 0.401274542178115
0.191230991466481 0.183504486760765 0.309060188228656 0.183504486760765 -0.678000787926614 -0.66641103086804 0.309060188228656 -0.66641103086804 -0.247248150582925
2.15194964265453 -1.23426183532287 -0.35614578149011 -1.23426183532287 0.0471092303558347 0.489935995700681 -0.35614578149011 0.489935995700681 2.64942311521214
-1.19723888171718 -0.493547751561349 -0.975527977695479 -0.493547751561349 -2.14577596674915 0.746105390055633 -0.975527977695479 0.746105390055633 -0.125314858794874
-0.862269918662391 -1.15355125583917 0.509260086189868 -1.15355125583917 0.733025881636932 0.148534191805378 0.509260086189868 0.148534191805378 -1.61844398603523
-6.88900822837422 0.559856000115715 -0.250148425583617 0.559856000115715 -3.98053645472343 -0.389119773130071 -0.250148425583617 -0.389119773130071 1.40361061021919
2.22014583649578 -1.35206113226041 0.138278979435723 -1.35206113226041 -2.23358962616314 -0.850799831805909 0.138278979435723 -0.850799831805909 0.236226589869361
2.41341852090518 -0.259404060766083 -0.914639503145595 -0.259404060766083 -0.0576453468369072 -0.509200563726014 -0.914639503145595 -0.509200563726014 0.526494167777086
-0.366573693795844 -0.339563000568782 -0.976243626635249 -0.339563000568782 -1.17882382583822 0.0964667615252222 -0.976243626635249 0.0964667615252222 0.0945374262947178
1.11294148975264 0.276329650709131 1.36068531452634 0.276329650709131 0.760382969882368 -0.844234725959621 1.36068531452634 -0.844234725959621 -1.69037517364827
2.43611682047333 -0.13395771990034 0.227728123830578 -0.13395771990034 -0.487988836779811 0.629601283531599 0.227728123830578 0.629601283531599 1.21710156938023
-1.55188056280493 0.981251188158643 0.190852392195885 0.981251188158643 0.154224155309806 0.133018333954708 0.190852392195885 0.133018333954708 -2.89555851594162
-0.540288549940124 0.410466566208928 -0.200460416055523 0.410466566208928 1.41849608694527 0.322645812508413 -0.200460416055523 0.322645812508413 -0.891571564742184
-6.80019101711761 0.673856987665264 -0.417433532182022 0.673856987665264 -3.94375298975777 -0.347861276818352 -0.417433532182022 -0.347861276818352 1.00184047723685
0.895887697314726 -0.462393650226955 -0.980659866523001 -0.462393650226955 -0.329455475786705 0.391107962483633 -0.980659866523001 0.391107962483633 0.947906982965258
-2.73559369628769 0.496680628882636 -0.63528917647779 0.496680628882636 -1.12041909306083 0.469728966850245 -0.63528917647779 0.469728966850245 -0.140533666311753
-1.33965532934083 0.109398787639581 0.514366229603642 0.109398787639581 0.978831257827826 -1.22641798774898 0.514366229603642 -1.22641798774898 -0.556590323078568
0.873046149245121 -1.07947137759158 -0.660939492595547 -1.07947137759158 -0.57003663974573 0.772674249223447 -0.660939492595547 0.772674249223447 1.58701230600306
1.80585985473643 -1.06701376671343 0.40130218994143 -1.06701376671343 0.973251572801879 -0.78385194110055 0.40130218994143 -0.78385194110055 1.97650704765545
-0.504208809198971 0.521595319861005 0.571823017329102 0.521595319861005 -1.02580412905998 0.676142081301303 0.571823017329102 0.676142081301303 -2.26411005510036
-1.86607202426106 -0.1153082610254 0.426640565793981 -0.1153082610254 1.07621043623707 -0.932075109955318 0.426640565793981 -0.932075109955318 -0.555401457272344
0.70725031709313 1.04075046661672 -0.90275040474489 1.04075046661672 2.52616779926489 0.346916822205573 -0.90275040474489 0.346916822205573 -0.621000278423236
0.0308336123237981 0.435524774073647 -0.925008369713942 0.435524774073647 0.0655214261880709 1.06375962517103 -0.925008369713942 1.06375962517103 -0.0346878138642728
-1.54588121574468 0.590280513972158 -0.263415082782364 0.590280513972158 0.0884459402042974 0.124977958984333 -0.263415082782364 0.124977958984333 -1.87659212259553
-1.47930958374399 0.477196639917416 0.00190878655966966 0.477196639917416 2.21228362265714 -1.06892047341501 0.00190878655966966 -1.06892047341501 1.63964765475624
1.09630165837956 -0.227752809311247 -0.602193868687364 -0.227752809311247 -2.0787269121035 -0.831876786552096 -0.602193868687364 -0.831876786552096 -0.13510759874396
3.55412876531471 -0.458597260040608 0.558210599311723 -0.458597260040608 1.38330976799134 -1.42277920430631 0.558210599311723 -1.42277920430631 1.20475755609029
-1.06435194338844 -0.560890502541029 -0.702548854718627 -0.560890502541029 -1.70947173641344 0.595347939557202 -0.702548854718627 0.595347939557202 0.300545422863282
0.0785296880297606 0.733582207692641 -0.212604765153742 0.733582207692641 1.72956849489936 0.432870963285997 -0.212604765153742 0.432870963285997 -0.999817003695976
-8.89157516975279 0.351666793230672 -0.829214313583687 0.351666793230672 -5.35692427642859 -0.657377130527791 -0.829214313583687 -0.657377130527791 -0.44357970509778
0.17190359204123 0.144862577562834 0.307108664433209 0.144862577562834 -0.676025361959894 -0.656710351618183 0.307108664433209 -0.656710351618183 -0.158383084802032
-0.255158643992616 -1.08055819690812 1.10182141724084 -1.08055819690812 0.763542911947601 1.07669215684763 1.10182141724084 1.07669215684763 -1.43623388247359
0.945862955011358 0.675616396436684 -0.347459861024581 0.675616396436684 0.123541283919851 1.26629816017847 -0.347459861024581 1.26629816017847 -1.08291656685994
-1.31304004576572 0.170599363610437 0.128428734403362 0.170599363610437 0.251106928460306 0.408288364595764 0.128428734403362 0.408288364595764 0.080507564849869
-2.24262232687299 0.0975053185596952 -0.336488942480517 0.0975053185596952 -0.743717037641597 -0.126183353430194 -0.336488942480517 -0.126183353430194 0.577384435392705
-3.00128768144112 -0.221454236688859 0.419597501094681 -0.221454236688859 -2.07079137114319 0.369090394481432 0.419597501094681 0.369090394481432 -1.84545197240716
-6.74237169220838 0.770158749965951 -0.571151321034181 0.770158749965951 -3.92442649853451 -0.32040196058015 -0.571151321034181 -0.32040196058015 0.610952806820535
-1.74838399876369 -0.0672455384139881 0.445741854629864 -0.0672455384139881 1.09322032450169 -0.991391366331939 0.445741854629864 -0.991391366331939 -0.5648625226775
-1.65283228011262 0.671523243025966 -0.194337672050495 0.671523243025966 -0.0173172183015292 0.0981309037086656 -0.194337672050495 0.0981309037086656 -2.17427296452534
0.938659603614159 0.610321882185338 -0.12554089348749 0.610321882185338 -0.409456452605353 1.11055405777395 -0.12554089348749 1.11055405777395 -1.28824270701779
-1.96790504034797 0.327984173391329 -0.295377559662366 0.327984173391329 -1.00313288119102 -0.0863116245766654 -0.295377559662366 -0.0863116245766654 1.32536294627724
-1.60608324050761 0.628969125324538 -0.232737810899906 0.628969125324538 0.0269283417570139 0.109636820010699 -0.232737810899906 0.109636820010699 -2.02539599072397
1.34594364242018 0.0305896282368222 0.284865912955406 0.0305896282368222 1.32300142124256 0.978868103578309 0.284865912955406 0.978868103578309 -0.843126628277411
-5.91945470485297 0.0236148458970198 0.478200629414652 0.0236148458970198 -2.55827497217715 -0.625793416271026 0.478200629414652 -0.625793416271026 2.23750664874263
0.990381571482234 0.666046086084544 -0.305029801743066 0.666046086084544 0.0270279571164742 1.24521659572328 -0.305029801743066 1.24521659572328 -1.11972965196822
1.62368263662533 -0.466664130716543 0.310466632418857 -0.466664130716543 0.0732778387075563 0.464735766540028 0.310466632418857 0.464735766540028 -1.25729344308755
0.919138425365793 -0.189234381692958 -0.598598554334866 -0.189234381692958 -2.17426442639051 -0.874726274560304 -0.598598554334866 -0.874726274560304 -0.519429068116383
0.0402166825826148 0.540052594680827 0.0497920831975231 0.540052594680827 1.46695137420395 0.455789069269634 0.0497920831975231 0.455789069269634 -1.44397041272817
-1.32305913366877 0.421234456450259 0.455699093796189 0.421234456450259 0.482504922843023 -1.54324987226777 0.455699093796189 -1.54324987226777 0.103393912037791
-6.53305522606712 0.100599582285454 0.398453247483562 0.100599582285454 -3.32373129707823 -0.591762248737964 0.398453247483562 -0.591762248737964 2.44003300562954
1.52374008614669 -0.225597653908794 0.835476057272399 -0.225597653908794 -1.02474866521283 0.938715661603543 0.835476057272399 0.938715661603543 -0.495167731884557
-3.16217305634523 -0.394058398058981 -0.0621175799895931 -0.394058398058981 -2.23623287962535 0.675528682386825 -0.0621175799895931 0.675528682386825 -2.12364476589421
3.55337619285525 0.299150936905245 -1.11989837918374 0.299150936905245 0.153410736874485 -0.782394758059873 -1.11989837918374 -0.782394758059873 0.7593831475287
-0.940687570542285 -0.229860001836821 -0.882739670919557 -0.229860001836821 -2.15759346261957 -0.112032605937274 -0.882739670919557 -0.112032605937274 -0.45392521371137
-0.804979222051072 -0.709602536973931 -0.663821728136903 -0.709602536973931 -1.35244139439386 0.658099127032275 -0.663821728136903 0.658099127032275 0.402489611025536
-0.23764213923549 0.525517576195555 0.421186880921437 0.525517576195555 -1.03557875309124 0.736111016656273 0.421186880921437 0.736111016656273 -2.06342930653254
2.24547493084977 -1.33805697934199 -0.31721178389573 -1.33805697934199 -2.17242009577076 -0.867045542648328 -0.31721178389573 -0.867045542648328 1.06698509128564
-1.5283763585798 0.288372897845246 0.0461396636552394 0.288372897845246 -0.288372897845246 0.680560038914781 0.0461396636552394 0.680560038914781 0.511381272178903
2.19473555539976 -1.18873494586946 -0.502038545100208 -1.18873494586946 -2.04470104766866 -0.807878118552059 -0.502038545100208 -0.807878118552059 1.42917486210519
0.840219221166656 1.01518477980777 -0.732548108156741 1.01518477980777 -1.15938716330319 -0.611418106020587 -0.732548108156741 -0.611418106020587 0.613340804467193
1.16786422046635 -0.107038291892169 0.938496452125985 -0.107038291892169 -0.709128683785622 0.970990219307537 0.938496452125985 0.970990219307537 -0.24657035096589
-1.70204550821517 0.762454775173312 -0.102045714859054 0.762454775173312 -0.0519855528527258 0.0866425880878763 -0.102045714859054 0.0866425880878763 -2.45872411084929
2.00262552102271 -0.37705533344904 -0.521336711044336 -0.37705533344904 0.484785428720194 -0.0634838061419302 -0.521336711044336 -0.0634838061419302 0.509794200836712
0.32071844123117 0.345834945664937 0.278213587574027 0.345834945664937 -0.56029125275325 -0.647232998870133 0.278213587574027 -0.647232998870133 -0.457893196215587
-0.50365480735643 -0.326121312043052 -0.972574800412417 -0.326121312043052 -1.33729035056707 0.0540319333562454 -0.972574800412417 0.0540319333562454 0.00192971190558019
0.318082232872387 -0.406759703854992 -0.979307723025289 -0.406759703854992 -0.607247899120012 0.271815726272767 -0.979307723025289 0.271815726272767 0.545559223653852
1.03051136820084 1.12471856417442 -0.807490251202148 1.12471856417442 -1.34389448950072 -0.674831138504652 -0.807490251202148 -0.674831138504652 0.740199396935302
1.28995136314499 0.233329437745345 1.29753931233996 0.233329437745345 1.50051695330543 -1.32789110911985 1.29753931233996 -1.32789110911985 -1.6503789499061
-2.21901167015207 0.328882479221856 0.383696225758832 0.328882479221856 0.0604841341097667 -0.0831656844009292 0.383696225758832 -0.0831656844009292 1.40247585967022
-0.830970593201656 -0.0483122437907939 -0.687966351580906 -0.0483122437907939 -2.26874296841568 -0.0328523257777399 -0.687966351580906 -0.0328523257777399 -0.921797611528348
3.04501422731034 1.25066514951358 -0.649346882543151 1.25066514951358 -2.47443427430645 -0.828013332473663 -0.649346882543151 -0.828013332473663 -0.49949760195627
0.987209843824979 0.00382639474350767 0.380726276979013 0.00382639474350767 1.26079706798578 0.753799764471011 0.380726276979013 0.753799764471011 -1.9476349244454
-2.55294887099129 0.413005272583241 -0.484080598562682 0.413005272583241 -1.25822536531173 0.157518290008492 -0.484080598562682 0.157518290008492 0.837536273703689
0.372883549131864 0.548699108567095 0.148767011829811 0.548699108567095 -0.879077797176155 0.890670031864192 0.148767011829811 0.890670031864192 -1.65962159950399
-3.21828887649438 -0.0457305701810925 -0.421102333750893 -0.0457305701810925 -0.777419693078572 -0.560199484718383 -0.421102333750893 -0.560199484718383 1.12992617155783
-1.19731820655462 -0.383064828142073 0.494711863479964 -0.383064828142073 -0.163620655236564 1.29934049746683 0.494711863479964 1.29934049746683 -0.15592085969602
2.98334350342307 -0.703618750807327 0.380892283770366 -0.703618750807327 1.20271898471332 -1.3640822182318 0.380892283770366 -1.3640822182318 1.57610600180841
0.500480558628808 -0.618354358151423 0.579707210766959 -0.618354358151423 -0.604827856566861 0.863763744042769 0.579707210766959 0.863763744042769 -1.92076322500786
-2.01732609091883 -0.84280258291733 0.543868028335668 -0.84280258291733 -0.5187960979514 -0.433937256650799 0.543868028335668 -0.433937256650799 -1.44838613219889
3.68365506011009 -0.264624881986045 -0.918516800516779 -0.264624881986045 0.396937322979067 -0.956868232688669 -0.918516800516779 -0.956868232688669 -0.109301581689888
-2.31507500617999 -0.269238862307583 0.614319657659556 -0.269238862307583 -0.305263780503668 -0.750835137139457 0.614319657659556 -0.750835137139457 1.24380770192799
0.245345123999952 0.264663637700736 0.305232516472381 0.264663637700736 -0.641374654866016 -0.668420574047113 0.305232516472381 -0.668420574047113 -0.386370274015672
-0.534808258263158 0.420206488635338 -0.200553096848684 0.420206488635338 1.41342182540977 0.336165190908271 -0.200553096848684 0.336165190908271 -0.922544245503948
-1.73786026181665 0.531490817145245 0.229420496609458 0.531490817145245 0.801059900661359 -1.48549771554624 0.229420496609458 -1.48549771554624 0.875621562059433
-0.930025320714005 -1.12683565829249 0.623232735665194 -1.12683565829249 0.164008614648735 -0.117700299924386 0.623232735665194 -0.117700299924386 -1.94301970530913
-0.888051530354724 0.239238020030906 -0.022966849922967 0.239238020030906 0.053589316486923 -0.411489394453159 -0.022966849922967 -0.411489394453159 1.65935490693437
0.0714027652849396 0.521047206133343 0.412978155972353 0.521047206133343 0.820166898543225 0.106139245693829 0.412978155972353 0.106139245693829 -0.104209441226669
-0.540326455748517 0.313122045027409 0.0744619497321278 0.313122045027409 2.17276150756824 -0.763712304944901 0.0744619497321278 -0.763712304944901 1.69162275545296
0.938358911671869 0.86543940524338 -1.00935948372066 0.86543940524338 2.60783182200832 0.0901899158457624 -1.00935948372066 0.0901899158457624 -1.28568603439704
2.19849877208993 0.0793954844606855 1.14745378732467 0.0793954844606855 1.75426213284562 -1.44991277574633 1.14745378732467 -1.44991277574633 -0.858227379646458
1.49051013851868 0.296952534023645 1.48667849291838 0.296952534023645 0.107286076808543 0 1.48667849291838 0 -1.42345634051334
1.25380008815567 -0.494971770592947 -0.986091620792174 -0.494971770592947 -0.242670984804324 0.456452566655752 -0.986091620792174 0.456452566655752 1.23261452599022
0.0599228063583038 -0.746135588848557 0.603094051090026 -0.746135588848557 -0.376933781931266 0.972295858007317 0.603094051090026 0.972295858007317 -1.62951373419517
1.13495277124443 0.114641694065094 0.58849402953415 0.114641694065094 0.49869136918316 1.09864956812382 0.58849402953415 1.09864956812382 0.573208470325471
-0.578279542262561 0.101823308106032 0.388081287498463 0.101823308106032 -0.518722512992994 0.672418072398326 0.388081287498463 0.672418072398326 0.322760674751197
1.85332348871583 -0.538868719460471 -1.05271853408885 -0.538868719460471 -0.37913263476326 0.560038562010703 -1.05271853408885 0.560038562010703 1.95147457690328
-0.201016505058716 -1.06500090660916 1.20223332833194 -1.06500090660916 0.777006106092345 1.04953809852772 1.20223332833194 1.04953809852772 -1.55014651016433
-1.85024817558491 0.110976622734152 -0.160724763959806 0.110976622734152 -0.41711903027664 0.0363544108956705 -0.160724763959806 0.0363544108956705 0.317622747825331
-0.108257045414503 -0.821593648235065 0.637943303335462 -0.821593648235065 -0.177850860323826 1.01490980076096 0.637943303335462 1.01490980076096 -1.47886856682312
-1.83765912507815 0.544420842668684 0.085961185684529 0.544420842668684 1.35436623667402 -1.34481499382019 0.085961185684529 -1.34481499382019 1.30469977383407
-2.22886343892405 0.474308309667228 -0.63626724467555 0.474308309667228 -0.973681692609554 0.576496685327241 -0.63626724467555 0.576496685327241 -0.873421399509165
2.44843709555645 -0.0994677570069808 0.170242891800409 -0.0994677570069808 -0.436127857645993 0.84738877604024 0.170242891800409 0.84738877604024 1.12666363225215
-3.23711704350692 -0.351480614801891 0.112629147284584 -0.351480614801891 -2.2253965997954 0.588390200469464 0.112629147284584 0.588390200469464 -2.13607003470762
-1.41547871848711 -0.606633736494478 0.327389635568448 -0.606633736494478 0.360128599125293 1.19400925913199 0.327389635568448 1.19400925913199 -0.127104211455986
-0.501097696581743 -0.0863961545830591 0.537576072961256 -0.0863961545830591 1.02331445317268 1.38809821696782 0.537576072961256 1.38809821696782 1.27866308782927
-1.76939563372513 0.412923299473476 -0.60973720856831 0.412923299473476 -1.03616734494045 0.544132572203365 -0.60973720856831 0.544132572203365 -1.15772887702844
-0.598286817917347 0.232773970958196 -0.402064131655066 0.232773970958196 1.99685439549262 -0.602134321569549 -0.402064131655066 -0.602134321569549 -1.22927741687841
2.41923884051223 -0.160772201426446 0.258383895149645 -0.160772201426446 -0.539735247645926 0.555046885877016 0.258383895149645 0.555046885877016 1.17325427945728
-3.17073158074383 -0.0933128212951639 -0.295173210219396 -0.0933128212951639 -0.603676823480958 -0.597963793605744 -0.295173210219396 -0.597963793605744 1.07024092995678
0.884809416949395 0.811875018155302 -0.976937078584039 0.811875018155302 2.56038126292949 0.0345478731129916 -0.976937078584039 0.0345478731129916 -1.37807627195155
0.32952540783948 0.940680088658051 -0.588164536085584 0.940680088658051 2.14766268713987 0.404243378221688 -0.588164536085584 0.404243378221688 -0.618818062396233
0.726631823287182 0.465740078223965 -0.164265172817581 0.465740078223965 -0.150737452703192 -0.458009952444314 -0.164265172817581 -0.458009952444314 0.0173927830042145
1.84506281294003 -0.435265340004642 -0.0751121604432789 -0.435265340004642 0.469932490978463 0.225336481329837 -0.0751121604432789 0.225336481329837 -0.277337207790568
2.86337299723504 -0.220850365313232 -0.939094162071049 -0.220850365313232 -0.462825548178165 -0.777777373494427 -0.939094162071049 -0.777777373494427 -0.109464963676993
-0.919965859546763 -1.13983191402964 0.435874809764294 -1.13983191402964 0.962396150762756 0.306655286515588 0.435874809764294 0.306655286515588 -1.36548391731469
0.1852890849523 0.194939558126899 0.297234573777648 0.194939558126899 0.270213248888771 -0.177568706412621 0.297234573777648 -0.177568706412621 0.513405172888664
0.222190484418783 0.540985527280514 0.212530028574488 0.540985527280514 -0.938996308065464 0.848188023129092 0.212530028574488 0.848188023129092 -1.75433878132395
-2.43292697159297 0.391726205370928 -0.439731867793836 0.391726205370928 -1.22510450503261 0.0960113248458157 -0.439731867793836 0.0960113248458157 0.97931551342732
1.40098244367042 -0.486291426728576 0.461204964238609 -0.486291426728576 -0.231567346061226 0.588567004572284 0.461204964238609 0.588567004572284 -1.70973890508539
-1.21051612014635 -1.01583120273427 0.279498148759905 -1.01583120273427 1.16425435759298 0.720912466456582 0.279498148759905 0.720912466456582 -0.680433424222389
0.802089446204956 0.338230489363536 -0.47352268510895 0.338230489363536 -0.251256934955769 -0.440666008999349 -0.47352268510895 -0.440666008999349 0.305373813253935
0.572297318158445 0.0957018926686363 0.413432176328509 0.0957018926686363 1.19818769621133 0.608664037372527 0.413432176328509 0.608664037372527 -2.22028390991236
-0.247878509924641 -0.0422738544057527 0.7878309230163 -0.0422738544057527 0.15756618460326 1.39503719538984 0.7878309230163 1.39503719538984 0.290152364330393
2.40983596681877 -0.116666661885671 0.191256822763395 -0.116666661885671 -0.497267739184826 0.910382476353758 0.191256822763395 0.910382476353758 0.933333295085365
-0.776339165764963 0.525284211661866 0.803375853129912 0.525284211661866 -0.915384986498987 0.610256657665991 0.803375853129912 0.610256657665991 -2.51634311689489
1.93420579745611 -0.406086988321631 -0.346424918947363 -0.406086988321631 0.53118487571929 0.0577374864912272 -0.346424918947363 0.0577374864912272 0.252120357678359