8.892522626 0.207827467 0.047007087 0.124195600 9.343545114 0.005561701 0.022346017 0.004424266 5.406340541
8.673083727 0.404935660 0.007172091 0.241985469 9.211384527 0.273063490 0.003409436 0.217218676 5.424848849
9.703053863 -0.317829714 0.036344575 -0.189931834 7.854271976 0.154661055 0.017277320 0.123030983 5.142880190
8.619217319 0.391066964 -0.016076526 0.233697676 9.244858052 0.258304998 -0.007642386 0.205478475 5.449661976
10.146185233 0.015576317 0.047152217 0.009308250 6.085529921 -0.008547247 0.022415008 -0.006799231 5.157422173
9.943303712 -0.227740779 -0.135066787 -0.136095595 7.157764430 0.177371580 -0.064207441 0.141096928 5.160761572
9.834144099 -0.062921401 -0.111336534 -0.037601195 6.843983378 0.009864815 -0.052926660 0.007847340 5.243077541
9.444329954 -0.228227870 0.032227866 -0.136386675 8.288598609 0.120435065 0.015320338 0.095804625 5.267624367
9.674702882 0.121714969 -0.070587106 0.072735639 6.714316465 -0.156221023 -0.033555380 -0.124271918 5.247586646
9.589484929 0.176162992 -0.110454475 0.105273228 6.603957107 -0.224935406 -0.052507351 -0.178933372 5.197969139
8.671332238 0.185925909 0.052812065 0.111107449 9.378027943 0.010683620 0.025105562 0.008498690 5.408076359
8.865865675 0.272598491 -0.047325372 0.162902111 9.064593129 0.216837843 -0.022497322 0.172491860 5.279996473
8.919440664 0.191969795 -0.002007794 0.114719215 8.987133631 0.170482692 -0.000954456 0.135616902 5.257282693
8.830672923 0.320899818 -0.056008726 0.191766497 9.092330673 0.242726438 -0.026625176 0.193085921 5.298402009
9.939870531 -0.234637683 -0.128598967 -0.140217115 7.189911263 0.180593534 -0.061132797 0.143659953 5.158076565
8.948713558 0.225089001 0.051165322 0.134510919 9.245085377 0.010176604 0.024322740 0.008095365 5.355999424
9.885429144 -0.125004962 -0.147224242 -0.074701705 6.881294938 0.080590822 -0.069986797 0.064109016 5.202699256
9.926191813 -0.163888826 -0.171035531 -0.097938311 6.945119774 0.128831722 -0.081306100 0.102484064 5.181153700
9.675851531 0.116449641 -0.067769242 0.069589132 6.438631678 -0.209441629 -0.032215837 -0.166608262 5.171453324
8.984751783 0.237738399 0.055471507 0.142070071 9.168184702 0.013400917 0.026369795 0.010660266 5.338280241
10.384281856 0.006185060 -0.005059839 0.003696130 6.193133456 0.001851398 -0.002405323 0.001472764 4.954528103
8.532289090 0.349076059 -0.043382422 0.208604335 9.252509334 0.229873888 -0.020622940 0.182861874 5.426257004
9.269783069 -0.117836498 0.024514360 -0.070417904 8.501759222 0.102907640 0.011653526 0.081861772 5.305015843
9.947011968 -0.214018586 -0.147528681 -0.127895350 7.099194849 0.170648137 -0.070131520 0.135748512 5.165279605
9.589651074 0.171335955 -0.110027341 0.102388640 6.587708758 -0.230939956 -0.052304302 -0.183709919 5.193014414
9.152934009 -0.027466463 0.043324799 -0.016413682 8.656495587 0.096276627 0.020595548 0.076586882 5.303069963
9.753340381 0.087186106 -0.020130431 0.052101538 6.342782748 -0.173140107 -0.009569514 -0.137730843 5.176645774
8.519475472 0.251112241 -0.005283053 0.150062144 9.284450519 0.127517387 -0.002511434 0.101438526 5.389499853
8.691503531 0.406464730 0.012777696 0.242899226 9.186141810 0.278035251 0.006074203 0.221173651 5.386363723
9.887945726 -0.127634254 -0.148910364 -0.076272944 6.883931080 0.083409571 -0.070788338 0.066351296 5.200876199
8.781639967 0.372375388 -0.019133090 0.222527779 9.110670453 0.273008265 -0.009095402 0.217174745 5.290056251
9.151685494 0.244832900 0.202426656 0.146309673 8.767410871 0.027156753 0.096228672 0.021602865 5.220071823
8.774784512 0.376061269 -0.012657065 0.224730424 9.112183365 0.274698449 -0.006016859 0.218519266 5.289765014
8.788316228 0.367913161 -0.025586933 0.219861197 9.109255959 0.270982251 -0.012163401 0.215563075 5.291213507
10.363802879 0.011051332 -0.005470919 0.006604164 6.169083356 0.003961736 -0.002600741 0.003151512 4.969154234
9.823011870 -0.306983368 -0.022180774 -0.183450167 7.598127067 0.166569229 -0.010544197 0.132503790 5.133317589
9.097148134 0.019434136 0.049839676 0.011613644 8.737652184 0.103011997 0.023692561 0.081944787 5.295853459
8.997056358 0.104099584 0.035062742 0.062208862 8.873593840 0.130130170 0.016667968 0.103516963 5.274212113
9.612221561 0.173813818 -0.091818686 0.103869386 6.657765045 -0.194859998 -0.043648353 -0.155008751 5.221805808
9.547425137 -0.274423378 0.043175949 -0.163992645 8.135576347 0.136170257 0.020524788 0.108321778 5.211547054
9.669384936 -0.312273074 0.044310466 -0.186611242 7.914519384 0.148763617 0.021064110 0.118339643 5.153821601
8.655539378 0.401229133 -0.000174772 0.239770486 9.228727932 0.268188031 -0.000083082 0.213340307 5.442384121
8.549400112 0.360234982 -0.039461496 0.215272795 9.251634916 0.237712232 -0.018759028 0.189097182 5.434968048
10.405068786 0.000126494 -0.000253750 0.000075592 6.217346754 -0.000061276 -0.000120626 -0.000048745 4.947092722
10.312009300 0.016592245 0.004786288 0.009915358 6.116151428 0.006689300 0.002275284 0.005321256 5.019557859
10.402832501 0.000541039 -0.000794762 0.000323320 6.214835447 -0.000056708 -0.000377810 -0.000045110 4.947480685
9.304310044 0.185598698 0.307933710 0.110911911 8.556777559 0.051066881 0.146384139 0.040623081 5.233361773
9.767376228 -0.318395958 0.008972240 -0.190270216 7.728565774 0.162708752 0.004265183 0.129432828 5.132899443
8.926769444 0.217900412 0.050132325 0.130215090 9.285104673 0.009089137 0.023831679 0.007230298 5.369892105
9.000901076 0.242664480 0.061794796 0.145013848 9.129020137 0.016866455 0.029375732 0.013417059 5.328977941
9.741069096 0.047969678 -0.076311635 0.028666196 6.776121415 -0.102653092 -0.036276681 -0.081659282 5.268575839
10.153157974 0.015506627 0.045671996 0.009266604 6.083984215 -0.006880941 0.021711348 -0.005473704 5.153195874
9.121356540 -0.000507876 0.047986911 -0.000303501 8.703601968 0.099831444 0.022811801 0.079414696 5.299158883
9.780163038 0.078689040 -0.006862335 0.047023777 6.314479301 -0.160358237 -0.003262186 -0.127563022 5.182028783
9.859275461 0.055268527 0.021645950 0.033027915 6.246481208 -0.122862368 0.010289954 -0.097735515 5.195270883
8.954603756 0.149729946 0.018856326 0.089477107 8.936073522 0.150232084 0.008963835 0.119507790 5.259712436
9.589385964 0.172655249 -0.110295582 0.103177036 6.591853435 -0.229583804 -0.052431817 -0.182631116 5.194159747
9.078407870 0.253350332 0.127341112 0.151399605 8.941619137 0.018157232 0.060534844 0.014443857 5.285695247
10.334931740 0.015122642 -0.001025706 0.009037139 6.137614956 0.005803026 -0.000487596 0.004616236 4.996289645
8.630952028 0.195007079 0.048987170 0.116534265 9.361676002 0.027460399 0.023287300 0.021844412 5.405243447
9.553520753 -0.276739247 0.043645417 -0.165376585 8.125099581 0.136837471 0.020747962 0.108852539 5.208164689
9.770550088 0.012942397 -0.082394575 0.007734246 6.799924948 -0.073297761 -0.039168362 -0.058307475 5.267714636
8.536311376 0.351928820 -0.042562650 0.210309116 9.252258866 0.231958059 -0.020233241 0.184519807 5.428573691
10.405948996 0.000023447 -0.000067370 0.000014012 6.218317833 -0.000025374 -0.000032026 -0.000020184 4.946953758
9.740516544 0.091493787 -0.027311657 0.054675765 6.357416665 -0.179235644 -0.012983292 -0.142579768 5.174405400
9.224894785 0.218913851 0.260057220 0.130820711 8.625318153 0.047116858 0.123624829 0.037480886 5.178434301
9.728045025 0.095868223 -0.034751150 0.057289884 6.372263702 -0.185147268 -0.016519845 -0.147282393 5.172619235
8.852346407 0.194986296 0.046454377 0.116521845 9.395830008 0.008944553 0.022083272 0.007115283 5.436166562
8.544919222 0.357534346 -0.040585574 0.213658922 9.251825544 0.235887809 -0.019293387 0.187645875 5.432956114
9.860198926 -0.095518854 -0.129736261 -0.057081104 6.860438907 0.049046984 -0.061673439 0.039016278 5.223410392
9.650559614 0.144416280 -0.074032229 0.086301713 6.692696041 -0.171673158 -0.035193108 -0.136563903 5.237914039
8.813661195 0.342317424 -0.048093451 0.204565442 9.101062388 0.256689823 -0.022862448 0.204193624 5.299143504
8.799092350 0.181645557 0.055473924 0.108549554 9.413788515 0.012628139 0.026370944 0.010045530 5.430698013
9.399360137 0.105181235 0.413714866 0.062855246 8.476650875 0.055095274 0.196669909 0.043827619 5.328161582
8.975029555 0.127053885 0.027397686 0.075926121 8.906235857 0.140494293 0.013024188 0.111761497 5.266087764
9.791882706 -0.012208430 -0.089171455 -0.007295635 6.815592618 -0.048899405 -0.042389924 -0.038898881 5.262720980
8.773180668 0.177568819 0.059306126 0.106113336 9.411647515 0.011456945 0.028192679 0.009113860 5.418882634
9.637504804 0.134115626 -0.088717135 0.080146146 6.488944703 -0.226018772 -0.042173952 -0.179795177 5.176961689
9.267524289 0.201989643 0.286715989 0.120706975 8.584834930 0.049232142 0.136297755 0.039163568 5.199586951
9.938476223 0.032493907 0.044802577 0.019418031 6.187472021 -0.086557603 0.021298047 -0.068855518 5.199238274
9.931940719 -0.170260537 -0.172210883 -0.101745981 6.960656806 0.136878096 -0.081864834 0.108884856 5.178808386
9.872937310 -0.287947035 -0.058105027 -0.172074246 7.465763891 0.177310383 -0.027621706 0.141048247 5.136378512
8.790491530 0.366248999 -0.027700189 0.218866710 9.108770328 0.270205568 -0.013167991 0.214945233 5.291765457
8.627279200 0.196050988 0.048305083 0.117158094 9.359992102 0.029521473 0.022963053 0.023483971 5.404684171
9.414455117 0.030814999 0.486601182 0.018414733 8.439040471 0.051946652 0.231318277 0.041322928 5.324271491
9.945507394 0.030752721 0.046685734 0.018377516 6.182277618 -0.083424796 0.022193254 -0.066363407 5.199335127
9.008246951 0.093237771 0.038455353 0.055717952 8.857245249 0.125189223 0.018280732 0.099586500 5.278024159
9.184158402 0.235449312 0.227394447 0.140702136 8.693405689 0.035482467 0.108097747 0.028225870 5.194224098
9.995580956 0.021312536 0.057449513 0.012736157 6.147160905 -0.061698210 0.027310091 -0.049080174 5.199167939
8.742315060 0.387617482 0.012462095 0.231636300 9.126806792 0.281428439 0.005924174 0.223872891 5.300263962
8.995683620 0.241173996 0.059282876 0.144123149 9.141869882 0.015660128 0.028181626 0.012457441 5.332095374
9.638674679 0.154515291 -0.077715952 0.092336781 6.682434399 -0.178685913 -0.036944259 -0.142142464 5.233252615
9.944313607 -0.190834779 -0.166030354 -0.114040940 7.018210689 0.157114612 -0.078926761 0.124982758 5.172174101
9.411104174 0.066515616 0.454639092 0.039749062 8.452188113 0.054418144 0.216124283 0.043288970 5.331128593
8.847030837 0.193461395 0.047021811 0.115610580 9.400072540 0.009906311 0.022353017 0.007880349 5.436941925
9.012109378 0.089626913 0.039538559 0.053560140 8.851693794 0.123583924 0.018795662 0.098309504 5.279236938
9.195932062 -0.063397877 0.035701395 -0.037885932 8.593369630 0.094986067 0.016971568 0.075560258 5.306374728
9.171449015 -0.043282210 0.040063103 -0.025865013 8.628566699 0.095032243 0.019045017 0.075596990 5.304872405
9.716169843 0.077069611 -0.072807004 0.046056023 6.753584312 -0.124618011 -0.034610666 -0.099132108 5.263240718
9.704066193 0.104852745 -0.049891253 0.062658944 6.402155329 -0.196435081 -0.023717079 -0.156261711 5.170695510
8.678214944 0.184719586 0.053160733 0.110386563 9.380948984 0.009113569 0.025271310 0.007249733 5.407419610
9.063836065 0.046058610 0.048994276 0.027524161 8.781975180 0.108359517 0.023290678 0.086198674 5.290852132
10.218290512 0.015302789 0.030632546 0.009144793 6.076285321 0.003982345 0.014561962 0.003167907 5.106025848
9.041155693 0.064370467 0.046048627 0.038467142 8.811736447 0.113635210 0.021890389 0.090395423 5.286641297
9.807990406 -0.311084711 -0.013155951 -0.185901088 7.635231653 0.165108555 -0.006254017 0.131341842 5.132830532
9.712020712 0.081790179 -0.072330052 0.048876987 6.749669792 -0.128064237 -0.034383934 -0.101873538 5.261921893
8.623548258 0.197155086 0.047533926 0.117817892 9.358208544 0.031697853 0.022596464 0.025215255 5.404109586
9.355556234 -0.175835624 0.021466266 -0.105077597 8.400484766 0.111819783 0.010204537 0.088951274 5.296430532
9.699556832 0.095667583 -0.071146079 0.057169983 6.737794157 -0.138046723 -0.033821102 -0.109814485 5.257484561
8.500357154 0.308855845 -0.041062249 0.184569140 9.258990962 0.194041776 -0.019519987 0.154357866 5.395564540
9.818071034 -0.308410092 -0.019147614 -0.184302763 7.610457586 0.166016032 -0.009102306 0.132063728 5.133140748
9.902686604 0.042371646 0.034593328 0.025320869 6.214039091 -0.102756913 0.016444820 -0.081741871 5.198306296
8.914357164 0.198735115 -0.005971763 0.118762102 8.994880117 0.174398480 -0.002838830 0.138731863 5.258101710
8.612048130 0.200827515 0.044654916 0.120012499 9.352215164 0.038906284 0.021227853 0.030949475 5.402387221
8.878102969 0.253826482 -0.038357357 0.151684147 9.050017470 0.207225402 -0.018234148 0.164845280 5.272862631
9.191959369 0.232358800 0.233627742 0.138855277 8.676940729 0.038355931 0.111060903 0.030511676 5.188419747
9.413470561 0.046665712 0.473548300 0.027886959 8.443287732 0.053557719 0.225113257 0.042604512 5.327766842
8.500027180 0.284639462 -0.029531920 0.170097674 9.266136235 0.168631654 -0.014038751 0.134144424 5.387194199
8.681516059 0.406145926 0.010004610 0.242708712 9.200273032 0.275348612 0.004755947 0.219036462 5.409571501
9.762055290 0.023012432 -0.080325379 0.013751998 6.793375950 -0.082208638 -0.038184717 -0.065395969 5.268761393
9.489988806 -0.250472672 0.038016182 -0.149679944 8.225959984 0.127723992 0.018071961 0.101602877 5.244049747
9.929317519 -0.248771759 -0.114139197 -0.148663496 7.259058099 0.185651849 -0.054258977 0.147683781 5.151656996
8.689544623 0.406527611 0.012261273 0.242936803 9.188920660 0.277509638 0.005828709 0.220755532 5.391190761
9.347344677 0.161361110 0.342030437 0.096427773 8.525301929 0.055407434 0.162592888 0.044075938 5.278039989
8.547435671 0.229549029 0.015250765 0.137176187 9.306780179 0.093543359 0.007249840 0.074412601 5.394952650
10.343860297 0.014146649 -0.002836372 0.008453895 6.146913779 0.005335270 -0.001348342 0.004244143 4.987438879
9.944203772 -0.225454074 -0.137169296 -0.134729082 7.147460697 0.176262367 -0.065206922 0.140214563 5.161580591
8.660765766 0.187938797 0.052249452 0.112310331 9.373774990 0.013903954 0.024838109 0.011060426 5.408301852
8.614843526 0.389606248 -0.017849054 0.232824767 9.245837769 0.257155204 -0.008485003 0.204563828 5.449548981
9.927035277 -0.251183990 -0.111428418 -0.150105021 7.271101472 0.186177293 -0.052970339 0.148101766 5.150491528
10.096434461 0.016096647 0.056317912 0.009619194 6.099197551 -0.022968992 0.026772155 -0.018271553 5.181487659
9.981289025 0.023431898 0.054978918 0.014002666 6.156674033 -0.067786636 0.026135630 -0.053923442 5.199438739
8.860927433 0.279884940 -0.050254080 0.167256419 9.069648366 0.220433390 -0.023889558 0.175352073 5.282964956
9.801378449 0.072310318 0.002031784 0.043211917 6.294274997 -0.150243736 0.000965860 -0.119517059 5.186329269
9.354633142 0.156260468 0.349425829 0.093379681 8.519807097 0.055889539 0.166108476 0.044459447 5.285673650
9.232007031 0.216108114 0.265104393 0.129144031 8.617309707 0.047931300 0.126024132 0.038128765 5.179784446
9.902929730 -0.142158704 -0.158770829 -0.084952609 6.902485281 0.100157355 -0.075475761 0.079673954 5.191559149
9.016042272 0.086020098 0.040592096 0.051404743 8.846098547 0.122012085 0.019296488 0.097059125 5.280413576
9.900138671 -0.272745194 -0.082934869 -0.162989779 7.381233119 0.184743433 -0.039425205 0.146961147 5.140899758
10.199529828 0.015215568 0.035163527 0.009092670 6.076807062 0.001707897 0.016715879 0.001358611 5.120819458
8.817865996 0.337126650 -0.050785024 0.201463489 9.099089057 0.253307282 -0.024141956 0.201502853 5.299723594
9.121556274 0.249500858 0.174506399 0.149099198 8.834789887 0.022663570 0.082956066 0.018028594 5.244479886
9.606440378 0.151894816 -0.101602315 0.090770811 6.534886360 -0.236382954 -0.048299251 -0.188039757 5.183363014
9.401085560 0.101450964 0.417855853 0.060626074 8.474004337 0.054988761 0.198638432 0.043742889 5.329249837
9.065420616 0.253102413 0.114395083 0.151251451 8.974528147 0.018796574 0.054380619 0.014952446 5.295310530
8.521469566 0.340328519 -0.045082292 0.203376893 9.253441061 0.223082335 -0.021431017 0.177459277 5.418937984
9.283950349 0.195006098 0.295863059 0.116533679 8.571958904 0.049698417 0.140646048 0.039534484 5.213631494
9.720316535 0.072307339 -0.073316817 0.043210137 6.757463054 -0.121113392 -0.034853018 -0.096344226 5.264456756
8.890281027 0.234557815 -0.027635238 0.140169386 9.032662026 0.196350503 -0.013137115 0.156194430 5.266473487
9.724461898 0.067506316 -0.073856607 0.040341094 6.761299127 -0.117549660 -0.035109621 -0.093509320 5.265556942
8.792639716 0.364498275 -0.029782914 0.217820495 9.108265892 0.269368809 -0.014158068 0.214279602 5.292384425
9.892939776 -0.132672037 -0.152237829 -0.079283472 6.889544813 0.088958759 -0.072370133 0.070765608 5.197476648
8.827985647 0.188471876 0.049999386 0.112628894 9.410356102 0.012475774 0.023768483 0.009924326 5.436757618
8.681578977 0.184155432 0.053350505 0.110049430 9.382429689 0.008503809 0.025361523 0.006764677 5.406955059
9.617938662 -0.298850037 0.047566242 -0.178589770 8.007822301 0.142165524 0.022611826 0.113090940 5.175343121
8.824361442 0.328947451 -0.054021473 0.196575681 9.095798086 0.247914436 -0.025680484 0.197212910 5.299645887
8.604167449 0.203570507 0.042244641 0.121651683 9.347662981 0.044270900 0.020082067 0.035216961 5.401310702
9.418336192 -0.214127357 0.028511860 -0.127960351 8.322082795 0.117117829 0.013553839 0.093165804 5.278732715
9.124581103 0.249103262 0.177625830 0.148861599 8.827902094 0.023118593 0.084438967 0.018390559 5.241808457
9.599030921 0.180040287 -0.102339825 0.107590261 6.639469100 -0.206287923 -0.048649845 -0.164099527 5.212981168
8.700824678 0.181185196 0.055051949 0.108274447 9.391405581 0.006948303 0.026170347 0.005527290 5.403118514
9.646563394 -0.306935510 0.046933521 -0.183421567 7.955433278 0.145328951 0.022311046 0.115607408 5.162788358
9.211606536 -0.075642201 0.032995073 -0.045203017 8.572341977 0.095914825 0.015685049 0.076299073 5.306748484
9.194614490 0.231272425 0.235803097 0.138206070 8.671675519 0.039328742 0.112095014 0.031285534 5.186649359
9.181022795 -0.051284815 0.038348994 -0.030647289 8.614487477 0.094783840 0.018230172 0.075399388 5.305590431
8.777084804 0.374914736 -0.014805945 0.224045268 9.111654788 0.274163142 -0.007038383 0.218093435 5.289761087
8.529034556 0.242361624 0.002583989 0.144832864 9.292145443 0.114648506 0.001228365 0.091201488 5.391655969
9.590651815 0.168517063 -0.109223556 0.100704098 6.579282648 -0.233306153 -0.051922202 -0.185592199 5.190916583
8.619763276 0.198319437 0.046670272 0.118513697 9.356320198 0.033988120 0.022185904 0.027037135 5.403529571
9.658537933 0.137237537 -0.072326992 0.082011769 6.699688846 -0.166786726 -0.034382480 -0.132676806 5.241072624
9.721933024 0.098084327 -0.038530391 0.058614206 6.379734229 -0.188036320 -0.018316404 -0.149580599 5.171923122
9.928196997 -0.166009138 -0.171597650 -0.099205388 6.950157906 0.131578417 -0.081573318 0.104669026 5.180348382
9.411959150 -0.210503424 0.027610214 -0.125794725 8.330172801 0.116428130 0.013125219 0.092617157 5.281136693
10.103655634 0.016014251 0.055194268 0.009569955 6.096913460 -0.020624848 0.026238003 -0.016406815 5.178688092
8.573001852 0.372685301 -0.032738429 0.222712980 9.250634220 0.245740727 -0.015563047 0.195483751 5.443115391
9.594907791 -0.291470032 0.046603581 -0.174179553 8.050512679 0.140326214 0.022154200 0.111627792 5.186385714
9.813064411 -0.309778122 -0.016141082 -0.185120284 7.622827911 0.165531901 -0.007673075 0.131678608 5.132977483
9.877984060 -0.116854999 -0.142191983 -0.069831370 6.874176036 0.072030312 -0.067594584 0.057299235 5.208470261
9.591397123 0.167029326 -0.108706159 0.099815042 6.575009255 -0.234298928 -0.051676244 -0.186381940 5.189961734
8.694649536 0.182094727 0.054365426 0.108817974 9.388472235 0.007107683 0.025843991 0.005654075 5.404459606
9.849142841 -0.081655053 -0.121784157 -0.048796237 6.853276377 0.032849039 -0.057893204 0.026131010 5.232354402
8.971505787 0.130884098 0.026043257 0.078215018 8.911433781 0.142168151 0.012380326 0.113093030 5.264838319
9.077966897 0.034818587 0.049860618 0.020807237 8.763425108 0.105857110 0.023702516 0.084208040 5.293081346
8.691427048 0.182585293 0.054063939 0.109111131 9.386949615 0.007313100 0.025700672 0.005817482 5.405147916
8.703847112 0.180756425 0.055440472 0.108018218 9.392829976 0.006975578 0.026355042 0.005548987 5.402494958
8.747922952 0.176687729 0.060391890 0.105586806 9.408034027 0.010183777 0.028708824 0.008101070 5.406543985
9.509645986 -0.259135049 0.040009621 -0.154856493 8.196697337 0.130947813 0.019019594 0.104167388 5.232975888
9.414264787 0.034767038 0.483577814 0.020776431 8.439819612 0.052440100 0.229881042 0.041715460 5.325155363
9.239605285 -0.096438441 0.028527823 -0.057630640 8.537334485 0.098888737 0.013561428 0.078664784 5.306390749
9.842130633 -0.300736184 -0.034666414 -0.179716913 7.549300293 0.169564112 -0.016479564 0.134886183 5.134144427
8.646209484 0.398929916 -0.004383156 0.238396497 9.234765528 0.265586666 -0.002083645 0.211270953 5.446423160
8.642114220 0.192093240 0.050616664 0.114792984 9.366420925 0.021718232 0.024061922 0.017276589 5.406793866
8.846453408 0.300200627 -0.055919030 0.179396869 9.082056235 0.230723347 -0.026582537 0.183537608 5.291449517
9.027048577 0.248459242 0.080305464 0.148476739 9.065477581 0.021138906 0.038175249 0.016815742 5.314233940
9.732755751 0.057799090 -0.075022230 0.034540154 6.768821672 -0.110236854 -0.035663729 -0.087692072 5.267362320
8.687569246 0.406523527 0.011731504 0.242934363 9.191730855 0.276978424 0.005576870 0.220332958 5.395957116
9.157442831 0.243619347 0.207039232 0.145584466 8.754391150 0.028164039 0.098421377 0.022404150 5.215632445
9.160262752 0.242962639 0.209237804 0.145192024 8.747959455 0.028711183 0.099466524 0.022839396 5.213436397
10.270916095 0.016456638 0.016686911 0.009834321 6.088838690 0.007014550 0.007932549 0.005579989 5.059831525
9.206292424 -0.071545847 0.033900429 -0.042755077 8.579338697 0.095525841 0.016115433 0.075989641 5.306672618
8.973234551 0.233791801 0.053146340 0.139711624 9.194514659 0.011728736 0.025264467 0.009330067 5.344162352
10.381933685 0.006853069 -0.005331822 0.004095325 6.190347365 0.002134675 -0.002534618 0.001698108 4.955898724
9.371607962 0.142279902 0.368850839 0.085025035 8.506250828 0.056328148 0.175342650 0.044808355 5.303237981
9.083841883 0.253186379 0.133076401 0.151301628 8.927597909 0.018245314 0.063261260 0.014513925 5.280891781
8.904772777 0.212282254 -0.014184567 0.126857735 9.009905970 0.182670250 -0.006742996 0.145311955 5.260565799
8.978600736 0.123211752 0.028730096 0.073630101 8.900951483 0.138797163 0.013657584 0.110411450 5.267388871
9.947371917 -0.209416318 -0.151611138 -0.125145081 7.081404382 0.168342447 -0.072072220 0.133914363 5.166657847
9.374736329 0.139259880 0.372841273 0.083220301 8.503554886 0.056296727 0.177239604 0.044783359 5.306393846
9.924107011 -0.161769400 -0.170315557 -0.096671763 6.940221589 0.126035120 -0.080963842 0.100259401 5.181987806
9.599651528 0.157249413 -0.104412518 0.093970664 6.548636468 -0.237145044 -0.049635152 -0.188645990 5.185302243
9.414736783 0.022947552 0.492063799 0.013713226 8.438097564 0.050780891 0.233915071 0.040395580 5.322553503
8.929886287 0.218866199 0.050315069 0.130792235 9.279614113 0.009305477 0.023918551 0.007402394 5.367521965
8.884992001 0.205471202 0.046359403 0.122787520 9.355577103 0.005183189 0.022038124 0.004123164 5.415172345
9.395498689 0.112497208 0.405444583 0.067227198 8.481994831 0.055345410 0.192738419 0.044026598 5.325384799
8.539783123 0.234411003 0.010293380 0.140081653 9.300712674 0.101880454 0.004893220 0.081044658 5.393729506
9.681330398 0.114110904 -0.064382503 0.068191526 6.431494204 -0.206951125 -0.030605864 -0.164627096 5.171050348
8.914499753 0.214248940 0.049205284 0.128033007 9.306393425 0.007964630 0.023390986 0.006335766 5.380899072
9.361733459 -0.179831529 0.021878838 -0.107465509 8.392903395 0.112267325 0.010400664 0.089307288 5.295267329
9.176203430 -0.047276100 0.039211820 -0.028251721 8.621530788 0.094872181 0.018640338 0.075469663 5.305249051
8.870784669 0.265167589 -0.043993124 0.158461479 9.059098133 0.213119387 -0.020913253 0.169533873 5.277075625
8.706872150 0.180339123 0.055858526 0.107768842 9.394234597 0.007062532 0.026553774 0.005618158 5.401924401
9.006066154 0.244028853 0.064747972 0.145829183 9.116238002 0.018045069 0.030779599 0.014354632 5.325856497
8.661025086 0.402488463 0.002256950 0.240523049 9.224224361 0.269724218 0.001072899 0.214562325 5.438627553
8.729831479 0.392766517 0.017512728 0.234713312 9.138179231 0.283436832 0.008325122 0.225470543 5.310969423
8.532502460 0.239622014 0.005181447 0.143195701 9.294915095 0.110369552 0.002463133 0.087797632 5.392370757
9.541273922 -0.272046441 0.042696125 -0.162572211 8.145980663 0.135444264 0.020296692 0.107744260 5.214992777
9.103817250 0.251624538 0.155157746 0.150368288 8.876874959 0.020051657 0.073758190 0.015950849 5.261374432
8.770105194 0.177297650 0.059603104 0.105951289 9.411317433 0.011326207 0.028333855 0.009009860 5.417273948
8.941996174 0.164275875 0.012492234 0.098169607 8.954200134 0.156564033 0.005938502 0.124544778 5.257337558
9.245537748 -0.100709355 0.027663591 -0.060182895 8.530221460 0.099649601 0.013150593 0.079270042 5.306182335
8.509142490 0.263906317 -0.015618402 0.157707755 9.275779056 0.144457293 -0.007424605 0.114914015 5.387176737
8.642792626 0.398037722 -0.005919232 0.237863331 9.236560193 0.264642943 -0.002813858 0.210520233 5.447377156
8.670829974 0.404524289 0.006321071 0.241739638 9.214091883 0.272446005 0.003004882 0.216727474 5.428114139
10.081942444 0.016292266 0.058271823 0.009736094 6.104143594 -0.027892708 0.027700997 -0.022188309 5.186401211
9.405577555 -0.206811649 0.026726890 -0.123588557 8.338234707 0.115785812 0.012705309 0.092106201 5.283405983
9.062754211 0.252944071 0.111853844 0.151156828 8.981126658 0.019038644 0.053172577 0.015145009 5.296962734
9.709944843 0.102577009 -0.046119485 0.061298987 6.394695566 -0.193681068 -0.021924073 -0.154070927 5.170958382
9.296183015 0.189468058 0.302933966 0.113224202 8.562770077 0.050405471 0.144007384 0.040096937 5.225269035
8.779249094 0.178242266 0.058604994 0.106515782 9.412253240 0.011715764 0.027859378 0.009319747 5.422006983
9.320375216 0.177414253 0.318934674 0.106020969 8.545061287 0.052705239 0.151613728 0.041926374 5.249842783
9.218151402 0.221606034 0.254986250 0.132429532 8.633708386 0.046020668 0.121214215 0.036608880 5.178231222
9.794202062 0.074444920 -0.000835695 0.044487534 6.300907713 -0.153663573 -0.000397269 -0.122237498 5.184904439
9.590071495 0.169954435 -0.109666898 0.101563058 6.583517062 -0.232183692 -0.052132956 -0.184699295 5.191933556
8.887841251 0.238421735 -0.029878287 0.142478426 9.036331027 0.198622311 -0.014203405 0.158001626 5.267670286
8.948193374 0.157069698 0.015748412 0.093863269 8.945303384 0.153384909 0.007486409 0.122015824 5.258317758
9.749421558 0.038040456 -0.077756059 0.022732593 6.783188470 -0.094756405 -0.036963325 -0.075377564 5.269145045
8.649787681 0.190283380 0.051426618 0.113711430 9.369481343 0.018211883 0.024446954 0.014487331 5.407638388
9.068063291 0.253225285 0.116949166 0.151324878 8.967930048 0.018585085 0.055594767 0.014784209 5.293571280
8.725937645 0.394646345 0.018242721 0.235836678 9.142380498 0.283723065 0.008672142 0.225698238 5.315564274
9.288028517 0.193195318 0.298175830 0.115451575 8.568866890 0.049894859 0.141745483 0.039690752 5.217422279
10.132190389 0.015718850 0.050011561 0.009393426 6.088907474 -0.012171063 0.023774270 -0.009681932 5.165301595
9.796126225 -0.017205563 -0.090822846 -0.010281871 6.818610173 -0.043667165 -0.043174955 -0.034736697 5.261376151
8.945067637 0.160689627 0.014139096 0.096026502 8.949791705 0.154967933 0.006721380 0.123275101 5.257775684
9.974111298 0.024676508 0.053529647 0.014746432 6.161641955 -0.070880410 0.025446683 -0.056384502 5.199486363
10.403694465 0.000360937 -0.000577434 0.000215692 6.215808987 -0.000071408 -0.000274498 -0.000056804 4.947322769
8.785191494 0.179076373 0.057786110 0.107014236 9.412799977 0.011979402 0.027470100 0.009529468 5.424922474
9.714073562 -0.318929210 0.032654044 -0.190588881 7.834117656 0.156531670 0.015522932 0.124519034 5.140079714
9.450872761 -0.231610059 0.033139886 -0.138407837 8.279988053 0.121389896 0.015753889 0.096564181 5.264526415
10.242166284 0.015696331 0.024566282 0.009379969 6.079007499 0.005936380 0.011678208 0.004722318 5.085919990
9.016421784 0.246423302 0.071876420 0.147260082 9.090836032 0.020029179 0.034168289 0.015932968 5.319798487
8.793662232 0.180547450 0.056431823 0.107893337 9.413477343 0.012376457 0.026826305 0.009845320 5.428656303
9.907900054 -0.146691516 -0.161889761 -0.087661371 6.909893565 0.105900584 -0.076958425 0.084242623 5.189016791
9.652279806 -0.308374895 0.046472497 -0.184281729 7.945124844 0.146117023 0.022091886 0.116234309 5.160447574
8.837252956 0.312399465 -0.056817122 0.186686772 9.088370381 0.237545785 -0.027009467 0.188964774 5.296019433
9.214920687 0.222910103 0.252462953 0.133208831 8.638058646 0.045367847 0.120014701 0.036089569 5.178535797
8.645986074 0.191161784 0.051052898 0.114236355 9.367978040 0.019902591 0.024269297 0.015832268 5.407249772
9.457390187 -0.234913552 0.034027602 -0.140381971 8.271312264 0.122381623 0.016175888 0.097353088 5.261333207
8.558622374 0.365413694 -0.036981401 0.218367541 9.251270242 0.241108594 -0.017580052 0.191798946 5.438599802
8.873225111 0.261420051 -0.042198044 0.156221988 9.056191223 0.211206664 -0.020059916 0.168012325 5.275649296
9.802847089 -0.312326890 -0.010186894 -0.186643402 7.647661849 0.164736000 -0.004842600 0.131045479 5.132703726
8.990278812 0.239522688 0.057168905 0.143136344 9.155012053 0.014476693 0.027176697 0.011516033 5.335224734
9.365063905 0.148092870 0.360958065 0.088498806 8.511652114 0.056280116 0.171590618 0.044770146 5.296530201
10.259595421 0.016149826 0.019867759 0.009650973 6.084049790 0.006741807 0.009444646 0.005363025 5.070336113