5.0275647158 4.5939786555 1.2466709669 2.7233022049 7.8236466349 5.2161361007 1.8077497083 3.1367166140 2.2391713616 6.0977374827 1.4882487292 0.3529890773 7.3758215822 6.2297279828 3.3083797489 1.6354588810 6.3577881217 2.4152855903 3.0237000988 1.9061411755 4.9434132427 7.4205368343 2.9882106106 3.1108878871 5.9809054565 7.5924114877 0.6784984983 2.2039246078 7.1362567245 3.5924448501 1.9974401640 2.7437749079 0.3948063962 6.6901490755 2.5887972298 1.7774005117 7.0126610779 7.2683441932 4.9193481853 4.5755387221 7.3333881504 0.0359667944 0.0720956864 2.7009304637 2.8983977470 4.4106118270 2.3446202364 5.5129289000 9.0976850948 6.0455495533 2.7746062173 1.5621793998 7.3378152895 1.2053321711 2.7398206652 0.4072858400 5.1538289210 6.7653750514 4.3806307270 3.3671298201 6.0872222847 6.6602687158 1.9187266697 7.0799522028 2.0489252028 4.2830586569 6.1506088824 9.0803388800 1.0639508221 2.4452999432 5.0696433865 2.2228542162 3.0266093529 2.3161377058 3.4275054573
4.3472866392 4.6901940938 2.1569244624 2.8886165928 8.2542722610 5.4599216037 1.6205905030 3.3378462340 2.1203946351 6.2564120998 1.4444548056 0.4544055117 7.0606675716 6.2814157291 3.4592994394 1.6302125833 6.5563550942 2.7175332738 2.9325493196 2.1485072413 4.9388414495 7.1727045581 3.0199609264 3.1335415064 6.1795494036 7.6461200555 0.7605688627 2.1671079567 7.0223282345 4.1041622631 2.3539388232 3.1102541970 0.3714046185 6.2190567101 2.2027062570 2.2006330444 6.8714995849 6.7981863504 5.2243077545 4.8395899414 8.1348280946 0.0759843929 -0.1765094464 2.8154302851 2.3582473773 4.4221400976 1.9916451000 5.2739785029 8.7681168079 6.7348276050 2.7970355520 1.9858710940 7.5884914638 1.6410221285 2.0498756363 0.9102753090 5.2108443949 6.4950241451 4.4219057694 3.3692646270 5.8694025467 6.8936617115 2.0910410641 7.4042611660 2.3003368685 4.5055701185 7.0898871097 8.8730396512 0.8627427427 2.2177044755 5.1737674631 2.3631137280 2.8188555365 2.5807165079 3.4181423609
5.2337194826 2.8506475592 2.2885636052 2.6331970498 6.4891234734 5.1979954108 1.8641625030 2.7923366167 2.1133624816 6.8078969769 0.8134992173 0.1362547613 7.6817587183 4.9752981370 3.3455807459 0.9606138105 5.8634145077 2.3788522804 3.8157922287 1.7923958986 4.6845704091 8.4988686358 1.7981150558 2.8181674938 5.7035753072 5.7212254262 0.8036841030 1.6181334146 5.7963767874 3.7873268956 3.2898249598 2.2488011906 0.8827624351 7.6592638374 1.7868453168 1.5043553373 6.5754160029 5.7106304887 4.6856623577 4.2266977481 5.3732109818 0.5109608136 0.2849107536 1.8250409021 2.4290979886 5.3730860787 2.1191071521 4.6568580802 9.1497479750 5.8356625085 2.5540941113 1.5710880128 7.0069949491 1.5013519978 3.5574192189 0.2800065407 4.4717529969 8.3402985512 3.1723974666 3.5356106649 6.2726880735 4.8133722655 1.9286322580 7.9898508308 0.7123864762 3.7863996710 5.7944572747 7.2487621050 1.1688104954 1.2662205888 4.5034439860 1.6363505774 3.1795574225 2.6338486138 3.5423951368
4.5022094547 4.6674365337 2.2111405366 2.8221867473 8.2986539181 5.4640003344 1.6518519353 3.3141562507 2.1226980896 6.1635428873 1.4641450061 0.4026837948 7.0393869312 6.2751625211 3.4683449388 1.6359048838 6.5637269401 2.7575062567 2.8539797162 2.1503078337 4.9328247598 7.0820172848 3.0297651823 3.1547231808 6.1016076036 7.6780868200 0.6531587548 2.1729635911 7.1305172617 4.0917368829 2.2723832750 3.1383881503 0.3130508405 6.1844688213 2.1628324967 2.2295880297 6.7379680816 6.8276165772 5.2186302044 4.7265665660 8.0603720781 0.0463295391 -0.1854664528 2.9556139561 2.4454074537 4.3652478747 1.9238972500 5.3225511167 8.7309340484 6.6846870040 2.7846196317 1.9903917288 7.5483118034 1.6048769063 2.0451525124 0.8292658278 5.1902759024 6.3400735754 4.4090836122 3.3638527704 5.7832435468 6.9772905939 2.0228643295 7.3277199316 2.3996789259 4.5312906488 7.0800224116 8.8976368931 0.7947234765 2.2932592813 5.1508558528 2.3988143391 2.8668831763 2.4135848862 3.4050679571
5.8276738104 1.9412778530 2.3687240052 2.7598619387 4.7087960144 5.0353385988 2.3127172371 1.4900508150 2.7586858830 7.5344925791 1.3344968737 -0.0670940558 7.8616694744 4.4914054731 2.7127842930 1.0106482804 4.3602537011 2.2260948351 3.9640984027 1.6876920825 5.0194162212 9.1501324246 1.4491332585 2.7892898620 6.0546951245 4.7113245678 0.3674529721 1.2254179765 4.6900543015 3.7164123569 3.8071991912 1.4924469644 1.3730575730 8.9001499552 1.5489146848 1.2673073255 6.2883584145 4.4935335342 4.0110137488 4.5174666718 4.7645122714 0.6434719003 0.4496347589 1.3663289804 3.2229625735 5.4863162473 1.6874340825 4.6402782341 9.6476911604 4.2200563593 1.9707008327 1.6889625184 5.5527267485 1.4023620923 3.1625314952 0.4960489150 4.2478672691 8.3766412430 2.6120121285 3.5870918240 6.7291805390 3.6140708725 1.2689596439 8.2762965426 0.1968267305 3.3894172865 6.7818940867 5.9856770571 0.9435689926 1.7671544991 3.1117544960 1.6008451246 3.3008021547 2.9093223894 4.3226496169
5.4020960402 2.4334404012 2.2830107122 2.6521970802 5.9271637330 5.2201431048 1.9807976547 2.4186656918 2.1005693013 7.0607566250 0.8400448538 -0.0279720752 7.7204592515 4.6898915815 3.0283904680 0.9727386253 5.4004142760 2.3378484733 3.9321062984 1.7686564191 4.7540269491 8.7220450049 1.7030371730 2.6982476125 5.7798540890 5.2547763230 0.6508298761 1.5716891125 5.2849883169 3.7703483726 3.4898066535 1.9678953061 1.0127827061 7.9525222758 1.7904795302 1.3478614653 6.5063745266 5.3302905253 4.4755461696 4.2852211079 4.7980728235 0.5343488562 0.2792862137 1.6862755310 2.7674327319 5.4445820772 2.1476061301 4.7523817398 9.3970577100 5.4725241131 2.3222583831 1.6667919623 6.5230313829 1.5067230107 3.7353562269 0.2625784237 4.4133591709 8.4305713809 3.0077451514 3.4961933755 6.3867856421 4.2753142816 1.7128709665 8.0155191925 0.5851088696 3.5930807745 6.0343682078 6.6711853988 1.2141415765 1.3148726350 4.1094371337 1.5386364991 3.2224829560 2.6827105461 3.6827964740
5.3733815931 1.9555670904 2.2710131649 2.6713217395 5.6155905586 5.1326460648 1.9631278645 2.0949398776 2.3727764706 7.1536179670 1.0495908189 -0.0462376841 7.6917457792 4.8802310993 2.9207224559 1.0194090829 5.1958246937 2.2641209822 3.7793898712 1.6244018977 4.7637827189 8.6798287287 1.6308832426 2.8436193721 5.8948549558 5.0650716051 0.4045839635 1.3922960265 5.2119485770 3.7634757488 3.3985933525 1.6862050580 1.0017211148 8.2324731523 1.6515732110 1.3674987942 6.3749736925 4.8408312834 4.1921997306 4.3639927979 4.7150842122 0.4644631589 0.3538947344 1.4412339316 3.0589903419 5.3578146193 1.8952439103 4.5995330830 9.3152480704 5.2996227943 2.0817712459 1.6895864410 6.3307795082 1.4118387874 3.4557439959 0.2283519507 4.1870180624 8.1916697144 2.8927661143 3.6143626819 6.6960288371 4.1530011352 1.3615532365 8.0173600019 0.4170766564 3.6241011033 6.1853187404 6.5430566532 0.9291091829 1.4612487219 3.8355174886 1.5790514046 3.0998783688 2.7348983499 3.8897443119
5.0677838302 3.1426597746 2.1522178694 2.7247116926 6.9618473198 5.2288048607 1.8144449645 2.9809426418 2.1735439964 6.6577970769 0.9280952184 0.1306248150 7.5523833935 5.2374697827 3.4144290698 1.0459383697 6.1679100925 2.4917508355 3.5684624954 1.8458728098 4.7279415094 8.2221939667 2.0029231216 2.8884860572 5.7005223255 6.1734890269 0.8009529554 1.7076474331 6.1717360489 3.8958635737 3.0586202874 2.3156088953 0.8033959273 7.1900420743 1.9762957856 1.6979955960 6.5824024179 5.9265392350 4.8301946860 4.2187360033 5.7712441978 0.4816218934 0.2219161901 1.9348655781 2.4051807606 5.1096986269 1.9556313086 4.6285622854 8.9622031165 6.2191728288 2.6290948698 1.6960763976 7.2315261193 1.5697564625 3.1721332246 0.3726011804 4.4970492718 8.0793154536 3.4070007548 3.5334749114 6.0375481101 5.2735219175 2.0446082263 7.8527894095 0.8760612767 3.9128913960 5.7886520579 7.6682256028 1.2060112019 1.2697547395 4.7769760101 1.8213037612 3.0491143694 2.7518936790 3.5500651292
5.4311560016 1.8405255028 2.1943808855 2.6960437290 5.3882566031 4.9652722834 2.0304549951 1.9878613962 2.3892306591 7.0837993637 1.3533852339 -0.0727248456 7.6722913517 4.9392532865 2.7843465073 1.0605515404 4.9944497908 2.1808300032 3.7098294011 1.5683894580 4.7815127922 8.6156899340 1.5919204206 2.8764418313 5.9110684160 5.0824661234 0.3069974868 1.2596289202 5.1217711515 3.7078949422 3.4162970146 1.7259985442 1.0321615594 8.3518201693 1.5017404624 1.3524268594 6.2094624986 4.7941949903 4.0366745602 4.3547637416 4.8324680630 0.4877562736 0.4334110450 1.3833081628 3.3023263121 5.2747103554 1.7660651868 4.6502137037 9.2358832254 5.2257644463 1.8053468136 1.7935226373 6.0666999487 1.3356580494 3.2026767396 0.2904240054 4.0810905984 7.9969834343 2.8735329390 3.4601019407 6.7371370925 4.1025714552 1.2043184755 7.7790003488 0.4166113493 3.5468921198 6.2725095230 6.5757098325 0.6619846425 1.6536116853 3.6314768935 1.7071871516 3.0471729291 2.7152204248 3.9059151565
5.4933243247 1.8256305891 2.2057109754 2.6720237386 5.2073816243 4.8080470974 2.0788781953 1.8188736234 2.4375834780 7.0602504909 1.5092416733 -0.1224361615 7.5266861131 4.7955529086 2.6279284129 1.0639885868 4.9046618342 2.1189377968 3.6552409038 1.5613627081 4.7666248139 8.5457697436 1.5402982763 2.7006236956 5.8453745921 5.1474644942 0.1604274573 1.2258652055 5.0344183474 3.6516504072 3.4573771740 1.6996356610 1.0654030623 8.5220927704 1.4443123614 1.1502251590 6.1104170975 4.8362561016 3.8385754860 4.3064754120 4.9826873521 0.4101557160 0.4319417111 1.3277119605 3.2143483499 5.2092657516 1.7629614041 4.4714469998 9.1525719602 5.0340300491 1.6141297157 1.9285468037 5.9776937740 1.3674505241 3.1587485312 0.2628516857 4.1400505254 7.8056344514 2.7673708539 3.3520980128 6.4644869515 4.0280336783 1.0660181662 7.7433305592 0.3818641541 3.3991354122 6.3501629414 6.5154005956 0.7627601794 1.5764575377 3.4961159034 1.6049760285 2.9388941387 2.7102564998 3.9541035290
4.6129927398 4.5777163559 1.6317740262 2.5697806891 8.1490167000 5.2977766644 1.8178855376 3.2127249838 2.0458055828 6.0633307918 1.4388440008 0.4982195539 7.0702310114 6.2299999060 3.2372769467 1.7148105202 6.2716067325 2.5803123248 2.8207854277 1.9674096834 4.8217589192 7.2821379332 3.0373070819 3.2056021470 5.8282375761 7.5090475722 0.5350582600 2.2795653620 7.0157837422 3.7903832798 1.9445190027 3.0307561369 0.1310805482 6.4878439613 2.3476383989 2.0435798057 6.7588497952 6.5914545088 5.0088962263 4.3727207012 7.5004580381 -0.0106694302 0.0926328929 3.0394593470 2.7546960546 4.2141562905 1.9107366228 5.5084890293 8.8685443330 6.0816256855 2.7775084135 1.9308046591 7.0616315275 1.2769418959 2.1017885349 0.6159951509 5.0127282403 6.4904200562 4.3728941868 3.3805231377 5.7630570797 6.8206284368 1.9607764468 7.3333698907 2.1254439150 4.4873122360 6.5004203678 8.8808007108 0.5342996113 2.4889531788 4.9511061133 2.4292935432 2.8463848286 2.3383064312 3.2967319919
4.4449331233 4.2634611216 1.8587279014 2.8235855023 8.0191911033 5.2662123850 1.4788423337 3.2597635472 2.1768782865 6.3603777055 1.2700904503 0.2940432830 7.2262806527 6.1315876049 3.3366457948 1.4450449812 6.6101239718 2.6691908460 3.2476890500 2.2368912911 4.7083429835 7.3797756832 2.7602211688 2.8835773632 5.9508359639 7.1699187843 0.6901716312 2.2036724779 6.7763381416 4.0195184818 2.7940233365 2.8397833938 0.6898615245 6.2066205468 2.3209916114 1.9642837553 6.9148335080 6.5056922888 5.1791483332 4.6576380607 7.4260264350 -0.0810633901 -0.1432527305 2.3708212165 2.1016564064 4.8318930926 2.2220925692 4.7385127121 8.7861852551 7.0848365527 2.8576055102 2.0237787901 7.6880854179 1.6897718912 2.6356289156 0.8056564767 4.7137474507 7.1794456074 4.2333329854 3.3369885788 5.7011905058 6.4002030205 2.0350567572 7.5030298324 1.8460699829 4.1110877953 6.5397997692 8.5645841061 1.1310344621 1.7934893008 5.1828617777 2.0659133710 2.9470153567 2.9852854406 3.3899766670
4.5525303169 4.0188507633 1.8663553041 2.7667436239 7.9502668541 5.2456217721 1.5506082562 3.1931518249 2.1477576705 6.3800199617 1.2138641946 0.2933065344 7.2834740901 6.0260896417 3.3561260636 1.4318134011 6.5335549275 2.6402835868 3.3105894689 2.1864851723 4.7092857187 7.4961045572 2.6634379101 2.8984116426 5.8943479165 7.0199089555 0.7121919454 2.1628915806 6.6877105636 3.9933517761 2.7702730617 2.7567743855 0.7086825610 6.3456666283 2.2904385669 1.9070113973 6.9643648245 6.3394048887 5.1518304514 4.5540064012 7.0718081896 -0.0572638062 -0.1186191394 2.3511393856 2.0777887793 4.8424489033 2.1748170984 4.6713895472 8.8266418203 6.9791452058 2.8310455624 1.9575563627 7.6166543329 1.6625701215 2.6967860451 0.7687699411 4.5763949527 7.3193749111 4.1101138374 3.3876210680 5.7153770825 6.1691710674 2.0269975665 7.5406879813 1.6544207396 4.0876460631 6.3290359726 8.4430371519 1.0851257558 1.6173871080 5.1417755491 2.0288958366 2.9083620983 3.0216108213 3.4362798661
4.3754685838 4.4031063611 1.8762396646 2.8545315349 8.0504377936 5.2924597194 1.4662866000 3.3079914217 2.1721933088 6.3389546637 1.3172910841 0.3122635802 7.1785969059 6.1751815515 3.3113115407 1.4796798349 6.6161467277 2.6567179335 3.2442599254 2.2528504719 4.7584961678 7.3280602298 2.8080908497 2.8835851711 6.0030314137 7.2954461784 0.7810351704 2.1913309669 6.7902974051 4.0383797665 2.7667828429 2.9049707936 0.6482114635 6.1410522953 2.3589057572 1.9786964592 6.9118999602 6.6100945900 5.1515799993 4.7546650302 7.5899859164 -0.1072078312 -0.1789284556 2.3851312545 2.1389763539 4.7713977884 2.1919927613 4.8544962603 8.7894113261 7.0936453863 2.8669810849 2.0333837922 7.6906503156 1.6959580649 2.5963178894 0.8438753267 4.7902321213 7.0730935239 4.2767458545 3.3108340802 5.7156311908 6.4934880243 2.1111330789 7.5111048080 1.9577425385 4.1847952611 6.7215687154 8.6076772431 1.1122877269 1.8683879598 5.2198554551 2.1382067199 2.9083540811 2.9459291975 3.3924702239
5.3987935110 2.4559882251 2.2881670349 2.6542984548 5.9512865484 5.2215676960 1.9788412971 2.4357251642 2.0914124183 7.0474567496 0.8306615027 -0.0192676902 7.7177606929 4.6965592464 3.0388434738 0.9663151262 5.4252832648 2.3383684349 3.9296128461 1.7799216543 4.7528273321 8.7205113459 1.7049734829 2.6955698599 5.7697964572 5.2785637264 0.6689310228 1.5621904935 5.2948289410 3.7692562079 3.4787639511 1.9737234944 1.0126863832 7.9416509868 1.7944136303 1.3523687345 6.5241655855 5.3398994331 4.4935835457 4.2786521267 4.8161824991 0.5348428670 0.2812897120 1.6997643865 2.7506511150 5.4571174056 2.1568541176 4.7489083668 9.3864925220 5.4826784601 2.3456507591 1.6563947561 6.5542875690 1.5144514644 3.7451965792 0.2771389673 4.4329209018 8.4371077114 3.0186882855 3.4969268616 6.4053327367 4.3121106512 1.7218030199 8.0146026391 0.5990618185 3.6039848251 6.0300663523 6.7090479432 1.2170063869 1.3114844226 4.1277199549 1.5312312694 3.2362318053 2.6853552624 3.6747397137
5.0807891649 4.5271050841 1.2330165792 2.8091604814 7.7361244999 5.1502487593 1.8060751021 3.1358491777 2.2791952121 6.1101341054 1.4902800923 0.3412133623 7.4143814724 6.1863900512 3.3418104953 1.6202499577 6.3005433337 2.3474578125 3.0299270286 1.9023231820 4.9970545139 7.4665016337 2.9428077487 3.0466857330 6.0100580957 7.5491883103 0.6382592608 2.2590980249 7.1145003898 3.5061759709 1.9202476245 2.6320330031 0.4512782371 6.7399336850 2.6922614858 1.6961179492 7.0790167798 7.3226459209 4.8628996790 4.5976136746 7.1466028277 0.0785758604 0.0416778006 2.7157677996 2.8105474504 4.4667605561 2.3783139431 5.4366242530 9.1448933947 6.0529093100 2.7321870892 1.5734281003 7.2954084056 1.1703209369 2.9939670264 0.3589813865 5.0989551134 6.8695531640 4.3570708811 3.4114375644 6.2381117630 6.5689832053 1.8445578941 7.1278057101 1.8968411602 4.1490185517 6.1233668615 9.0115331220 1.1573274074 2.4657537789 4.9830136117 2.0897416491 2.9369247186 2.2917672817 3.5024171981
5.3646343996 2.0648672791 2.2653971809 2.6622701715 5.6714836907 5.1642886181 1.9699681362 2.1723395504 2.3057864710 7.1470812096 0.9538283116 -0.0591640771 7.7045241738 4.7947931572 2.9217714650 0.9946231020 5.2393637786 2.2687437763 3.8370894715 1.6735033522 4.7546474086 8.6954757464 1.6476287127 2.7974899362 5.8382148127 5.0713780530 0.4798255266 1.5289323113 5.2210164930 3.7346589195 3.4098533098 1.7565726017 1.0177193283 8.1730845936 1.7053349176 1.3336702824 6.3454086366 5.0050900069 4.2802273537 4.3403426240 4.7475593903 0.4190128315 0.3421000053 1.5244585471 2.9010693031 5.3456697895 1.9446661149 4.5997360478 9.3431116259 5.2937925761 2.1363476877 1.7296000125 6.3797716350 1.4714412432 3.5649941699 0.2342444009 4.1957463270 8.2664168063 2.8935262809 3.5950221946 6.5563317750 4.0915118021 1.4640961248 8.0124433895 0.4372255109 3.5793894188 6.1461975275 6.5082700748 0.9890426790 1.3677236940 3.8834236313 1.6127029809 3.0856578824 2.6383306191 3.7890682544
5.3809720613 2.2009542396 2.2529415958 2.6378541795 5.7385799863 5.1831512131 1.9872232656 2.2588662859 2.2287689290 7.1384321822 0.9153175648 -0.0800863170 7.7158891049 4.7265358624 2.9425667821 0.9954021533 5.2912292548 2.3379774979 3.8509917280 1.7102125435 4.7500310502 8.7119189111 1.6584046123 2.7591077322 5.8417239201 5.0721407739 0.5267408208 1.6076164869 5.2457447567 3.7377862215 3.4723538986 1.8452661567 1.0206283414 8.1048924463 1.7477089286 1.3298378078 6.3876282114 5.1669007148 4.2636775435 4.3108807698 4.7675849396 0.4648058752 0.2951659339 1.5818420588 2.8337683127 5.4177427992 2.0014872716 4.6691589999 9.3911273724 5.3480577528 2.1482858678 1.7346137863 6.3611076709 1.4731372137 3.6537966526 0.2799395317 4.2286332020 8.3218192498 2.9702625799 3.5409120669 6.4085126450 4.0839619241 1.5929985143 8.0101382196 0.4648808947 3.5244379416 6.0684131069 6.5309781912 1.1150874106 1.3345531634 3.9410446224 1.5800955523 3.0938721131 2.5907132992 3.7151384129
5.6157947597 1.8564505622 2.3550710902 2.5894867179 5.0365335737 4.8276789703 2.1212979270 1.6612508158 2.5065417295 7.1960882166 1.5006550848 -0.1713844926 7.5076154000 4.5356924207 2.5325103265 1.0074449372 4.6485003655 2.0925915078 3.7665897637 1.5567228158 4.8520466968 8.6406288434 1.4070659040 2.6622316931 5.8691419218 5.0576920148 0.2627011172 1.1492429382 4.8456078535 3.6194876799 3.7084646496 1.6668280990 1.2039444453 8.5208381732 1.5685086016 1.1318616211 6.1545209959 4.8219971318 3.8961699219 4.3153274873 4.9635170479 0.4096391387 0.4111173075 1.2697042416 3.2211141543 5.3202345455 1.7265119039 4.5199417358 9.1793080330 4.9182292670 1.7435901120 1.7732791274 5.8118219404 1.3155443891 3.2227807320 0.3333063808 4.0609000967 7.8199548244 2.6692191744 3.2023275166 6.5135041892 3.8404287055 1.0221791568 7.8851574141 0.2694082894 3.4295750729 6.4602898956 6.3860664839 0.8819702470 1.6386233261 3.3151430892 1.5514001311 2.9323581215 2.7252505994 4.2101343989
5.1060060181 4.4786880550 1.2397072638 2.8797988961 7.6884508439 5.1273218346 1.7942883958 3.1392559915 2.3077005365 6.1277927340 1.4872549798 0.3432011279 7.4220826533 6.1596580751 3.3780773489 1.6482898820 6.2431289790 2.3335279045 3.0650172297 1.8806312435 5.0235592960 7.4789291371 2.9329539725 3.0136722492 6.0234793274 7.5076115277 0.6144918077 2.2861689238 7.0552994286 3.4694806553 1.8931887818 2.5254963269 0.4604053940 6.7748906816 2.7002941991 1.6460058762 7.1405595598 7.3013113588 4.8212577696 4.6009494119 7.0243084616 0.1248783222 0.0296230849 2.7379655164 2.7658699307 4.4729600874 2.4203425743 5.4513486029 9.1735969802 6.0545330304 2.7201996018 1.5869076315 7.2126247243 1.1101653128 3.1053512197 0.3571266190 5.0978043497 6.9644471826 4.3261693706 3.5170875603 6.3341389235 6.5196344025 1.7832564106 7.1542855483 1.8083788453 4.0511567567 6.0971374332 8.9295035141 1.1767444019 2.4800638632 4.9630956444 2.0061327471 2.8724349226 2.2829913834 3.5192325852
5.7481411853 1.8937606660 2.2378161550 2.8077066695 4.6597658568 4.8783204019 2.2074345864 1.5386781783 2.5001440963 7.6436769691 1.4613922850 -0.0362945741 8.1115019664 4.6826111071 2.5633274054 1.1153063965 4.5707312910 2.1538645123 4.0486738132 1.6284212471 4.7110144842 9.2539825328 1.5640285753 2.7434870881 6.2455982586 4.6489561198 0.3417504643 1.4366206164 4.6336104075 3.6612937591 3.8216745707 1.6200231337 1.2821861360 9.1017529430 1.5924545184 1.2131762199 6.4596122972 4.5582228445 3.7568750153 4.7134306163 4.7450939927 0.6204916109 0.3726752098 1.4281127622 3.0590351562 5.5617826908 1.5327900775 4.3627481355 9.9789441194 4.5246008442 1.9133039252 1.7909819461 5.7672986079 1.3904700414 3.3131774552 0.3890428240 4.0550725156 8.4320277317 2.7151186424 3.4490617133 6.9205836209 3.4327027194 1.0979540229 8.5470826105 0.3044984620 3.4143618003 6.9167421519 5.9887575981 0.8933326933 1.9176448223 3.3227070310 1.6375360968 3.3147201937 2.7976392951 3.9399582593
4.6190832552 4.6214452403 2.2060345731 2.7145710311 8.2746954782 5.4122549377 1.6682345428 3.2697648819 2.1274068399 6.0396682709 1.4590371339 0.3529260058 6.9674923852 6.2219154961 3.3845460080 1.6470599156 6.4970225549 2.7331457337 2.8236655199 2.1031734292 4.8527863213 6.9978838649 3.0695732433 3.0993243508 5.9493785130 7.6413085399 0.5998256723 2.1701627053 7.1807565390 4.0144009736 2.1816823879 3.0771034560 0.2209788749 6.1417800348 2.1122273696 2.2033478400 6.6247004521 6.7375092941 5.1026550824 4.5545354430 7.9579540845 -0.0134481899 -0.1622118382 3.0631173262 2.5475499998 4.2457549035 1.8881439728 5.3593380029 8.6505416097 6.6178792519 2.7696677607 1.9710904765 7.4459597008 1.5701195073 2.0386790927 0.8211456488 5.1238084998 6.2254863165 4.4016035094 3.3524351758 5.7545847936 7.0095758640 2.0111701741 7.1925953341 2.4428438839 4.5299158038 6.8581661556 8.8736925313 0.6966456215 2.3667581838 5.1514808410 2.4841502852 2.8077776232 2.3341656825 3.3025283716
4.9752847335 3.3134544903 2.0618853973 2.7800548855 7.2096040980 5.2449557457 1.7400673433 3.0561003043 2.1251142088 6.5524840083 0.9941760011 0.1620934805 7.4158994221 5.4133190233 3.3517215006 1.1296971136 6.2826953859 2.5243496454 3.4673878975 1.9387400194 4.7203417589 7.9892877893 2.1779247569 2.9037151541 5.7203360647 6.4020449156 0.8302371487 1.7556364125 6.2925324007 3.9552542990 2.9531583972 2.3443002174 0.8077179094 6.9466650575 2.0730962247 1.7446511666 6.6731432762 6.0445061519 5.0298107888 4.2656213802 6.1267155134 0.4195452855 0.1515508699 2.1040607449 2.3012084156 5.0490459453 1.9947410124 4.7133172878 8.8734619852 6.4349999030 2.7220404301 1.8057054771 7.3292825758 1.5901774324 2.8882243579 0.5147028961 4.4690475557 7.9055949846 3.5867222129 3.5736273375 6.0775077694 5.5392388322 2.0761498411 7.7226077961 1.1332127956 3.9898664826 5.8478706714 7.9343086710 1.0608626738 1.3222207981 4.8386936645 1.9241007090 3.0264451065 2.9235501306 3.5897257251
5.4049337348 2.3878846673 2.2729572054 2.6453634006 5.8817284878 5.2145330271 1.9840155813 2.3849434625 2.1226597848 7.0854795536 0.8590335516 -0.0452934842 7.7244750806 4.6837031715 3.0089492646 0.9816522989 5.3598726280 2.3441232095 3.9259877963 1.7534332893 4.7499317791 8.7162181672 1.6955408145 2.7103880143 5.8006942630 5.2030503976 0.6115860572 1.5929903612 5.2726483814 3.7734361167 3.5048430299 1.9527660323 1.0159640447 7.9788658755 1.7820472875 1.3405016704 6.4703761555 5.3080497624 4.4336581262 4.3039449967 4.7741367770 0.5325822288 0.2858235619 1.6588124680 2.7919483794 5.4276202241 2.1239676027 4.7521794313 9.4100490463 5.4504564679 2.2744321456 1.6896734407 6.4698882106 1.4887671183 3.7165477317 0.2445631171 4.3703983528 8.4121847291 2.9957934783 3.4968704857 6.3543683439 4.2084556127 1.6943663531 8.0199525291 0.5613808192 3.5647369302 6.0367879761 6.6155814615 1.2108733074 1.3208076457 4.0698858702 1.5484638055 3.1966124705 2.6649026503 3.7001599560
5.5030293528 1.8253670694 2.2187866487 2.6595540826 5.1804151829 4.7986096792 2.0823223933 1.7971249022 2.4456931799 7.0669875606 1.5154973456 -0.1305269905 7.5151062841 4.7633525388 2.6059617901 1.0606744976 4.8792502471 2.1057755311 3.6720847932 1.5722541292 4.7766820582 8.5423602201 1.5252193094 2.6920705052 5.8525717167 5.1456141641 0.1551641927 1.2126230807 5.0195368970 3.6454660826 3.4794222151 1.6848168130 1.0880779398 8.5313510798 1.4551808751 1.1382901424 6.0858486535 4.8421274984 3.8412609599 4.3104660915 4.9948330389 0.3972599886 0.4306454780 1.3139061287 3.2042632709 5.2080894412 1.7400028424 4.4597265068 9.1455674806 5.0182758134 1.6198988971 1.9178792555 5.9519059914 1.3705781383 3.1715942009 0.2678032461 4.1266397555 7.7979335182 2.7442636731 3.3203140630 6.4547050007 4.0038459808 1.0692034326 7.7596201717 0.3648093831 3.3897347508 6.3453187535 6.4928948584 0.7738385395 1.5739416607 3.4881158939 1.5853079240 2.9099790017 2.7009402990 3.9522729385
4.8936342632 3.4504186271 2.0045847106 2.7707748866 7.4411321403 5.2395751026 1.7131649966 3.0854846145 2.0879003613 6.4919851790 1.0620716758 0.2123457204 7.3746035646 5.5706404068 3.3622518623 1.2140520775 6.3378047724 2.5872091405 3.3795917599 2.0264048406 4.7127272334 7.8536209791 2.3498174945 2.9197933441 5.7860883256 6.5682608668 0.7569256027 1.8758710104 6.3946120237 3.9786459688 2.9341005807 2.4667200032 0.8236468531 6.7713424525 2.1857133319 1.8112752842 6.8817865082 6.1159070398 5.0692742311 4.2939140766 6.2649554974 0.3945500394 0.0797252358 2.1733139444 2.1879032792 4.9310901944 2.0359480879 4.8070907924 8.8423536084 6.6117802140 2.7682405933 1.8486561310 7.3507542377 1.6103861517 2.8085246105 0.6239241709 4.4140931890 7.7110763570 3.7542238361 3.5770973475 5.9293336173 5.7345257470 2.0866674967 7.6701402953 1.2880602126 4.0501276951 5.9724375896 8.0826051093 1.0748498584 1.3925334179 4.9308931903 1.9490184098 2.9872716841 3.0166506478 3.5897741194
5.6912317460 1.8814619052 2.4205009853 2.5864914577 4.9702808866 4.8835100352 2.1745210912 1.6043859354 2.5555813334 7.2651266728 1.4654066276 -0.1765389311 7.5394178110 4.4446963996 2.5798611274 1.0030716272 4.5590442523 2.1149371417 3.8543153275 1.5520729708 4.9045504834 8.7094947569 1.3981888973 2.7053759330 5.8706640181 5.0148278324 0.2782245994 1.1971021758 4.7164547469 3.6543781947 3.7500534582 1.6314427390 1.2859036978 8.5956541897 1.5634618867 1.1857772579 6.2945205243 4.7584817090 3.9948392349 4.3586206855 4.9051785886 0.5063141515 0.4089337298 1.2873523357 3.2349558819 5.3554528641 1.7605324524 4.6080595407 9.2505984030 4.7973814098 1.7734994632 1.6814901506 5.7158447490 1.2954324841 3.2060389009 0.3391436626 4.0852184134 7.9046298045 2.6094485888 3.2889416046 6.5635838627 3.7705697088 1.0067674017 7.9500429352 0.2718723385 3.4703134448 6.5310504252 6.2483337419 0.9369382178 1.6278861484 3.2535149486 1.6170172746 3.0199676992 2.7686427865 4.3416578475
4.5489128447 4.5829090854 1.9888855371 2.5651649334 8.1670238630 5.3180912450 1.7132183612 3.2423194610 2.0643325318 6.0118557484 1.4149234314 0.3789285222 6.9565257060 6.1416601880 3.2391541134 1.7226644405 6.3672572091 2.6456218100 2.7469037902 1.9937116659 4.8062981677 7.0752818629 3.0206211303 3.1672428575 5.8256849007 7.5213467150 0.5640400766 2.1991793505 7.1118906531 3.8934902751 2.0518987583 3.0465890806 0.1757330692 6.2496110043 2.2219902560 2.1389485611 6.5923774058 6.5484656446 5.0842713204 4.4287670328 7.7784034614 -0.0661132046 -0.0743984126 3.1327873270 2.6063941783 4.1924979183 1.9283653453 5.3658462013 8.7164006794 6.4310084980 2.7576572802 1.9204847054 7.2732684821 1.4454430648 1.9350454119 0.6960750556 5.0236243167 6.3332951519 4.3726743703 3.4121526069 5.7350967609 6.9232824582 2.0177574937 7.1301800351 2.3372195011 4.5566945190 6.5089236428 8.8849898998 0.5373628912 2.4651440685 5.0103901114 2.5955504446 2.9080981949 2.2728002460 3.2653502772
4.2744602039 4.6878366713 2.1131197993 2.9144837413 8.2185880316 5.4230516742 1.5959520432 3.3416642469 2.1135297199 6.2870104412 1.4340528183 0.4721469600 7.0673563937 6.2726115046 3.4251298769 1.5981997630 6.5510676029 2.7042237127 2.9672243755 2.1689709671 4.8990106447 7.2099862542 3.0120499849 3.0942869862 6.1811274649 7.5964002504 0.7615762725 2.1786504968 6.9673707188 4.0923806089 2.3991419816 3.0809996993 0.4087223027 6.2342271673 2.2366748119 2.1880087361 6.9182932382 6.7901932465 5.2319681574 4.8776357222 8.1266437047 0.1152426466 -0.1497255592 2.7301355824 2.3108491135 4.4794905226 2.0229305997 5.2332663643 8.7618534507 6.7680244158 2.7896966298 1.9863113118 7.5971900331 1.6508989406 2.0837495487 0.9173046201 5.1834063210 6.5722479946 4.4092964379 3.3514750255 5.8991930120 6.8511164015 2.1244792890 7.4235427696 2.2607844514 4.4210098246 7.0833503035 8.8361597749 0.9250509758 2.1943689530 5.1684609518 2.3259837739 2.7736559471 2.6750482563 3.4178361047
5.3649662636 2.0718520574 2.2644178100 2.6609698686 5.6740453405 5.1651974258 1.9712343479 2.1768995505 2.3014654600 7.1466397405 0.9507510654 -0.0606688656 7.7051693722 4.7899527686 2.9220036919 0.9944548413 5.2417475128 2.2706779674 3.8399883794 1.6760730130 4.7558844993 8.6973703446 1.6490196297 2.7953056517 5.8380953332 5.0718139347 0.4824999852 1.5357297122 5.2217560148 3.7337911164 3.4127843603 1.7610474477 1.0178117396 8.1698285079 1.7081834034 1.3329475765 6.3451704855 5.0152874154 4.2813951443 4.3376863025 4.7498195458 0.4192638022 0.3384636541 1.5282984337 2.8949729898 5.3471239336 1.9460441646 4.6023714170 9.3460299603 5.2951570406 2.1366176813 1.7303350446 6.3774855544 1.4730094490 3.5710339657 0.2361770563 4.1955143980 8.2701030467 2.8957314156 3.5914403882 6.5478778577 4.0889542264 1.4720288032 8.0109969083 0.4364174992 3.5766866760 6.1411601023 6.5048161215 0.9937714412 1.3640556718 3.8880956959 1.6127320214 3.0831042102 2.6341597864 3.7807865113