-28927.5125587971
-28927.3670296696
-28927.9340691757
-28927.4143852085
-28926.5189314068
-28927.316874489
-28927.0347652373
-28928.0690932178
-28926.6334320894
-28926.5357861293
-28926.9541825749
-28927.5850762816
-28927.7825766766
-28927.5163145104
-28927.337514313
-28927.8743139598
-28927.3114854132
-28927.3259996858
-28926.5872033734
-28927.9452593074
-28926.7453878287
-28927.2320946088
-28928.0614468228
-28927.2947290598
-28926.6002963961
-28928.0573832129
-28926.5068332317
-28927.2790340858
-28927.2645433511
-28927.321000685
-28927.5169918014
-28927.7652373195
-28927.5120117125
-28927.526269518
-28926.5560577836
-28927.5446950168
-28927.9652807531
-28927.8455394327
-28926.5118447497
-28927.9904595697
-28927.9305863925
-28927.4902956787
-28927.2609835597
-28927.3303773149
-28926.6613119066
-28927.1814395552
-28927.8181159502
-28927.7751142305
-28927.6752208833
-28927.9781831602
-28926.6570213539
-28926.5084287704
-28927.9634131007
-28926.4711991265
-28926.5814140184
-28927.8534886902
-28926.5851845618
-28927.7330674938
-28926.6692740895
-28927.0351974899
-28927.9929032868
-28926.7337127904
-28927.234160496
-28927.3952873167
-28926.5237603365
-28927.819479648
-28926.536003004
-28927.5318293451
-28927.2491003544
-28927.1379461261
-28926.6289841189
-28927.4792217396
-28927.4475210379
-28927.7128482214
-28927.8508306836
-28926.8726394871
-28927.3677815198
-28926.6475191435
-28927.8239131965
-28926.6168971005
-28927.2792704166
-28927.4990592365
-28927.5313685205
-28927.036262815
-28927.7708669438
-28926.6070031825
-28927.8387964553
-28927.759941987
-28926.5442534913
-28927.3350422961
-28927.9730232042
-28926.5765351558
-28927.250482556
-28927.8102220678
-28927.5308977638
-28927.8398144326
-28928.1105966795
-28928.088553429
-28926.5879739994
-28926.5526026199
-28926.9649653523
-28928.0058071905
-28926.4063038188
-28927.9308283016
-28927.6003795479
-28926.5794269081
-28927.0372428325
-28928.1962851473
-28926.5725376695
-28927.2256215681
-28927.5606767986
-28926.6491346826
-28927.7341492818
-28927.0464327924
-28927.5996366775
-28927.7908213135
-28927.8056677009
-28927.2307409792
-28927.3067496824
-28926.7035991918
-28927.9992861218
-28927.3387952883
-28927.2728074441
-28927.7901393966
-28927.2557441464
-28926.6234287817
-28927.3100335506
-28926.9706952505
-28927.4036927729
-28927.3341100346
-28926.5100213158
-28926.5630784531
-28927.5927059415
-28926.4660137278
-28927.7732509319
-28927.8345540666
-28927.3743653108
-28927.843579942
-28927.3859425241
-28926.43171366
-28927.461914492
-28927.6975212813
-28926.5934894719
-28927.709834018
-28927.8009515623
-28927.2447898013
-28927.7912385998
-28926.5985928283
-28927.6255247585
-28926.6104871902
-28927.5367147384
-28927.3391747508
-28927.4697385772
-28926.9773602674
-28927.9019264253
-28927.468965094
-28927.0642438585
-28928.0997200228
-28927.7080831024
-28926.5055302153
-28927.0817677086
-28927.8941748584
-28928.1281165839
-28927.7975724544
-28928.0966399678
-28927.5143378765
-28927.2659592947
-28926.6218947407
-28927.0387850369
-28926.6477267663
-28926.5405932899
-28927.3101130078
-28928.1090367877
-28926.5193897823
-28927.3328796725
-28927.953151421
-28927.5794244801
-28927.2764892785
-28926.6270972825
-28927.0510709704
-28927.0660428022
-28927.8491135101
-28928.0030976184
-28927.0319402889
-28927.0926749781
-28927.2799784564
-28927.9804938137
-28927.7777286989
-28928.122657575
-28927.512457979
-28927.4976510481
-28927.0255033033
-28927.6229275693
-28927.9660764136
-28926.6350673567
-28927.2806644551
-28927.7471850246
-28927.7371301513
-28926.3858079429
-28928.1225617909
-28927.9227828519
-28926.7118359375
-28927.7709933406
-28927.7251695297
-28927.6609410367
-28927.8523387377
-28927.2952481167
-28927.7740758446
-28927.3411727457
-28926.6003497304
-28927.7659532507
-28927.7064468827
-28927.4945520812
-28927.7287015656
-28927.2583065051
-28926.5782149137
-28927.5791052907
-28928.1948862107
-28928.0927818038
-28927.5860168426
-28927.1005064104
-28927.9762001316
-28927.4648880145
-28927.3622837346
-28927.2625669893
-28927.9871943414
-28927.6870649042
-28927.362911637
-28927.8730034602
-28928.11226841
-28927.2845883346
-28927.4914108007
-28927.3868496152
-28926.4890429823
-28928.1197926259
-28927.8246740264
-28926.548457784
-28927.8004582201
-28927.3791915193
-28927.8426385646
-28927.8096737587
-28926.4643741067
-28926.6128091364
-28927.6211999194
-28927.8636895525
-28926.6751775962
-28927.006586095
-28927.7801567694
-28927.3530086031
-28927.7909345128
-28926.5317457851
-28926.9052340824
-28927.8689259725
-28926.5717116684
-28927.2349806467
-28927.3954831025
-28927.9155130623
-28928.0606953809
-28926.3634332579
-28927.9629457454
-28927.4272511524
-28927.3854766655
-28927.9020801696
-28927.5792315514
-28927.8072387493
-28927.0172271012
-28928.0513652824
-28927.2901027187
-28927.5893983995
-28927.6228760037
-28927.9608750962
-28927.7659295768
-28926.3565444275
-28927.7712617808
-28927.8565158191
-28926.6468077023
-28928.1596821812
-28927.5448595095
-28927.4996894518
-28927.1941573332
-28927.0290177878
-28927.9449564448
-28927.8061889346
-28928.091454025
-28928.0305202846
-28926.4836683286
-28927.2948614431
-28926.6004867396
-28926.3532843693
-28927.9431361403
-28926.5586582381
-28927.5178250135
-28926.9176581136
-28927.9377942762
-28927.6064753029
-28926.4237773279
-28927.7658472624
-28927.3430901949
-28927.7494939094
-28927.3574939893
-28927.7332042309
-28926.4705963947
-28927.6205888881
-28927.8934094026
-28926.4120641937
-28926.495530309
-28926.43995612
-28927.0543216407
-28927.6336302092
-28927.888796123
-28927.8423536616
-28926.9813725838
-28928.0197320649
-28926.466248562
-28927.7682549244
-28926.530433925
-28926.9944847906
-28927.9712050765
-28927.9950340731
-28927.8425430527
-28927.8882080853
-28928.0833578261
-28928.1165007304
-28927.2365979545
-28927.0338135196
-28927.7683681237
-28927.8018132103
-28927.7386364367
-28928.0767326738
-28926.6167037637
-28927.3414230903
-28927.491693935
-28927.9612303407
-28927.6186646361
-28927.7053796528
-28926.9352698564
-28926.5621942196
-28927.2365488379
-28927.5110099259
-28927.500695048
-28927.8523009139
-28927.2739603899
-28927.6806347214
-28927.720933944
-28927.3673670906
-28927.3562124698
-28928.1338255293
-28927.2331048309
-28927.839872801
-28928.1052756321
-28927.4795530381
-28927.145616331
-28927.2845491502
-28927.7136674197
-28926.6372936549
-28927.7557738854
-28927.7702414905
-28926.5685746056
-28927.0764202663
-28926.5774661928
-28927.0122193928
-28927.9977746663
-28927.8488216682
-28927.5591502407
-28927.2251782949
-28927.4407252704
-28927.9443357535
-28927.5517325573
-28928.1006740534
-28927.2264485216
-28926.5666925312
-28927.7582112078
-28927.9909452927
-28927.2434021575
-28927.5233052474
-28927.5457121778
-28927.4887348346
-28927.2320120223
-28926.6487597099
-28927.4027973827
-28927.7570386698
-28927.8171274972
-28927.9841904783
-28927.6913553209
-28926.5123812219
-28927.9508355974
-28927.9536544232
-28927.6054363728
-28926.8397107363
-28927.3360133339
-28927.7390184843
-28926.8075437677
-28927.4438956671
-28927.4475271605
-28927.3312452216
-28927.3624418327
-28927.7276834522
-28926.6261369933
-28926.5063745841
-28927.7807215414
-28927.726108322
-28927.9256397736
-28927.3265060894
-28927.0777426028
-28927.5964683216
-28927.0455963149
-28927.2460477829
-28927.3260829526
-28927.8799268491
-28927.3549517671
-28927.416609738
-28928.1746423121
-28926.69285383
-28927.0324061476
-28926.5929534079
-28926.510052881
-28927.8924401336
-28927.0416124343
-28927.3876299012
-28927.813747845
-28926.6159061985
-28927.260043815
-28927.9659096079
-28927.6684813073
-28927.5077995285
-28927.2331188447
-28926.9596758702
-28927.748128987
-28927.739694959
-28926.6453657718
-28928.1578113995
-28926.6089638977
-28926.5546095945
-28927.2896159073
-28928.0507663601
-28927.2653070382
-28927.8379154872
-28926.5859719228
-28927.2120615983
-28927.2336006221
-28926.5106841848
-28927.8221788798
-28927.537635299
-28927.8449371091
-28927.8296258154
-28927.5991625193
-28927.5223370668
-28927.1277920673
-28926.6143490278
-28927.7858069383
-28926.6504990606
-28927.4618482324
-28927.3485121964
-28926.4961744021
-28926.6837015579
-28927.0679636528
-28928.0091268416
-28927.4688906709
-28926.6252274532
-28926.5026226804
-28927.3321234685
-28926.6293635815
-28926.5540235976
-28926.6336910056
-28927.5290516084
-28927.2677204146
-28927.8266007274
-28927.3522251878
-28927.754171952
-28927.766793946
-28927.1602402654
-28927.3514344254
-28926.6133506427
-28927.9019842495
-28927.9731934113
-28927.8573008671
-28927.2365642124
-28927.5256957662
-28927.9732345005
-28927.9747641876
-28927.3041685479
-28927.650868476
-28927.3607654762
-28926.6358514523
-28927.4652714227
-28927.4792953464
-28927.3809514147
-28927.6461158742
-28928.189592783
-28927.8311552305
-28926.62287435
-28927.804875986
-28927.4806929224
-28927.4608974671
-28927.6437641315
-28927.2572717927
-28928.0861018206
-28926.5304692998
-28928.076654169
-28927.7761071734
-28927.5220301226
-28927.7353837256
-28927.2073285886
-28928.1860753052
-28927.9564080778
-28927.3874201015
-28927.2424375144
-28926.4777510801
-28926.5315510878
-28927.4816095374
-28927.0806750361
-28927.9397013851
-28927.9452700559
-28928.0539008378
-28928.0000687208
-28926.6406054147
-28927.7761639091
-28926.6203651896
-28926.5736737442
-28927.3180818574
-28927.8059649851
-28927.7281269975
-28926.5116325011
-28927.98568792
-28927.2161597666
-28927.2615868357
-28927.2857497159
-28927.1056448694
-28927.511072376
-28927.8610504578
-28927.4899377132
-28927.2898399929
-28927.2082569045
-28927.3005216801
-28926.4921322891
-28927.2881371054
-28927.8589404882
-28927.7736210066
-28926.4796296171
-28926.950028215
-28927.9130917946
-28927.1218202601
-28927.9169250603
-28927.2063055772
-28926.6064347369
-28927.4617265975
-28926.3848065645
-28926.6070267203
-28927.4268756355
-28927.9042946308
-28927.8025630196
-28927.5056483337
-28926.9991852826
-28927.2542491538
-28927.4236653741
-28927.5156958599
-28927.3455750011
-28927.8917195765
-28927.8503083614
-28926.6465467452
-28927.7729643962
-28927.4054225996
-28926.5155527071
-28926.666472679
-28926.4713208974
-28926.4711587176
-28927.5637941331
-28926.6303981577
-28926.8891638636
-28926.5027132943
-28927.3678509088
-28927.2853533823
-28927.8548178296
-28926.6283827476
-28926.3959919341
-28927.4592680503
-28927.2193830894
-28927.6807774451
-28927.2885679975
-28927.4807832641
-28927.2178052382
-28927.8749083922
-28927.3181916553
-28927.5287664333
-28927.9793230445
-28927.184875671
-28927.274874964
-28926.5218645204
-28926.5989765086
-28926.5267814789
-28926.6773689279
-28927.8398791957
-28927.211125255
-28926.5701618448
-28927.4777214408
-28927.876556857
-28927.9765266681
-28927.1543158059
-28927.5433990753
-28927.1636667211
-28926.7777128953
-28927.8670441702
-28927.5177561688
-28926.6032052916
-28926.9935225966
-28927.2805605076
-28927.7287810228
-28927.4968553876
-28927.81175883
-28928.041178434
-28928.0447467969
-28927.2202186146
-28927.9654795321
-28927.8348343438
-28927.295124577
-28927.7962948805
-28927.0363158772
-28927.3432401295
-28926.5268099147
-28927.2596204061
-28927.4162648339
-28927.4434035495
-28927.0227729144
-28927.806175465
-28927.2254085031
-28927.7569849274
-28927.427872524
-28926.5970308957
-28927.2688951294
-28927.8134277033
-28927.4640999732
-28927.3417346605
-28926.5230999166
-28926.6468272944
-28927.8060225371
-28926.5857048432
-28928.099629545
-28927.3730157629
-28927.1333031861
-28927.4614301297
-28927.8529509936
-28927.7629284348
-28927.3295830151
-28928.1039511187
-28927.9604353605
-28927.9780660153
-28927.8531652831
-28926.5242411614
-28927.4055094039
-28927.5318640395
-28928.1318595079
-28927.7174669433
-28927.3246246953
-28926.5802337252
-28927.2642150459
-28926.5335950698
-28926.5953041982
-28927.8007740081
-28927.9628396211
-28927.2537430223
-28928.0708784197
-28928.0092170473
-28927.4807379572
-28927.8351271381
-28927.0397217883
-28927.3011635964
-28926.5517034202
-28927.299657311
-28926.6806077612
-28926.4998212699
-28926.6000944877
-28927.9703084619
-28928.1230862901
-28926.483214715
-28927.8477787924
-28927.6111156578
-28926.8081828268
-28927.3398172113
-28926.6918784385
-28926.4956154805
-28927.760284442
-28926.515825365
-28927.9115285014
-28926.4870124699
-28927.3576832444
-28927.5941216131
-28927.4768751672
-28928.1702758396
-28927.407273381
-28927.5415107423
-28927.9930543099
-28926.4592036743
-28926.6217113361
-28927.6295618373
-28927.7458303066
-28927.7114623464
-28928.0153434151
-28926.9571430358
-28927.7820172108
-28927.7711374248
-28926.8352888887
-28927.7952287391
-28927.4645367157
-28926.7794704777
-28927.7657906628
-28926.6479169738
-28927.2774320164
-28927.4839498512
-28927.6195275086
-28927.4691625125
-28927.7929647531
-28926.6406382044
-28927.6381795421
-28928.1344893507
-28927.3378242505
-28927.1156352518
-28927.3465377394
-28926.5888767366
-28927.9214033715
-28927.8748875755
-28926.511754544
-28927.3948662208
-28927.7110051954
-28927.6136449546
-28927.4553302929
-28927.6926187448
-28927.5049911791
-28927.2424756104
-28926.5446013887
-28927.4616257794
-28927.8901526098
-28927.2700819533
-28927.9807731384
-28926.5101343791
-28926.3671050241
-28927.2111823989
-28927.8515004915
-28927.8471296652
-28927.5110930567
-28927.7715168874
-28927.9263743446
-28927.2381355329
-28927.5189586392
-28927.7165278789
-28927.4842240058
-28927.9759829849
-28927.2523908893
-28928.0680518387
-28927.9531782242
-28927.73704566
-28927.5159989945
-28927.5280536314
-28927.9015566228
-28927.8271396486
-28926.5632651231
-28927.477262521
-28926.6433544434
-28927.5180167176
-28927.5328863707
-28927.3441564724
-28926.9869601665
-28927.3866534212
-28927.4972212445
-28927.8541806754
-28927.1749296431
-28927.2966662372
-28927.7503471219
-28927.716819993
-28926.5429979587
-28927.6229640325
-28927.77082912
-28927.8477113082
-28927.9746681315
-28927.8088110222
-28927.920389748
-28927.3814482943
-28927.3310695722
-28927.3454812579
-28926.6478094888
-28927.2532544421
-28928.1810937197
-28927.9530850253
-28927.2445198645
-28927.4615645538
-28927.8450482675
-28927.3241538025
-28927.4610237278
-28926.684465381
-28927.8271657715
-28927.2949800847
-28927.2556197905
-28927.3428375373
-28927.5377710837
-28927.5067732517
-28927.0130444415
-28927.3423992982
-28926.4875005058
-28927.9851381142
-28926.3735319415
-28927.4379340641
-28927.5142544736
-28927.9854207043
-28927.2596461208
-28926.690843454
-28927.4894287245
-28926.5967752448
-28927.8097186575
-28926.7545152024
-28926.5220890142
-28926.5574284203
-28927.9107107997
-28927.9780011161
-28926.6267877532
-28928.1448113036
-28926.4995539182
-28927.5009338278
-28928.0304586508
-28928.0525877532
-28927.0941385416
-28927.7865674961
-28927.7995137135
-28927.9939362304
-28927.5980795068
-28926.4972668025
-28927.7176212318
-28927.7213343593
-28926.5977370307
-28927.8538301929
-28927.5219720263
-28927.8582735375
-28926.5712731571
-28927.5423281719
-28927.2503216007
-28927.1168555456
-28927.2571166879
-28927.7115766341
-28927.914133854
-28926.6112984972
-28928.0725509666
-28926.533310711
-28927.6828822445
-28927.2361300549
-28927.9251856159
-28927.053846258
-28927.9695458632
-28927.9898773825
-28927.2970839317
-28926.5080309402
-28927.4972102239
-28926.4980866811
-28926.6339912831
-28927.3055587768
-28927.6164085414
-28926.8622662408
-28927.5057446619
-28927.2932088966
-28926.3561106783
-28927.7394209405
-28927.3695034553
-28926.4976804154
-28927.9694383783
-28926.9616463815
-28927.8505800669
-28927.2828153778
-28927.7679298846
-28926.7169308583
-28928.1421082622
-28927.3827855971
-28927.9380853018
-28928.0081311776
-28927.236398223
-28927.3663349634
-28928.1299683177
-28927.4251852652
-28927.490937595
-28927.2655474506
-28927.5844851146
-28926.6433143066
-28927.9313676309
-28926.5616497201
-28927.8496204579
-28927.2650153323
-28927.8736200699
-28927.3321114955
-28927.794194707
-28927.4866701719
-28927.9773291314
-28926.5965449006
-28927.1089925482
-28927.3756393471
-28927.6892344667
-28927.3540467169
-28926.4801590143
-28926.5125312926
-28927.1118362724
-28928.0859222256
-28927.8684493654
-28926.6211148628
-28927.033546304
-28927.2447929306
-28927.8198449606
-28927.6836096045
-28927.825204376
-28927.8418608637
-28927.2570444418
-28926.5418586186
-28927.3667590526
-28927.2329944888
-28927.6098108726
-28927.2746008095
-28927.4648209385
-28927.961154557
-28927.2111738273
-28927.3082239945
-28927.2042896228
-28927.3260867622
-28927.4634039064
-28926.4971858487
-28926.6119865367
-28927.2071854568
-28926.5632297483
-28927.9837474772
-28927.8125423813
-28927.5094293535
-28927.4973503625
-28928.059429644
-28927.3498798398
-28927.3513178247
-28927.840200562
-28926.4154905134
-28927.7202720274
-28927.2683352555
-28927.9093168973
-28927.412083943
-28927.3484026706
-28927.1316394829
-28926.4785547679
-28927.9186935272
-28927.3865395416
-28926.4724107127
-28927.2485255142
-28927.587860549
-28926.5125787764
-28927.9579214381
-28926.9558807004
-28927.8021949858
-28927.209421279
-28928.0839517142
-28927.7194520127
-28927.6744731149
-28926.4678609717
-28926.5213292727
-28927.1129209176
-28927.886675677
-28926.6428171549
-28927.8060200881
-28927.698925524
-28927.5349008284
-28927.3598572968
-28927.3202006708
-28926.4490398195
-28926.5776611623
-28927.3761408526
-28926.6431632835
-28927.0977496265
-28927.9404763649
-28926.5953890977
-28927.9845925263
-28927.3829302255
-28927.2860925791
-28927.0308209492
-28927.330052003
-28927.6914618534
-28927.2072246412
-28927.4551598137
-28927.2942698679
-28927.7213347674
-28927.5113326528
-28926.982086066
-28927.8184435751
-28927.0342535275
-28927.8498978779
-28927.2399245444
-28928.1933769321
-28926.4454990761
-28928.1323622379
-28927.9788974587
-28927.6459021289
-28927.5079234763
-28926.4682940406
-28927.3655386226
-28927.2475105301
-28927.9676822925
-28927.9786675226
-28927.1825666502
-28927.7682292097
-28927.9260166511
-28927.268046815
-28927.0291361572
-28926.6405497675