-0.146008759283519 -0.175049611587568 0.196565105939167 1.14280668477586 0.92582291652668 0.118871550775976 -0.291702815702785 0.505088841158272 -0.068848964860677 -0.10491046782753 -0.0309774062040068 0.459711207812892 -0.967965332436695 0.286483736093752 0.988931382326769 -0.675151543632248 -0.125126784423356 -0.183225201193363 -0.139525211793446 0.389203110939944 0.237240194033588 -0.0601383289636164 -0.288694883669381 -0.810330564888668 -0.330397384055919 0.182502207358169 -1.85936453786359 0.211517348643897 0.426088909154177 0.436294383656436 -0.325862988864781 -0.114909739962852 -0.419946803987411 0.330626212118978 -0.116983847810829 0.318174880166357 0.132778640585947 -0.47818380314617 0.402333985106797 -0.596587156278516 -0.245445351310452 0.437588162098362 -0.46826552071856 0.525452738999262 -0.15079075158109 0.549288138533988 -0.20258611220964 0.0917199440981729 0.102665124597534 0.36368004016261 -0.18405643841569 0.0516796610461042 -0.631196758040767 0.22002563882677 0.0537208587906293 -0.134144152768989 -0.249007612898863 0.527083588891379 0.457250920469731 0.551036230669651 0.238945091658471 0.140277259079343 -0.374317459772666 0.0930268351594426 -0.35495500609529 -0.289142512498354 0.0850232522662168 -0.0659598177319167 0.182769344838527 0.880108983061659 -0.964898522171335 -0.693276783108005 -0.292754653462308 -0.272739139919572 0.641045106498544
0.649074400410091 -0.218398388477217 0.0814098257513466 -0.171878414587824 0.0892056636165366 -0.34103917453909 -0.0385441588959544 -0.319658148813311 0.21598412385685 -0.751263871168682 0.469208600870584 -0.342167888243393 0.680697153173961 -0.114680140569244 -0.149032375038099 -0.816407364068898 0.431535788385537 1.14766786700986 -0.333782239617913 0.971196950329495 -0.724447279059605 -0.19029650256226 -0.0584786827309789 0.14598484803648 -0.943923473424849 -1.00465161314876 -1.94731756066751 0.397713715114466 0.317011970807687 0.0915191410450838 -0.0556561271396707 0.1187486521084 0.314581765355961 0.0330489429501509 0.238940977895539 0.304494047317614 -0.482406323685071 0.642129340141151 0.922745307633625 -0.232988105823617 -0.814785513033193 0.537979404235564 0.527230141695811 0.0684283326009411 0.109468774265707 0.772743884314997 -0.105143666763704 0.205459061396858 -0.288886687866057 0.193547146608617 0.0908557967723952 0.246341894519315 0.0642263808766972 -0.261658976574024 0.607389383516011 -0.848670321188968 -0.256605990143346 -0.0693199907163225 -0.181820865372656 4.3965841329359e-05 -0.272228776205895 0.350454806558519 -0.121706190545895 -0.18494963919217 0.526081116287033 -0.781799819188112 0.358692102608285 -0.0824364667129146 0.627219777726834 0.552234107013238 -0.58624824159117 -0.210425401695793 0.0073656925286753 -0.145744192904993 0.340786949449358
-0.0546076318125296 -0.0646837798926324 -0.164165623311811 0.546371994835991 0.0604589453620825 -0.179584520999072 0.614047508820485 -0.677160602603872 0.0799098449424841 0.208049189382542 0.0488157107152988 -0.436182026506372 -0.478162720111147 -0.232020085983822 -0.202004786085397 0.200923123544621 0.151313456583562 0.224411424332011 -0.157787490996856 0.645794702913031 0.069830868650366 0.552719788149327 0.351758355187407 -0.249321287322383 0.0595554601782734 0.791634026585812 0.106364683023781 -0.121212281883944 -0.0903832282556504 -0.269419847454297 -0.27121679052477 -0.384016941434363 0.29517894537982 -0.164068178552374 0.313414742234359 0.339767764683103 0.763588190690796 -0.540314736029684 -0.902030968612917 -0.360458963787323 -0.21979681076371 0.192962220941809 -0.296983344645606 0.0456427139442718 0.151491376830345 -0.385991804751619 -0.580857155269567 -0.135579856032048 0.17342673211113 -0.0908956488507932 -0.0667419469092495 -0.0374720094319577 -0.472456159594742 0.307560343362607 0.167460747419864 0.576879403625085 -0.0461425361404371 -0.195695816409725 0.225282256522552 -0.167453034114368 -0.116547274719734 0.171089600545727 0.152425201015773 -0.332643755726648 -0.507593865673313 0.41723043490177 -0.0680030723579074 -0.289548232367464 0.564489006785885 -0.218493262134822 0.849219251430127 0.0791968784044355 -0.0267993657268016 -0.0815761760398851 -0.162192559765838
-0.156475971952288 0.0781540395013251 -0.213965551808448 0.0228707221273127 -0.620236408040596 0.053402556383812 -0.235344263542578 3.08532219855151e-05 0.583746045288144 0.0172801183035374 -0.165402066182881 0.317564243481227 -0.41816683018903 -0.0140734400985095 -0.967181660598263 0.324123895585531 -0.651221527550099 -0.704134803255258 0.948209757289187 -0.482049197640589 0.0404241485556051 0.53410321111345 1.00039438273512 -0.918587064640527 -0.415159926596358 0.313037561595586 1.46131066597673 0.0359357760872623 -0.20874930041143 -0.122811764333709 0.17683447047943 -0.641844719168335 -0.304187829089407 0.0660631760255681 0.0404012657492992 -0.22343260586452 0.781254745599702 -0.982113334488336 -0.938122810581389 -0.370048659400787 0.258200844609814 -0.21288928858152 0.0705482060615292 -0.264583090687701 0.25014943922251 -0.518096302437182 0.394330145103387 0.172128325685906 0.0315661885235637 0.253819172867504 0.190731275882073 -0.108661448290419 -0.324923765365506 0.440665770991417 0.144859476764558 0.936689678420162 0.0282286412352806 0.399017520853537 0.240882673999161 0.127841353737715 0.615561373579241 -0.104100056530044 0.609490745043408 -0.0616491084001738 -0.329138058378544 0.384926854372752 -1.13325632702043 -0.14897323969596 -0.0577263783348988 -0.104560797978361 0.65098627173246 0.47959071006871 -0.646809259695988 0.77048080048236 -0.47716101883735
-0.230174549088722 -0.28010663221953 0.295856944932952 -0.801530197537666 0.273745212066483 0.275291729818507 -0.515695921766709 0.311719100576071 -1.40890955375653 -0.0246550667988083 0.746015995219129 -0.486297172087628 0.113235181339589 -0.615248727596455 -0.0163743191280793 0.743206038026798 0.283431323998652 -0.757295161846483 1.16450601290846 -1.19260764171323 -0.628823373939531 -1.27916609888341 -0.0520750965078852 0.391243794464103 -0.871418658869072 -0.0400271704327248 -0.0614148810232671 0.57215320423727 -0.67058269567656 0.420292874294015 -0.183364297802481 0.213419192669121 0.468809308756055 0.393800755236153 -0.113831162744275 0.498940308236925 0.670013453730927 0.101832601824292 0.00753204281721387 0.910575511331622 -0.00102664096156801 0.263981452858983 -0.380996153891798 -0.118924772583901 -0.119847798141634 -0.561908134766797 -0.0995435498631499 -0.105555814387394 -0.137598942300817 0.628216851017333 -0.0985379919366053 -0.0287544315599504 -0.188014392576065 -0.0696462635388193 0.73185693742961 0.568101404860022 0.306963847737554 -0.343627245643308 -0.654607411552827 -0.0810925517852622 0.261038569701932 -0.2998367534589 -0.145107330981175 0.724363461139878 1.29110166780851 0.216126820008533 -0.263794790865971 -0.454031386755542 0.280153683383057 -0.157224676805803 0.580163214885076 0.95998977455344 -0.504839701390739 -0.217282787392257 -0.406280112198744
-0.192834951401118 -0.201853091077301 0.0359170070438878 -0.526103741983156 -0.349024759719491 -0.456906135714043 -0.0348299451892648 -0.310211406461713 0.964447293799797 0.128975723866049 -0.0657484731613159 -0.0833682340168772 0.28297341076235 0.800247731943802 0.471262397014086 -0.480617093920094 0.569155556611194 1.04234268045681 -1.17706147448528 0.863468040673588 -0.777455171312186 -0.93036785323533 -0.577761548663687 0.98695549056878 0.447236735943782 -1.10316517961796 -0.573534143031305 0.24833269866793 0.251184050599758 0.171543914239464 -0.361719575015614 -0.307810768681056 0.210291704400523 0.468220269326314 -0.137238730934136 0.103301472300986 0.0107181522075847 -0.437594075632576 -0.260999488954083 0.567300249529132 0.568821313373018 0.00126652476250539 0.773447080666084 -0.139894164906356 -0.574880886170973 0.531015317813067 -0.450841677822607 -0.405028756937048 -0.340610314753491 -0.387221819868108 -0.0945571549699242 0.208271846801204 0.276218097808622 -0.193780088434608 0.0976995556291489 0.625392495654742 -0.244020446675088 -0.18169796670508 0.485704790225506 0.123575638688034 0.324184316478586 0.168941702075169 -0.0241585870350247 0.364025853359031 0.266659512527326 -0.472807114994828 -0.349137888200104 0.921071006120544 0.215085780876705 -0.0383076175273988 -0.361563509134404 -0.300366914656684 0.160887211365667 -0.966935091932562 0.135873475861277
0.131881068936351 0.355971876869896 -0.131031319780834 -0.36974321250313 -0.724814946621599 0.144864876078406 0.535009781619458 0.683083649894541 -0.545564154640337 -0.323885811555876 0.537809197294277 -0.512488729341315 0.636976080739021 -0.823632160217173 -0.45556376344749 -0.18927526091454 -0.657162829663777 -0.0504779280497684 1.18087210451067 1.38831734207285 0.232551018512156 -0.365009556920003 0.334043720674241 0.535252236522228 -0.370084654826437 -0.0467578008088649 -0.0945586976310235 0.476584063586221 0.00459533030455926 0.252911573920764 0.0964548852322166 0.241206632830009 0.510088862891208 -0.0735085727110394 0.0101483960415856 -0.060284110437498 -0.929119583295832 0.824383693282704 1.0297365681739 0.641820550811113 0.619129548701866 -0.0246838631393281 0.719834465262587 0.19188030129085 -0.0511168468550518 -0.767738206158031 -0.469161806817239 0.455100708007524 -0.0483500841735007 -0.0605959850897349 -0.235753068733886 0.30692913786282 -0.417529454044846 -0.0563330982520695 0.0939395763098475 0.0787929583066085 -0.538391551859254 0.0925897478479812 -0.0946132049898646 -0.533883639016987 -0.286585551726305 -0.332502602236064 0.499239841600368 -0.5775928843835 -0.277981616555277 -0.0209010010137208 -0.389784179954005 -0.729453985657304 -0.338911073552639 0.00217412370924596 0.330200694765761 0.440061562060868 -0.224388284415521 -0.96535669251782 -0.449864402016215
0.0284811234351954 -0.00892275179821097 0.0298330087785274 -0.0601193028100587 -0.534389374747366 0.843645616878444 -0.620194499080733 -0.0696020405873067 -0.609708517368589 -0.0263126561499801 -0.266723532962946 0.305658499337383 -0.48461669993015 -0.00631334054878603 -0.918933134947131 0.0969930168456806 -0.0349389599069469 -0.315881971552467 -0.138494199958763 0.470358140499727 -0.557454472173188 -0.608979609999181 -0.471084990987669 -0.20877089766682 -0.584385221203611 -0.718467153308262 0.738127083467616 -0.273834943520424 -0.274859270490343 -0.146882419686075 -0.0760315949389049 0.0830535311526249 0.270034855012541 0.170583093484798 -0.148812545831453 -0.151718148011938 0.147761479402479 0.272078366748715 0.606487440993301 -0.285246007671767 0.495670895147194 -0.405627309443567 0.361578935745397 0.374102258549317 -0.307562914464439 0.715004907581121 0.156807901198816 0.327601310813482 0.172014940095109 -0.0615712040146604 0.248854375229668 0.105080160548451 -0.033832614788583 -0.173647075538143 -0.0497220241111233 0.584850590635226 -0.20901978032417 -0.00945445565709468 0.242925157294602 0.34098878094318 0.824785813609248 0.0142585594304226 -0.0743755482488323 -0.258722778281735 0.434375827469304 0.269537603918208 0.416303552691288 0.337450687711991 -0.681971391241963 0.157417252333029 -0.571332508532456 0.110193567872183 0.280109203321362 -0.265081113112584 0.670591437422789
0.0440596865462316 0.264313124995328 0.35015553030526 0.0605787587074596 -0.0570697189269737 -0.259116413972234 0.000494937102684305 -0.943638852452033 0.775307015731444 0.337911686270491 -0.0669494348271021 0.11752815006869 -0.852126653381896 -0.882661572960593 0.358424450907561 0.216060999801631 -0.00395178351597806 0.476358577955544 0.71647017851525 1.23597955851937 -0.817341959584876 -0.260300663476111 0.38453296157207 -0.840078984416918 -0.675620512606428 0.461413534335943 -0.935541424341934 0.385987948098871 0.00932127258219054 0.246474306263669 -0.109138387680279 -0.228976929855317 0.50700379780284 0.151280803590294 0.217887767653357 -0.4701671076336 0.267146222104147 0.0723474631236511 0.140995882041422 0.960642320198433 0.279890659665631 -0.0839346477504946 0.49829084791413 -0.213212990302185 -0.479091659203094 -0.821222523580105 0.215592030827451 -0.366108702953237 -0.14210017027832 -0.178440894904143 -0.087047737848833 0.404833867418173 0.513959399589291 -0.240405734609302 0.179207083250116 -0.830078940951047 0.285901381528776 -0.268349754871766 0.353255764894438 0.435169526604881 -0.750855837307923 0.374342399460438 -0.0588653764465307 0.17253841642813 -0.427644168652431 0.27138725457624 -0.223416150812794 -0.838217506690459 0.885933300041974 -0.6510423217524 0.693213534002935 -0.746545385086364 0.358669734022346 -0.405206677183831 0.5336062171293
-0.122791709739419 0.24479049167381 0.184605625767032 -0.763661981313378 0.150418198925615 0.419089341526397 -0.59808328043463 0.417992766594995 -0.406076223823456 0.494746841148727 -0.408868183302962 -0.437947087914127 0.54857362933484 -0.194148784437335 -0.969235456741766 0.121441109947003 -1.50815125626459 -0.742979523955388 1.50970137355918 1.20992684076462 -0.69696580001674 0.0952503240238654 0.268880944510283 -0.247130194341045 -0.300286439169339 0.331859055447483 0.828250887548405 -0.302327122693498 -0.0777786586338347 -0.210768900900565 0.295995527321703 0.158506113958935 1.09203693666815 -0.936846515631921 0.627641952647669 0.0325750888824901 -0.441902985193036 0.193740750576576 1.11208176077177 1.19453596808733 -0.101931846355012 -0.25206131054488 0.480048880415194 -0.076360695973417 0.370365676256688 -0.874342772982749 -0.128472559237502 0.430884271181276 -0.245050944289404 0.579686789715583 0.557446501757508 -0.627992908047755 -0.0298684899838107 -0.177638968242702 -0.299308649142581 -0.757684426663867 -0.945918648446579 0.105554014616111 0.30330928359337 -0.500169552022865 0.634686257447329 -0.210778413977344 -0.0290699057547523 -0.282349404347693 -0.637557663973448 0.473032086405139 -0.265127392945562 -0.499354769852264 -0.750568131012908 0.251498496353827 0.415067366930402 0.331332493792263 0.328039683675859 -0.270864549573768 0.534829290270843
0.31158771727245 0.0782787379401832 0.132121724067838 0.456146889343016 -0.491899345869648 -0.300116746448419 -1.1960205222852 -0.0692744822138938 -0.382679454261291 0.241542932949651 -0.387421080260098 -1.26337799097306 0.16943561073712 -0.403932439115829 -0.171313286405122 -0.960370811844961 0.677474277027391 0.0504583876758443 -0.186859710743257 -0.0140019634675764 -0.323308599194564 0.344652086833594 -1.10754762269081 0.51892445433731 -0.239534131088211 -1.09742828009993 -0.729812397252703 -0.440431029394144 0.341330737486853 -0.0824979160467024 -0.0358365315565422 0.571086711197304 0.810884894443674 -0.0358337033445269 -0.0439414158619538 0.301880522305257 -0.734257060989899 0.820339350100769 1.3191693580691 0.765048576531444 0.417294712447573 0.202935782058809 -0.416426451358864 0.147852239297153 -0.307396049955534 0.709162078667614 0.18548185727142 -0.269761289777603 0.514751556063769 0.656385328469742 -0.0651751174527517 -0.527860832975231 0.519247127617242 0.139018704732517 0.0304423599127413 -1.05539590734833 -0.00312877381951444 0.210508962505337 -0.10572036490465 0.0423349914372413 0.353482278965848 0.241852236500056 -0.550525095625424 -1.16534059256317 0.517514204982389 -0.237610175587231 -0.126792344190207 1.13945859597007 0.394925098067341 0.795298875137325 -0.666347319628498 -0.161069759595748 1.16350379741429 -0.870685380626549 0.935119249421099
0.0390573508216468 -0.172677255927065 0.12847641589025 -0.461566000674588 0.386381069569003 0.219177175222168 0.857299967378317 0.317553444853532 -0.690857376283975 -0.214428864358597 0.327133113169852 0.0750034113162376 -0.401554169921113 -0.0766401747425692 -0.497722377299047 0.628011677091129 -0.533117450671013 -0.580841214438208 0.875296137542101 -0.215239532766267 0.820590803859951 0.550615855520098 0.243092021803507 -0.391633059281487 0.223067766514541 1.32199911274553 2.1402219318181 -0.37058190592077 -0.177178741014752 -0.107106188792166 -0.342334495642115 0.0828997792630637 -0.286807437814417 0.200698666354676 0.179252848862728 -0.4081845273258 0.731532464378395 -0.431836350189713 -1.03331322793257 -0.178166815448838 -0.411742932261463 -0.315861659847993 -0.433570558375482 0.067665229577166 0.244806689615352 -0.933950683638398 -0.306433172319403 0.268777329106448 0.368161984876373 -0.212983133798393 -0.262008903533376 -0.412101086746678 -0.346523591857198 0.0893411606830897 0.0201852062636568 0.337855893360734 -0.258657472295199 -0.0657124777356661 -0.123038792625486 -0.0741737167550104 0.109158442274569 -0.289040439755619 0.263683976377006 0.180424499967628 -0.349355917635469 0.611711405695815 0.0549552447802331 -0.300526322970276 -0.550692217244512 -0.526848590183923 0.666944329473918 0.460309246099045 -0.497649358007015 0.0155567087454631 0.13576009027048
0.152682311198986 0.00679979301542432 0.134938880345299 0.461787886762701 -0.336765746183913 -0.0990372999124042 0.0449703708151707 0.386931542471261 -0.32001578907816 -0.165552732750243 0.499929154001561 -0.159869055040145 -0.315213227965931 -0.263335849188936 -1.06716512598489 -0.706788694566378 0.373098243283872 -0.0469760873544124 -0.780753380742437 0.02998367534589 -1.00381909037551 -0.209673354409896 -0.503327636403266 -0.065713506176399 -0.241331331268867 -1.28623560048102 0.418729387269899 -0.204576145027706 -0.129098365423441 -0.034264302786197 0.143434829239377 0.191367109365157 0.158814131958424 -0.203174894529197 0.200604564027621 0.0235759753598649 -0.526778399103906 0.962539279130176 0.39267692662533 -0.0474026331483622 -0.00608862624865819 0.0684203621852615 0.795906169390073 -0.0455082453184516 -0.0916037302953608 0.518285278421843 -0.145652918789953 0.613558742362198 -0.415548934303559 -0.0619566121792961 0.176110448203503 0.19239734986929 0.222445302760984 -0.150768382995151 -0.00956244193404398 -0.0395561445770793 0.058158323442696 -0.152606977915304 0.215266529335504 0.228852488526642 0.586691499547028 0.267750173924514 0.405460444934662 0.135803799001626 0.321106450475348 -0.160351393743852 0.492913902652605 0.275267561461285 0.0443113974155968 0.343890526470918 -0.929939250559914 -0.16181820733908 0.110199481406397 -0.205624126134481 0.637794976672553
-0.0106140225833836 -0.290976222325027 0.14357032630593 -0.352761856232486 0.427992810060867 -0.195400653919397 0.762232962915082 -0.153751118230601 -0.570460390790998 0.414483212594143 0.161954218625999 0.148940843812876 0.534771697589803 -0.00718263007822792 0.756758058673752 0.0542345649366881 0.331675221666486 1.09333431465264 -1.3499721864587 -0.0141071215325104 -0.258730234477049 0.0484092195156396 -0.0642711180485761 0.831517729536304 0.559436534575574 -0.836773318791354 -1.66747112395339 0.17884404367142 0.389896022883703 0.31390222314173 -0.563757271204462 0.429236194906883 0.356191706076543 0.413381495459077 -0.0742655050904173 -0.0849067813532215 -0.421428015752899 0.168719044656507 0.637843827607363 -0.176446748323146 -0.395421577831125 0.915887921937161 0.605187749017161 0.171210185221654 -0.330682262138919 0.401501462333554 -0.0301860210600783 -0.262543178494092 -0.165330075331581 -0.309382483231035 -0.457476148990225 -0.0762557950186663 0.0930255496085266 -0.417317081033512 -0.0728321158190069 -0.268573440731161 -0.12481902353405 -0.104382106401028 0.354258237498784 -0.00564999627609745 -0.39913064933415 0.364238483480548 -0.949418946480836 -0.29615930650841 -0.0132584008177255 -0.273498643400782 0.138254830378192 0.616916087134588 0.337617809331079 -0.156451546484883 -0.891786156252626 -0.490330459531684 0.0347836653562865 -0.159186941724082 0.55314016329888
-0.164387766510107 -0.160262690730644 0.00512369173106121 -0.713515982510137 -0.208480106049607 -0.532234020081495 -0.0944172870302565 -0.239233826394218 0.994575465068652 0.252684288518804 0.128423194082325 -0.176334648283265 0.443176194820305 0.780322464075373 0.675111948664033 -0.411761444194654 0.273661908367122 0.952386255105293 -0.636733625836251 0.953639153028088 -0.668689336287382 -1.003205111258 -0.293037988884209 1.19880888222214 0.866711485634815 -0.86202128167265 -0.983547495090296 0.408863812429848 0.324310814688727 0.310126560101253 -0.231675301228134 -0.219136808923404 0.16350767835297 0.446840014931085 -0.156248943660511 0.0739286907504088 -0.248882657349822 -0.324148321052936 -0.0295162490328094 0.788350729546187 0.559479729086353 0.130921019512236 0.720973977594586 -0.192313789059746 -0.552196311816306 0.074523900824546 -0.471845522909612 -0.321382843922301 -0.303291800100911 -0.317307647518381 -0.195741324912154 0.228177317185526 0.172077932089997 -0.264553265906448 -0.0239217885562859 0.188617058845515 -0.32169009059124 -0.153509434658381 0.308337844556642 -0.0161843147026852 -0.033273914360462 0.00958763873199882 -0.0226048701978709 0.409804835700406 0.201283077801119 -0.541152401006591 -0.575514148552226 0.419423070544207 0.229201901265628 -0.093787881301752 -0.0496960559826188 -0.167504970371377 0.0477718433714555 -0.825430388838562 0.0596400494285503
-0.114176718830513 -0.0169260775812536 0.144790314125274 0.594778129029432 0.613140166983928 0.113107911798898 -0.454219077189288 0.326944651405557 0.0582452266846218 0.295204913508325 -0.11933846286869 0.182119884515732 -0.669675610950186 0.33542260258681 0.259405405818165 0.902444144677339 -0.358403882092904 0.554281732512344 0.891476595592038 -0.45232571780011 -0.530976751285585 -0.402407518619195 0.394801942289583 0.246777439169677 -0.120244262044148 -0.328107046543861 0.110617542564301 -0.172628662102438 -0.50287178004843 -0.139864597235287 0.0696195240797652 -0.312996681076455 -0.0322501016109093 -0.0482595813890099 -0.507958962133475 -0.202814426052333 0.0259475596898182 -0.303347335900485 -0.158071340639122 0.157459932623443 0.0171438499064347 0.240078690456255 0.0934924617012407 0.15644254762847 -0.00124595594784838 -0.530135486766113 0.315785298123579 0.472607340382471 0.0706502788042646 0.0621936677682181 0.0432749862670667 0.0530297466181537 -0.346072620595843 -0.60288352755521 -0.380047674425926 0.238681039500311 0.271584458086764 0.299406608122385 -0.278416646985273 0.740910815421259 0.0209614219067757 0.239054363486336 -0.388280085382211 -0.00845609681568005 0.151193900348368 -0.522441207423292 -0.188638141880539 -0.183566386406486 -0.439997027404881 -0.219813265815436 0.739524220203193 -0.0422604294841097 -0.165769219524508 0.120003092692295 -0.376716554892223
0.186785920120675 0.324842775657794 -0.124909526318541 -0.577189992726406 0.0331134776061373 -0.333134321956218 0.24707542987202 0.274729172737637 -0.539453674026105 -0.0573790224773785 0.562553738436844 -0.259187890603167 -0.259440372803082 -0.597269012484396 0.458712848971478 0.280737580609133 0.187795334699968 1.16742832725085 -1.14156021460765 -0.420953390354688 -0.146403166304567 0.227759770247989 -0.53542450034498 -0.284171029995755 0.686313725126241 -0.706868912943541 0.191285348326896 -0.323549511436234 -0.0214447890512155 0.0408509514597381 0.4074386506843 0.123854089016453 -0.194303564767629 -0.124162878346492 -0.117281067182623 0.196223149395494 0.760046497917042 -0.104627646625996 -1.32485252155883 -0.414868363648595 -0.3130067083736 0.623260538015543 -0.572943303830283 -0.101073098343082 0.403516434839391 1.04240078735822 0.144587968411086 0.366853808264187 0.153726949873379 0.188487989533542 -0.247338967809813 -0.282776721472193 -0.659395831604978 -0.290565360252253 0.0349255901774199 0.479889472101603 0.22429932429213 -0.141616803133881 0.633251582625003 -0.160632672284287 -0.332252948248165 0.148716643733114 0.309825741186894 0.0906120563187097 0.0852279119720541 -0.293614687025154 -0.313680079943434 0.44523256206564 0.721080678320619 0.295158376565163 -0.178038517467415 -0.555391677173273 0.128438106472951 0.123101270400007 0.050621395532001
0.0966708577861152 -0.0288536760906705 0.0517251695485329 0.331878595821407 0.331194939844245 -0.0425489071096742 -0.605372611238891 -0.00264283557324258 -0.329781605167125 -0.22702520645455 -0.236136162906873 0.417854184206243 0.187033003006742 0.0676379758977455 0.0299841895662564 -0.289500409873386 -0.696976084424069 -0.966264805684927 0.816380367499661 0.156165897071334 -0.384860519945483 -0.433184378880296 0.242484213330392 -0.289016785618763 -0.334314457697164 0.927842002795449 -0.346284479386811 -0.518162122644084 -0.193717353549904 0.336026297296993 -0.175978807789699 -0.0417261545233938 -0.0555882500513026 -0.156161011977853 -0.170306185817478 -0.184598683792085 -0.155885646971632 -0.443704813356991 1.25391350801882 0.539909787491124 -0.376921471708244 0.0318711212008539 0.485139662042804 -0.0746717391798933 0.24356767564245 -0.828556077335878 0.272939171642111 -0.13768404577146 -0.101023218967539 -0.0246568665700908 0.331650796199081 -0.161175431881048 0.47204221219977 -0.0131365305908827 -0.395191207106967 -0.832287774535026 0.272639638278668 0.169028862427278 -0.625700513654231 -0.167315994386716 0.543334238021333 0.338777376257368 -0.509986533038289 0.181437771199669 0.455677920368836 0.214226261534226 0.392616762842459 -0.293891337582291 -0.442504880131937 0.118863580360296 0.156609926357742 0.139183512359956 0.519237871650646 0.620821590817588 0.546929152603012
-0.0460484338133813 0.0761637495730762 -0.353455539506794 0.19199317266128 -0.203778332129197 -0.176133845230176 0.590179713402674 0.186687189810321 0.216009320654805 -0.698189644488832 -0.39206706127075 -0.262075237960645 0.115339628189184 0.671766173849887 0.941323061031836 0.642198759890619 0.214129073884971 -0.281217091100825 1.20337747306764 1.14087295908792 -0.633840107834376 -0.402444028265212 1.04863442375021 0.19246214163546 -0.547481939496919 0.783628901031487 -1.40425508810983 0.529318647714047 -0.217058844422679 0.191402847680624 -0.849950215681001 -0.490697098652945 0.863655731107333 0.644600426112008 -0.536477623655419 0.165783360584585 0.145839580782965 -0.256136249838616 0.544113281876468 1.17578877907838 0.00901891100673249 0.395138756629591 0.298886217111563 0.212033883001972 -0.180864158380922 -1.04969191793376 -0.074499732467324 0.108266527049005 -0.0940671029607209 -0.535724290818606 -0.663792415737914 -0.199145720848072 -0.22947572361075 0.0804772871168344 -0.532320666213237 -0.699314501540388 -0.00827329147541588 0.294145619553489 -0.256417528379051 0.803228153187602 -0.125886802124932 0.0896995722784881 0.0284456422299121 -0.320887649709434 -0.0309493811940366 -0.0747797254568426 -0.498121412303393 -1.16092061140356 -0.480646147370797 -0.707811993095565 0.815398977930338 0.556319073604121 0.240379509370614 -0.164516578711896 -0.567292536223636
-0.139563006990378 0.106087004025911 0.0688571923865398 -0.213607911543599 0.110420853274143 -0.0142711578294 -0.56543697203139 0.161685024264176 -0.640556082930073 0.387804945763634 -0.158688405078833 -0.596173980214093 0.117785260251902 0.167087680544023 -0.793795809006264 -0.627532680819804 0.504755369250645 -0.416769950563636 0.324537071649954 0.537752633053971 -1.35471766911026 0.461408392132279 -0.179906937168821 0.683357472239662 0.494767409963384 -1.49282671801457 0.041859337598298 0.245823817500141 -0.109184667513257 0.450060577086007 -0.0526811052097174 0.0740107088988536 0.875200492553946 0.0211267437545815 0.174567015773678 0.338272411857539 -1.02811214603636 0.380530527349999 0.637359946242557 0.852784341230553 0.158753196845002 -0.0425550777540713 -0.317457285645011 -0.0242190079280797 0.0090477073472523 -0.32901850214335 0.290078393565248 0.343007867211949 0.523628028029002 0.0501876506529214 0.10506807636984 0.220116655831627 -0.356212789111566 -0.18973548814249 -0.173565828720248 -0.49316484219142 0.242700442994474 -0.302682448966697 -0.448468293721371 0.311597230349229 0.0363564083469982 -0.220771772578453 0.190358723226598 -0.313413713793626 0.388082881871687 -0.209430642396944 -0.186205622437164 0.720641019907325 -0.480769560258739 0.0510695385813407 -0.155118173074742 0.207604131655401 0.512068611301945 -0.186078095786291 0.234423551976493
0.201449428089657 0.0471393523207525 -0.00352343795074582 1.53636164267686 0.436986524269645 0.520219775440335 0.406428721884641 -0.251482298412285 0.0135412220192594 -0.58651717884281 0.0518151581126573 0.374043123207178 -0.377443662490349 -0.431708823538839 0.163505107251138 0.0297175663062649 -0.0630719561540725 0.436434251596104 -0.153633875987056 -1.1680309935203 -0.369975125888388 0.584085687840168 -0.653298463610091 -0.438570837218601 -1.13656687773947 0.688898710908261 -1.01817098080244 -1.01362295877159 0.379583590545227 0.108653992095106 -0.101866797478659 -0.0641837005862839 -0.123826321116666 -0.451863690800877 -0.00675274185189641 -0.0667895122931438 0.770340161212143 0.072462134265364 0.00186482015884118 0.198726631249436 -0.571954972286013 0.0825007442587178 0.0410566396063082 0.526839334217327 0.427116321446295 -0.145248227361576 0.586906186550011 0.484853498408889 -0.202318717619099 -0.00320359288282932 -0.0140778109716241 0.0565845520112515 -0.0273819774019614 0.123218512643552 -0.464598358175398 0.141885483275338 -0.574873687085843 0.516493991775401 -0.164924355462472 -0.14686442197325 0.336001871829588 0.951416949714581 -0.0921973977083987 -0.383207558577609 0.186233133226768 -0.090484272557653 0.577578229103057 -1.07282900621088 0.829622827486027 -0.598316479370804 0.494704675078681 -1.13249348110684 0.360379259630527 -0.0860483505666856 0.506272576441783