0.826812626524628 0.154151506640185 0.498890330580962 0.154151506640185 -5.83813796966373 1.35933601309981 0.498890330580962 1.35933601309981 -2.90645658883403
-4.71702544693629 -1.4491090760897 -1.64340303042575 -1.4491090760897 -1.79721907760845 -0.947183027388237 -1.64340303042575 -0.947183027388237 -6.39820785737183
-2.80720501598272 3.31049851754272 -2.50913799078699 3.31049851754272 -0.437327848442913 -0.867326179872815 -2.50913799078699 -0.867326179872815 2.74612570754097
-5.92259451037422 -3.21821345540882 -0.519241162553356 -3.21821345540882 -6.15787566215621 -0.908672034468374 -0.519241162553356 -0.908672034468374 -4.09713729827258
-6.04009229086611 -0.0675758926914932 -0.365704831036316 -0.0675758926914932 2.88390059692225 -3.10054095878616 -0.365704831036316 -3.10054095878616 -3.99492777382063
-6.70854209795744 -0.196906013796703 0.506002663361295 -0.196906013796703 7.38168591256478 -0.183168384927166 0.506002663361295 -0.183168384927166 -1.49511194196799
-3.03021942385842 1.2772727222659 -0.273072099243055 1.2772727222659 -2.27486676224255 -1.33673196968173 -0.273072099243055 -1.33673196968173 -2.05684952171785
-1.67948870553136 2.64140107286479 -0.498959891076698 2.64140107286479 -2.98861543005733 1.22939602028176 -0.498959891076698 1.22939602028176 -3.24066733379711
0.650568243268676 -2.70219685357676 -2.3088794516006 -2.70219685357676 1.27775004641985 2.00060365005171 -2.3088794516006 2.00060365005171 -0.189217560950693
6.62382585535479 -2.98882448784513 2.51701279793135 -2.98882448784513 -3.10164902238973 1.97955774246434 2.51701279793135 1.97955774246434 0.826696134935887
-3.51524505724457 1.26230501665301 -0.0109765653622 1.26230501665301 -0.0356738374271502 3.86100686615387 -0.0109765653622 3.86100686615387 -3.46310637177412
-0.507810368867917 -1.95189610533605 2.15819406768865 -1.95189610533605 -6.5221894251473 -1.2668810764986 2.15819406768865 -1.2668810764986 -0.269774258461081
1.97912258376152 -0.123530891682326 -0.599256240501497 -0.123530891682326 -2.66774159696938 1.52442376969679 -0.599256240501497 1.52442376969679 1.85033505839059
0.861415677948707 -2.0011348826193 2.5683439751763 -2.0011348826193 -3.3581958891108 -0.156380076919919 2.5683439751763 -0.156380076919919 -4.02612435324334
-7.37372203995901 -0.360758604011706 1.04321277847971 -0.360758604011706 6.59246136885085 -0.91453455029719 1.04321277847971 -0.91453455029719 -1.61307350328801
0.179698379855425 0.624797443805017 0.370455121548107 0.624797443805017 -7.03588271895473 0.046998037808342 0.370455121548107 0.046998037808342 0.86808140422467
0.348845797613077 1.21654452205573 -0.0309103871302726 1.21654452205573 4.14861552984159 -0.147928281266305 -0.0309103871302726 -0.147928281266305 0.991340272963743
-4.63083271780319 -0.0022274327646961 3.39906239892625 -0.0022274327646961 4.3969522775101 -1.1449004410538 3.39906239892625 -1.1449004410538 0.160375159058119
4.02087237347359 -0.0200842775897782 2.34584362248609 -0.0200842775897782 -4.14137803901226 1.51636295802825 2.34584362248609 1.51636295802825 2.16307669641911
-2.22763474792055 -1.06992309321307 2.02188030691803 -1.06992309321307 -0.658414211208043 1.15771165470748 2.02188030691803 1.15771165470748 -1.39364341372369
-7.3842003502664 0.443489544333264 1.07988709673974 0.443489544333264 -5.69973557874051 0.0696059822944584 1.07988709673974 0.0696059822944584 3.66922963809359
8.23367244768125 -0.806019150469931 2.27927269702424 -0.806019150469931 0.824701713560293 -2.74099889911463 2.27927269702424 -2.74099889911463 -2.60221414472908
1.94087658428526 -0.224348637430823 0.720002603847757 -0.224348637430823 -2.07652924877831 0.0182609356048344 0.720002603847757 0.0182609356048344 -1.00435145826589
-6.06889164145017 0.129609150829022 0.256944456906658 0.129609150829022 7.49004461106664 -0.147799908840113 0.256944456906658 -0.147799908840113 -0.900442521548995
7.28788307132437 -2.01157838490412 1.77852966957986 -2.01157838490412 -2.49811868531792 2.95195039410726 1.77852966957986 2.95195039410726 1.02623206221734
0.60044683314605 -0.406415978766977 -0.469344904511541 -0.406415978766977 -2.32050413683081 1.23235812916438 -0.469344904511541 1.23235812916438 -0.90198126900542
4.46574960133134 0.353505223361202 -1.94128292150897 0.353505223361202 2.06710681456974 1.19832279105492 -1.94128292150897 1.19832279105492 1.85540312148337
7.00596859127505 3.02040998849657 0.0850819715069456 3.02040998849657 4.9826129563755 -0.215363740376956 0.0850819715069456 -0.215363740376956 0.467950843288201
-1.31467189812585 -2.27055350226217 -0.251688713694155 -2.27055350226217 0.808616931230158 -0.305239503841848 -0.251688713694155 -0.305239503841848 -1.55832799329785
0.340104956548371 1.17269955796873 -0.0331271061573089 1.17269955796873 4.42136443512882 0.172260952018006 -0.0331271061573089 0.172260952018006 1.12190466186086
-1.76588307011202 -3.23657374641426 0.166045721517996 -3.23657374641426 -0.245115112717041 -1.10433583041334 0.166045721517996 -1.10433583041334 2.13223791600093
-2.37947711089207 -0.911566972229782 -1.42089522318912 -0.911566972229782 1.32686539224278 0.564178985678031 -1.42089522318912 0.564178985678031 0.17761190289864
-1.308995844199 -2.83132903926343 -0.271280828878264 -2.83132903926343 0.890222525833526 -0.647913435961679 -0.271280828878264 -0.647913435961679 2.32564050387871
-2.06021656729196 -3.28684999083966 0.564515166966041 -3.28684999083966 -1.31368482779948 -1.62232162469213 0.564515166966041 -1.62232162469213 1.52208061373554
-8.77652280407062 -0.360896328590342 2.05036705363963 -0.360896328590342 -5.18738898677106 -0.406504106379231 2.05036705363963 -0.406504106379231 6.17687947010392
-3.6801624288812 1.88903859912072 -0.754660173605749 1.88903859912072 1.42812273359569 2.13263143996814 -0.754660173605749 2.13263143996814 -0.0501514672332934
-0.165491284330193 -0.961425556584929 -1.70482291317929 -0.961425556584929 -4.25549016849067 0.622562450575487 -1.70482291317929 0.622562450575487 -0.630442987924543
2.18314743361658 0.0709325880958455 -0.223306295857291 0.0709325880958455 -3.37586576678376 0.302120282630453 -0.223306295857291 0.302120282630453 -0.735597209882842
7.25371231793223 -5.7454734557315 0.131241779445644 -5.7454734557315 -1.23117288337104 0.0145824199384048 0.131241779445644 0.0145824199384048 -1.16034398652736
-3.49345105460673 2.04710173792345 -0.143877680717185 2.04710173792345 -3.49849939428101 -1.66595209251477 -0.143877680717185 -1.66595209251477 1.37567256124326
-1.38427390745009 2.60872933535444 -2.88410886934096 2.60872933535444 1.28100658220515 0.894983485456187 -2.88410886934096 0.894983485456187 1.81455442930403
-7.57431748014182 -1.87056947061401 -1.85974128265098 -1.87056947061401 -5.43575035744274 -1.42390671713888 -1.85974128265098 -1.42390671713888 -6.56458895258897
5.87024592488674 -1.17833403601741 1.7192964798254 -1.17833403601741 -0.251734998603719 -2.11028913723118 1.7192964798254 -2.11028913723118 -3.51893391665199
-6.54784898818566 0.890890984969739 -0.769042666397645 0.890890984969739 -4.76207199140775 0.129838372248953 -0.769042666397645 0.129838372248953 -0.159801073537173
-3.36701040444991 -1.27646051717995 0.87731961242709 -1.27646051717995 3.70884890208479 -0.592783521910196 0.87731961242709 -0.592783521910196 0.480154652747259
-5.02901727780598 1.26573916400516 -0.754652056772791 1.26573916400516 -3.93696787289932 0.385311764436901 -0.754652056772791 0.385311764436901 0.103814568656574
-1.29089016344982 -1.22335868608625 1.82594725333044 -1.22335868608625 0.615575389814102 0.911674944408226 1.82594725333044 0.911674944408226 0.246749628828437
-4.61298720631038 2.99964927237565 -0.173892711442067 2.99964927237565 -1.53122193130931 -1.19792756771202 -0.173892711442067 -1.19792756771202 1.68579323036893
2.6714765362528 1.39405532349159 -0.108303102821059 1.39405532349159 -8.4670810384977 -0.747013709201667 -0.108303102821059 -0.747013709201667 2.3965532752455
-1.17464839804009 -0.958840901655978 2.33017461285627 -0.958840901655978 0.295027969740301 -0.207612275002434 2.33017461285627 -0.207612275002434 -0.756692107574661
0.0455675756044586 -0.525112061727571 -0.904841858431392 -0.525112061727571 -2.80783061105569 2.34998497045851 -0.904841858431392 2.34998497045851 -4.96903562543858
-6.41525262874439 -0.0417219898431812 -0.238411370532464 -0.0417219898431812 2.99206270018243 -3.1351095225019 -0.238411370532464 -3.1351095225019 -3.43312373566748
-0.548677044707505 -0.842704934694301 -1.24699328342615 -0.842704934694301 -3.98512800892819 0.367534862483496 -1.24699328342615 0.367534862483496 -0.511923558459155
5.11991492729688 -0.0558899095377438 -2.15375758540091 -0.0558899095377438 2.80048368148052 1.23756228262147 -2.15375758540091 1.23756228262147 0.0538938413399672
0.938210781810954 -0.365303346960435 -0.477090163516634 -0.365303346960435 1.04400901890878 -0.0319390904446282 -0.477090163516634 -0.0319390904446282 -2.98830114972553
1.80631436261687 -1.13682284740277 -0.682618799826142 -1.13682284740277 -4.85972076337765 -0.010501827689633 -0.682618799826142 -0.010501827689633 2.29990026402962
7.07707996184487 -2.22399130341872 1.97642649411452 -2.22399130341872 -2.64546527628373 2.72116691218666 1.97642649411452 2.72116691218666 1.02913305024804
-1.32211008617908 -1.18829327583707 0.677113060330583 -1.18829327583707 0.446948146542322 1.64059409479307 0.677113060330583 1.64059409479307 -2.87706142235327
-6.5968861215329 -1.05827108696255 1.84554565259076 -1.05827108696255 -0.559795733851218 -0.498475353111332 1.84554565259076 -0.498475353111332 3.71482822675826
-3.12566843104942 2.08196223306169 -1.71407623638194 2.08196223306169 -5.12042805749073 3.64343390785796 -1.71407623638194 3.64343390785796 -1.28623844765068
-3.36786132486799 1.95114121665256 -0.110917588543556 1.95114121665256 -3.13594273064055 -1.57553392817552 -0.110917588543556 -1.57553392817552 1.44949121392148
0.0546003442219246 0.0960966058305874 -2.05297294274437 0.0960966058305874 -2.21895798917902 3.52281420919858 -2.05297294274437 3.52281420919858 -4.54930068057076
7.75712476205919 -0.862793146744187 2.13694897026424 -0.862793146744187 0.633071132440781 -2.59906418508388 2.13694897026424 -2.59906418508388 -2.89823704092088
-7.73202113872713 0.547435088374996 -0.731245410019155 0.547435088374996 -5.40442304399403 -0.099896913937043 -0.731245410019155 -0.099896913937043 -0.177816506807937
4.0303570328443 0.509539436477589 -1.52462192169569 0.509539436477589 1.36276821834398 1.12698134185631 -1.52462192169569 1.12698134185631 2.58166647815312
3.88687193830759 -1.13292169517095 0.285157161369559 -1.13292169517095 3.69676716406122 -1.92416859338558 0.285157161369559 -1.92416859338558 7.04929054773035
3.68104485200587 0.607842278658221 -0.927759267425705 0.607842278658221 0.47187755843204 1.07572087473067 -0.927759267425705 1.07572087473067 3.1051942722244
-1.00720008914762 0.65736028227282 0.733535078931043 0.65736028227282 -8.45258114029771 0.129779283195492 0.733535078931043 0.129779283195492 -4.57330908825854
6.56632374771949 -1.04889931096416 1.85430413902592 -1.04889931096416 0.0936517241932282 -2.27707477966963 1.85430413902592 -2.27707477966963 -3.35540748966595
-1.60284222155091 1.37575453404095 0.623939956944852 1.37575453404095 0.696696206341248 -3.08001455778077 0.623939956944852 -3.08001455778077 -0.79590927369997
3.01044694023287 -4.12011413754366 -2.89652673366484 -4.12011413754366 2.28473303172544 2.13705868987799 -2.89652673366484 2.13705868987799 0.41981705753773
-0.365389866260617 -1.96198471666027 1.95933696400621 -1.96198471666027 -2.95224420927963 -1.85077910518965 1.95933696400621 -1.85077910518965 -3.39971440781618
-1.57468173467683 0.836461955318528 -0.0842075793944827 0.836461955318528 -3.03147285820138 -0.289112689254391 -0.0842075793944827 -0.289112689254391 -2.96972063331209
-7.2578922250118 -1.58700267310754 0.0714151202898392 -1.58700267310754 0.126960213848603 0.420555708373497 0.0714151202898392 0.420555708373497 -6.01209512662238
1.56514071135796 -0.530467153849509 -0.325633302363065 -0.530467153849509 -4.62714418357839 -0.517336778754224 -0.325633302363065 -0.517336778754224 0.982152057127309
-1.35676584171762 0.480018932691693 -2.29488503437536 0.480018932691693 -2.16337299802147 3.1825912797641 -2.29488503437536 3.1825912797641 -3.55959245064525
-2.01578451281318 1.78405305219893 -0.725905780237434 1.78405305219893 -1.5690732634363 0.08096641394956 -0.725905780237434 0.08096641394956 -1.30942234973599
6.92703607893016 -0.93019622265855 2.8934954084433 -0.93019622265855 -5.50853728385649 2.6190774338629 2.8934954084433 2.6190774338629 -0.859573949788595
0.644751934080899 -1.23792371343533 0.268216804577654 -1.23792371343533 1.43392830139592 0.477116431219866 0.268216804577654 0.477116431219866 4.26567879587923
-3.10241342494317 2.6355550703215 -1.49634088019767 2.6355550703215 1.28086779344921 -0.861892346993858 -1.49634088019767 -0.861892346993858 -1.153180038339
-5.614858360627 -0.10939485473985 3.87123832895715 -0.10939485473985 4.54770038989949 -2.00706070226786 3.87123832895715 -2.00706070226786 -0.138417979466749
-5.38749751128562 1.27666936206987 -0.339815874562036 1.27666936206987 1.43005847211524 -0.2855397279306 -0.339815874562036 -0.2855397279306 0.818861864396018
-2.11363702112261 -3.22718861027834 0.696629430182733 -3.22718861027834 -1.63602366179278 -1.79434853228886 0.696629430182733 -1.79434853228886 1.21382400713658
-2.93009679772753 2.09409334335732 -1.79182499340587 2.09409334335732 -5.44899971398959 3.58637312509959 -1.79182499340587 3.58637312509959 -0.974883507050611
-2.53140696615263 0.345072125458891 -3.83530545548203 0.345072125458891 8.32387722480989 -1.74116545746815 -3.83530545548203 -1.74116545746815 -0.247609006054472
-3.06419521759632 2.88265761030383 -1.72360980989793 2.88265761030383 1.67373684086153 -0.863799823710422 -1.72360980989793 -0.863799823710422 -1.10518499384659
2.65381845222342 0.144514866210186 -0.404641625388521 0.144514866210186 -2.66695616733343 0.990583719295275 -0.404641625388521 0.990583719295275 -1.26384819358363
-0.349109330855616 -1.06025796778372 0.9800921214391 -1.06025796778372 4.07811418340227 0.799072468402855 0.9800921214391 0.799072468402855 0.799072468402855
-0.954960287297184 3.29551013549529 -3.29351648145083 3.29551013549529 4.45581678937204 -0.620026407827608 -3.29351648145083 -0.620026407827608 -2.67947103575661
1.35607794939308 0.592461240026103 -2.42777450357363 0.592461240026103 3.23352179000913 -0.803114125368718 -2.42777450357363 -0.803114125368718 2.4172418593065
-1.66873086230968 -1.05047975594577 2.34169445596244 -1.05047975594577 0.218849949155368 0.333746172461937 2.34169445596244 0.333746172461937 -1.08057162395463
4.60491672835425 -4.72891950652536 -2.58093917956139 -4.72891950652536 1.99875664475805 1.86214341456954 -2.58093917956139 1.86214341456954 0.296345622408922
-6.66612467423667 0.0225054850581927 2.84019221434391 0.0225054850581927 5.63312291006562 -2.77042521066352 2.84019221434391 -2.77042521066352 -0.555885480937359
-4.70958745904826 -0.303759146265031 -0.982594803570361 -0.303759146265031 3.93302059816201 -0.604876908649496 -0.982594803570361 -0.604876908649496 -3.74284095876129
-0.615038991461484 0.727890182555334 0.654536908344331 0.727890182555334 -8.83060570309378 -0.36958765083236 0.654536908344331 -0.36958765083236 -3.87643841407376
2.77743027380967 0.131382699801782 -0.491371297258665 0.131382699801782 -2.4621117942854 1.22185910815657 -0.491371297258665 1.22185910815657 -1.38214600191475
3.31801891962797 -0.225039138082023 -0.180554657298367 -0.225039138082023 0.167470986479645 2.50944806303093 -0.180554657298367 2.50944806303093 -1.54910662493672
1.98315089063869 -0.256735518206858 -0.296031770993621 -0.256735518206858 -0.961448318182824 2.00934839249653 -0.296031770993621 2.00934839249653 -1.19984558508919
-0.570982902336456 -1.09456345051668 -0.670096915572219 -1.09456345051668 -1.95426978271383 1.67201031023808 -0.670096915572219 1.67201031023808 -3.27076243678015
3.42497068285769 0.542787751493821 0.590857515463753 0.542787751493821 -1.64038069547395 1.1416568942859 0.590857515463753 1.1416568942859 3.36288057106319
-3.17810692978251 1.10423421415088 0.351596963709733 1.10423421415088 0.244469763829424 3.5983751754668 0.351596963709733 3.5983751754668 -3.08746083757609
1.27980592013392 -0.643844867418502 -1.55573943474185 -0.643844867418502 -3.22973609002996 1.73969511114714 -1.55573943474185 1.73969511114714 -1.25089859955595
-5.26932916084154 0.379914081442575 -0.162254972282766 0.379914081442575 6.93145326715281 -2.30718655709397 -0.162254972282766 -2.30718655709397 -0.997274463786758
2.47038503034933 -0.270691125665938 -1.18263113155021 -0.270691125665938 -2.21283425058951 2.14713252105894 -1.18263113155021 2.14713252105894 -1.55581695528384
-3.94368800890694 2.15633001702081 -0.455225225815503 2.15633001702081 0.567833571148812 1.45432480036848 -0.455225225815503 1.45432480036848 0.162922712397128
-0.589617543868732 -1.19645019850735 -0.746705429643977 -1.19645019850735 -1.6741695223718 1.64619496737073 -0.746705429643977 1.64619496737073 -2.89213860934152
-2.72930323850098 2.09527766066376 -1.85581735658791 2.09527766066376 -5.71711475981113 3.53748176475701 -1.85581735658791 3.53748176475701 -0.68572723439905
-0.740099553698344 1.4074875722965 1.6126379749006 1.4074875722965 -2.03072930172668 -0.168794635054008 1.6126379749006 -0.168794635054008 -3.53689681451629
-0.450106113544408 -1.56036786028728 -1.14026882097917 -1.56036786028728 -0.700879519662006 1.67825279478701 -1.14026882097917 1.67825279478701 -1.78327755461403
10.1086155088277 -1.14611953792155 2.71839437747212 -1.14611953792155 2.15989270887756 -2.37694075070104 2.71839437747212 -2.37694075070104 4.03921111978817
-3.74152906750492 1.96998079975978 -0.662238691181381 1.96998079975978 1.17385991830346 1.96041778616871 -0.662238691181381 1.96041778616871 -0.00717226019330016
-2.19755776809548 1.11175265833713 -0.576833964559121 1.11175265833713 0.189616701152652 -0.652680645020182 -0.576833964559121 -0.652680645020182 -2.10773933070738
1.81427281877861 0.141986568426152 -0.494323608594751 0.141986568426152 -2.4795061856641 1.33309611466776 -0.494323608594751 1.33309611466776 1.72750324918485
-2.12845008304842 2.03342999005519 -1.97641793425925 2.03342999005519 -6.1138642691646 3.45873138495369 -1.97641793425925 3.45873138495369 -0.01628915879884
-0.908523848558707 -0.824010002181153 1.44994067691491 -0.824010002181153 -6.17215184326075 -1.70084115834828 1.44994067691491 -1.70084115834828 0.504442020566026
1.06568317258771 -0.993433465971594 1.4398334389926 -0.993433465971594 4.44851765022085 0.0567676266269482 1.4398334389926 0.0567676266269482 1.98428658527833
-3.13300058160479 0.0369208822748039 -2.35502484795714 0.0369208822748039 6.58510307429896 -1.55858867317208 -2.35502484795714 -1.55858867317208 -1.69308617288744
10.0871552506679 0.275128283784279 1.95235262916152 0.275128283784279 3.93115990099461 -1.66664248830861 1.95235262916152 -1.66664248830861 5.00521839346016
-2.93770688880096 -1.71366235180056 -1.05725165503551 -1.71366235180056 -0.064564986567054 -0.535351346951823 -1.05725165503551 -0.535351346951823 -4.79664046037739
0.303072701970612 -0.0654113745260313 -1.73994256239243 -0.0654113745260313 -2.4311227532175 3.28365100120677 -1.73994256239243 3.28365100120677 -4.90367271030148
-3.15048401659963 2.72667498357245 -0.860383398374452 2.72667498357245 -4.7206198919714 -0.38806610253091 -0.860383398374452 -0.38806610253091 -0.80676900263005
-8.47551685994493 -0.400399895349665 2.1385520422144 -0.400399895349665 4.42060000068127 -2.89306282767099 2.1385520422144 -2.89306282767099 -0.948924607476085
-1.57325469232062 -2.16289018177639 -0.380582906830543 -2.16289018177639 0.739724523135421 -0.313578873937841 -0.380582906830543 -0.313578873937841 -2.2647363117733
-3.20358465238192 -2.09465150348048 1.68830484135348 -2.09465150348048 0.141565933902311 -1.24787749143518 1.68830484135348 -1.24787749143518 -2.16281287906308
2.57278221270123 2.89404534019774 -1.0681998989259 2.89404534019774 1.44300688100516 1.74285246666857 -1.0681998989259 1.74285246666857 -1.60363844475342
-7.59249283985058 -0.8708803048838 2.0525065367375 -0.8708803048838 -2.19501422299121 -0.490859808207233 2.0525065367375 -0.490859808207233 4.94026645679537
-6.52453333189968 -0.132640355152535 0.37047823335708 -0.132640355152535 7.54677882764422 -0.0320166374506118 0.37047823335708 -0.0320166374506118 -1.40873204782692
-3.81907307519238 1.52598543965722 -0.586285249706722 1.52598543965722 -1.10133958122478 4.03824513115751 -0.586285249706722 4.03824513115751 -3.46839778564818
-5.32006288229568 -3.22772107797817 -0.318987510218948 -3.22772107797817 -5.92019192694489 -0.878567295094561 -0.318987510218948 -0.878567295094561 -3.9657176058576
-8.54357884261545 -0.354534191190714 2.2500176447463 -0.354534191190714 4.06208128860995 -3.19080772071643 2.2500176447463 -3.19080772071643 -0.734557768676186
-1.70864833880367 0.215074616073189 -1.98545733541639 0.215074616073189 3.30975936957075 -2.12884041279851 -1.98545733541639 -2.12884041279851 -6.50998999947459
-1.81449678721963 3.45352575325758 -2.89920695452455 3.45352575325758 3.82639487326864 -0.703865237240141 -2.89920695452455 -0.703865237240141 -1.94609765310589
-0.248740730470157 -2.26777453205239 2.44242227897825 -2.26777453205239 -6.38258129674488 -0.960562608092203 2.44242227897825 -0.960562608092203 -0.672129207866169
4.90572764136042 -0.383197602579822 -1.82817189564123 -0.383197602579822 2.76022023108278 1.05179758624774 -1.82817189564123 1.05179758624774 -1.27932116277951
-3.77304968236371 -2.2790585416087 1.29969352315243 -2.2790585416087 -0.0288820782922761 -1.35745767973698 1.29969352315243 -1.35745767973698 -2.59676140282374
3.54035882633696 -1.15614040047288 0.0179844062295782 -1.15614040047288 3.20636271064479 -1.74191820337914 0.0179844062295782 -1.74191820337914 7.20147009450108
-0.754812109164438 0.763666210151704 0.72160923046219 0.763666210151704 5.11102979489938 1.00494046205471 0.72160923046219 1.00494046205471 1.28827169364722
2.86687714623279 0.105110069522742 -0.585988637589287 0.105110069522742 -2.28614401211964 1.4373802007235 -0.585988637589287 1.4373802007235 -1.47154097331839
-7.41797668353544 0.613481657539863 1.43535975599976 0.613481657539863 1.61799933343529 -3.3718075834252 1.43535975599976 -3.3718075834252 0.990468477631152
-6.51740460535872 0.281298314273842 -0.00990487022090992 0.281298314273842 5.32683920480535 -2.67431495964568 -0.00990487022090992 -2.67431495964568 -0.830028124512251
0.180123096950386 -1.87804817261505 2.11379752009423 -1.87804817261505 -2.88991615842457 -1.40390060858389 2.11379752009423 -1.40390060858389 -3.89648640608849
0.155515726459413 -0.242499098885865 -0.745948315051084 -0.242499098885865 1.04643632888792 -0.0263585977049853 -0.745948315051084 -0.0263585977049853 1.02534945072393
10.032921756887 -0.963144267284018 1.11927502219111 -0.963144267284018 -3.11247673743362 4.26622218603279 1.11927502219111 4.26622218603279 -0.963144267284018
-7.1365734623507 -1.43630815050275 0.00793540414642406 -1.43630815050275 0.386189668459304 0.454963171061646 0.00793540414642406 0.454963171061646 -5.90658581965497
-1.60163711159303 -1.2173516972343 0.287542233121568 -1.2173516972343 -0.443406247336998 1.03192726652974 0.287542233121568 1.03192726652974 -2.94260509596371
9.19350311774316 -0.785428155150371 2.66246832254363 -0.785428155150371 1.12356163211341 -3.04320129266737 2.66246832254363 -3.04320129266737 -1.44838276746374
-0.380229883703968 -1.21570098871337 0.892376257672577 -1.21570098871337 1.03722573717885 1.13810305326358 0.892376257672577 1.13810305326358 2.3589772376736
-0.522081806550351 -0.996701630687033 -0.627792585562612 -0.996701630687033 -2.20482481939859 1.72157554391397 -0.627792585562612 1.72157554391397 -3.63947110599356
-0.382336804224575 0.171392360514464 0.735668747439009 0.171392360514464 -4.76734442784849 -1.18392569032299 0.735668747439009 -1.18392569032299 1.06790624628243
-0.442802546104909 -0.90288519157001 -0.617763552126849 -0.90288519157001 -2.41273387316675 1.79713033345993 -0.617763552126849 1.79713033345993 -3.98522291494419
-2.14071281179189 -3.1384803122325 0.831472917033842 -3.1384803122325 -1.93482427995494 -1.95594105245104 0.831472917033842 -1.95594105245104 0.860508479215976
0.163529223057304 1.06514980423811 0.0707153397004556 1.06514980423811 4.84400076948121 0.674005581519967 0.0707153397004556 0.674005581519967 1.29718451263023
0.41991447345179 0.532643191156968 0.160638422729879 0.532643191156968 -8.14464985419915 -1.30765312538007 0.160638422729879 -1.30765312538007 -1.94738859835696
-2.97071575312554 1.03329243586975 0.505653745212857 1.03329243586975 0.247330636245419 3.42690337108931 0.505653745212857 3.42690337108931 -2.78109559867072
-0.902091589926164 1.65507713193065 -1.69483874470976 1.65507713193065 1.42147765685335 1.12823576260738 -1.69483874470976 1.12823576260738 1.23509509695125
0.734060832389847 -1.87622768711918 2.33998453068677 -1.87622768711918 -2.95744364240819 -0.686360128480037 2.33998453068677 -0.686360128480037 -4.21356217869984
-1.76994234479844 1.98135965397804 -1.98949108894649 1.98135965397804 -6.02539331161859 3.43959699165272 -1.98949108894649 3.43959699165272 0.197864917565523
-0.944588671281653 2.42083107557975 0.0464551805548354 2.42083107557975 -1.82981794518768 1.49172746448305 0.0464551805548354 1.49172746448305 -4.03901986490652
-0.0447662676941241 -0.244897817385503 -0.942724931440967 -0.244897817385503 0.97169133994893 -0.0947991551169687 -0.942724931440967 -0.0947991551169687 1.1059901430313
6.91237343013413 -5.57876992833473 2.20748654179838 -5.57876992833473 -3.31744225137054 -0.387242010615663 2.20748654179838 -0.387242010615663 -1.21349635412181
-1.26174832422071 0.74933524931885 0.776884339367337 0.74933524931885 -1.12124796497343 2.03863266358805 0.776884339367337 2.03863266358805 0.382932351673971
-0.731129393846164 2.08717681689192 -2.58365319582124 2.08717681689192 1.96614526182955 1.51412945414763 -2.58365319582124 1.51412945414763 1.35604742304576
3.53538045635174 -0.256262784558041 -0.0392238955956185 -0.256262784558041 0.143820950517268 2.33512925112582 -0.0392238955956185 2.33512925112582 -1.64217376226989
1.54717534123189 -0.987613592819691 1.5084959577011 -0.987613592819691 4.53064512424073 -0.224340424478624 1.5084959577011 -0.224340424478624 2.47032329483359
2.6368799188884 -0.22781385595163 -0.253999356635725 -0.22781385595163 -0.369215559645745 2.30956116033721 -0.253999356635725 2.30956116033721 -1.35117183529932
-1.47787448840547 -3.003167409594 -0.118546081957658 -3.003167409594 0.513699688483184 -0.790307213051052 -0.118546081957658 -0.790307213051052 2.29979398997856
5.4265321864819 3.20101432021845 -0.437107700679288 3.20101432021845 4.23248188218726 0.4930788086931 -0.437107700679288 0.4930788086931 -0.783595512193358
7.79263240750941 -1.64710695465168 1.39401988850941 -1.64710695465168 -2.24512719964912 3.38606002201627 1.39401988850941 3.38606002201627 0.916420102402233
-2.52331631476519 2.08282359602385 -1.90880178121246 2.08282359602385 -5.91946079444377 3.50218902307927 -1.90880178121246 3.50218902307927 -0.424178173602769
2.07056938600411 -3.66103739241381 -2.8531134849025 -3.66103739241381 2.14247884374072 2.16362868425149 -2.8531134849025 2.16362868425149 0.327822527916892
3.55641799301432 0.626073583697121 -0.576067706405019 0.626073583697121 -0.0260030561918932 1.06812553895931 -0.576067706405019 1.06812553895931 3.27438484508686
-4.99095796686088 -0.0468111287646621 3.59331140803025 -0.0468111287646621 4.42476621894544 -1.44222858622554 3.59331140803025 -1.44222858622554 0.0512693315041537
-0.831667794861883 2.35294832645707 0.20662553909612 2.35294832645707 -1.63492457809805 1.45154441215024 0.20662553909612 1.45154441215024 -4.14284205887721
-2.4171235154251 0.111498284072327 -1.69636675052898 0.111498284072327 3.15181756583026 -2.32951772079684 -1.69636675052898 -2.32951772079684 -6.3673484368447
1.7692536459461 -2.05158135540558 1.12931083783794 -2.05158135540558 -2.45221781930523 -1.35248417007734 1.12931083783794 -1.35248417007734 -3.85310102528991
-1.77843979334641 1.56862386267071 -0.829272487908719 1.56862386267071 -0.0549517913674452 0.0974145392422893 -0.829272487908719 0.0974145392422893 1.38128821028169
-3.83412978647304 2.06066525977109 -0.560041429484826 2.06066525977109 0.88314225418761 1.73038441674158 -0.560041429484826 1.73038441674158 0.0646201649405568
0.0728149713867052 1.30184342782291 0.141216914204519 1.30184342782291 3.1928261695928 -1.24888708499622 0.141216914204519 -1.24888708499622 0.481020114009143
8.07833831437219 -1.49901001289158 1.22164217377151 -1.49901001289158 -2.14960075318058 3.58946615331862 1.22164217377151 3.58946615331862 0.817827231523163
-1.90491799042484 0.812067640426775 0.834089813726484 0.812067640426775 -0.506509985893311 2.54356101611641 0.834089813726484 2.54356101611641 -0.85335921536373
-2.47716356765852 1.38403800755298 0.449591964236956 1.38403800755298 -0.769154879993615 -2.82758083390203 0.449591964236956 -2.82758083390203 -1.37522247884245
1.5624191943021 -0.65647865306811 -0.388635362616321 -0.65647865306811 -4.74765361898857 -0.519931093229943 -0.388635362616321 -0.519931093229943 1.27356858695213
0.564938510367259 -0.827700608212495 -1.70269839403713 -0.827700608212495 -3.84158187049736 1.24023710182952 -1.70269839403713 1.24023710182952 -0.974847383005828
-2.20682520285094 0.855763887888583 0.806234145181205 0.855763887888583 -0.231138799301096 2.78742385347632 0.806234145181205 2.78742385347632 -1.43085923376869
-0.920493375108423 0.733087538260002 0.694503983614738 0.733087538260002 -1.43585942644158 1.78311141824895 0.694503983614738 1.78311141824895 1.02522016628842
0.124942649206831 1.65479597616158 -0.971776160497573 1.65479597616158 -3.18187279980063 -0.363721934357663 -0.971776160497573 -0.363721934357663 2.8320333820215