5.8010875862 1.5546837697 2.2032422412 2.8837450774 4.6640561957 4.9043139531 2.1926674186 1.554666605 2.4262462096 7.5988242201 1.5546745013 0.0005294672 8.1275176228 4.6640636921 2.5453240458 1.0942376832 4.6640422953 2.1958677413 4.0285398923 1.5546864586 4.6577514669 9.2852571563 1.5546883618 2.7535672287 6.284524529 4.6640437219 0.3270623701 1.3665648109 4.664049645 3.7143771183 3.7756840622 1.5546797674 1.234649452 9.068548713 1.55468104 1.2289516559 6.580581619 4.6640509255 3.7604351863 4.7604689109 4.6640525799 0.5913562464 0.3765096717 1.554681281 3.1037703717 5.5761127214 1.5546780144 4.432300641 9.9722871552 4.6640492686 1.9353592483 1.8123602289 5.8783232008 1.4819851743 3.3384792375 0.3425283625 3.9338118291 8.5073519259 2.7539706638 3.4407973455 6.9949732193 3.4422550682 1.0541569468 8.5073490033 0.3554046358 3.4408000268 6.994982144 5.8858290099 1.0541632295 1.8123573749 3.4497624738 1.4819878827 3.3384880158 2.7668492606 3.9338179216