0.0575062920180687 2.41683572219868e-05 -0.0154836894534308 -0.0741022401240773 -0.000199003281806572 -0.0366004059108669 0.000658202069024322 0.000193603967959107 0.000942565931657486 0.0908789366888844 0.000150666567362599 0.0498012140475528 0.0137116860707293 -0.000238855360204529 0.0134705167188759 -0.00786551472484065 -8.33036993608908e-05 -0.0386171781879868 0.0850273660291482 0.000100015861269711 -0.0229779370737124 -0.107229087459742 7.5590393864512e-05 -0.00716051860247163 0.0198252520071592 -6.5305986536007e-05 0.0564097170866669 0.0185708114232648 -1.38839498934818e-05 0.0158148473694086 -0.0183468684536866 1.54266109927576e-05 0.046918751783556 -0.00131126193438439 1.79977128248838e-05 0.00192009884823189 -0.000836893646357097 -9.25596659565453e-06 -0.000771073439454665 -0.0402696253354943 2.82821201533888e-06 0.0238451697216886 0.0942959310237802 1.0284407328505e-05 -0.0419549825864531 -0.0946371162369033 8.74174622922928e-06 -0.0304295044035807 -0.0147691802542829 -4.88509348103989e-06 -0.00759220660008563 0.0143601179527916 -0.0419287573477654 0.0041420450515554 -0.0125158666086074 -0.0157523695948879 0.00563071301235651 0.0199463509034523 0.0186757123780155 -0.0516097270762704 -0.0323542312351104 0.0239634404059664 0.0380605346413314 0.0199741188032393 -0.0186538580124424 -0.05161049840682 -0.0323611732100572 -0.023959326643035 0.0380520500052854 0.0143652601564558 0.0419215582626354 0.00416132831529635 -0.0125210088122717 0.015748770052323 0.00563894053821931