-8.95151837314438 0 -0.59143960679704 0 -6.47986028663108 0 -0.59143960679704 0 -0.0139867474580381