5.4175600257 -0.1347036758 2.5923743467 3.0054046128 4.4680188696 -0.2265561195 1.9094289704 1.4511071162 2.6244301805 7.7094581969 2.1583829986 0.1778283250 8.3283295488 5.1391518554 2.3185728327 0.8149632250 4.9132811955 2.1401425788 4.0397933327 1.0539273523 4.9076269896 9.6297367166 1.5986163740 2.7386383475 6.3934284839 5.1719932967 0.2311644922 1.2412726568 4.4504264396 3.5825393606 3.7883025042 1.2711975642 1.4440501983 9.2472811787 1.8812722699 1.2501100857 6.6715697470 5.0996195047 3.7365354025 4.9926952482 4.7089086258 0.4146482877 -0.0011934470 1.9975930151 3.0403140363 5.5216209490 1.5028050126 4.6918937354 10.4427813259 4.5542961679 1.7626064194 1.0412024976 6.4338747749 1.9705395909 3.7687745360 -0.2868816041 4.2025872518 8.5845517979 2.3672747481 3.6063076509 7.3919475242 4.0173959078 0.9965560711 9.4917129094 0.0747985409 3.0285133397 6.7412039238 6.4027498786 1.0953721020 1.9050304309 4.1246936914 1.2699396680 3.0801305714 2.2037595677 4.0571538249
5.4413046321 -0.0860436390 2.5028957625 2.7393533122 4.9263373263 0.0018402221 2.1731556301 1.5960957467 2.4111803774 7.9373986645 1.7244259041 0.0572184843 8.2700351604 4.8040562836 2.5388264658 0.7808580382 4.8990869524 2.2228799918 3.9912497184 1.4387299906 4.6854084001 9.6671825768 1.5470595994 2.7823899318 6.4006695149 4.9137371630 0.2934909097 0.9696783501 4.8260205072 3.7525474226 3.9375011928 1.5600955367 1.2752308502 9.4777303461 1.6215468522 1.2508786074 6.4537065931 4.7913531310 3.7036975435 4.8032323424 5.0033378482 0.6362916003 0.1293648274 1.4839911030 3.0592115462 5.6405445927 1.4402827126 4.3688488818 10.2690410977 4.8700104319 1.9221759693 1.5324425236 6.1971121091 1.5321437888 3.3522375702 0.1937011808 3.9452164627 8.7733581629 2.7959106032 3.4681806639 7.2183497214 3.6004372316 0.9639091901 8.9152002588 0.2495490193 3.4745057186 7.0420693786 6.1587110190 1.0357104600 1.6772218925 3.6522749934 1.5377440159 3.1725522271 2.7503591059 4.0159445246
5.4398339109 -0.1386129176 2.5225028603 2.9979791098 4.5211178983 -0.1283669400 1.9625628110 1.3943263911 2.5301313790 7.7201144837 2.1735651613 0.0897993459 8.4539971963 5.0679628866 2.5064510080 0.7666279991 4.9246600477 2.2438784386 3.9279360744 1.2895793337 4.8249584268 9.6077763899 1.5260504539 2.7087126433 6.5168807882 5.0008878420 0.2101311547 1.1753025566 4.6889371510 3.7125853743 3.8195254918 1.5464444308 1.3729211903 9.2434795341 1.6346956021 1.2039877698 6.6024822284 4.8774001792 3.6606474647 4.9580724841 4.8096273976 0.3741959234 0.0098728685 1.7483190147 2.9184423957 5.5351575544 1.5290539462 4.5986608673 10.3907625689 4.7278674565 2.0518289951 1.0961960592 6.3189437259 1.7985348188 3.5173022840 -0.0066789687 4.0899778179 8.7098814358 2.5835003903 3.5876452628 7.4036329983 3.7888466269 0.9579203340 9.2378833042 0.1419264847 3.2273224139 6.9867033193 6.1969753888 1.0798984304 1.6965620874 3.9326251644 1.2865659134 2.9723287977 2.4927530146 4.0247026993
5.4420741915 -0.1381435508 2.5174823860 2.9784030492 4.5512369013 -0.0996937341 1.9672572915 1.3896765971 2.5204952592 7.7331027463 2.1423207010 0.0683939458 8.4488679996 5.0555996145 2.5109691288 0.7643175179 4.9282728757 2.2651305297 3.9075278440 1.2921897373 4.8209132538 9.6135203404 1.5157414613 2.7030358050 6.5328903250 5.0147450882 0.2086295746 1.1981148392 4.6832931575 3.6890166344 3.7879329755 1.5554274985 1.3777179678 9.2137195880 1.6560935309 1.2364816985 6.6324630137 4.8620998181 3.6546751013 4.9292252736 4.7946984280 0.3570116997 0.0519865961 1.7281369998 2.9052930505 5.5655364426 1.5504299747 4.6004868019 10.3527735846 4.7430450373 2.0711444935 1.1283296275 6.3693052934 1.7983702590 3.5079110885 -0.0033936107 4.0739465785 8.7182160725 2.6243523976 3.5873383577 7.4092645199 3.7550721639 0.9606548535 9.2115650155 0.1016514242 3.2438674491 6.9939592162 6.2068614011 1.0931256301 1.6864312064 3.9015152645 1.2687321763 2.9908777189 2.5263683373 4.0082706332
5.4544350282 -0.1253872766 2.4918654476 2.8134589617 4.7822697234 0.0818086635 2.0876735703 1.4985636311 2.4849509038 7.8776149169 1.8980311056 -0.0608505773 8.3136315084 4.8775075584 2.5144917235 0.7843948809 4.9032795266 2.2493359727 3.9108682578 1.3838129188 4.7476257063 9.6096067840 1.5401066807 2.7436750602 6.5392575289 4.9756140275 0.2436479756 1.2595954547 4.6490642708 3.6582657645 3.6599841238 1.6263497821 1.2964383903 9.1488935930 1.7169480132 1.3211402188 6.8153395479 4.8087252711 3.7095344392 4.9125051037 4.8786478991 0.3081841811 0.0926768553 1.6674121008 2.8108535808 5.5860242658 1.4859440140 4.6651226097 10.2706488635 4.7706390086 2.1714873065 1.3628813064 6.3176790583 1.6146223201 3.4701324512 0.1025828245 3.9628554609 8.7742376644 2.6680919502 3.6918305756 7.3771019115 3.7208212411 0.9785002355 9.0472679573 0.1726080712 3.4412499360 6.9488409893 6.2207345421 1.0787383739 1.6220458074 3.7956937263 1.2604758837 3.0853296445 2.6221087020 3.9489992768
5.4541203598 -0.1226144842 2.4914486195 2.8016239209 4.7988204027 0.0880234585 2.1002034964 1.5144693938 2.4826525134 7.8892454315 1.8802534910 -0.0615869778 8.3018647916 4.8614202319 2.5133074171 0.7964416459 4.8918429640 2.2183590098 3.9205478828 1.4143293478 4.7237923791 9.6050219918 1.5500275830 2.7704618465 6.5348612223 4.9496687504 0.2612745348 1.2417651072 4.6592601964 3.6766285579 3.6854240140 1.6306346927 1.2773403155 9.1706531290 1.7012248547 1.3071595097 6.7882644616 4.8121569909 3.7169191594 4.9289519617 4.9020460423 0.3088918925 0.0713148180 1.6635355848 2.8083764725 5.5607840104 1.4599559017 4.6701368875 10.2827526272 4.7779351433 2.1715850102 1.3709564560 6.2935714745 1.6106763305 3.4679621153 0.1145707880 3.9588868191 8.7918690312 2.6651679557 3.6874318939 7.3601906493 3.7397166008 0.9750646021 9.0352215895 0.1824882983 3.4353351452 6.9471780504 6.2193973770 1.0730675651 1.6088145991 3.8006855242 1.2848182086 3.0952309942 2.5967198449 3.9697410443
5.441049553303 -0.085750087596 2.503056822268 2.738704302520 4.927053958833 0.000685217406 2.174299603949 1.595843729341 2.410952679302 7.937394872438 1.723702794832 0.058128059166 8.269217980345 4.804293926689 2.538726306137 0.784499103598 4.900150958187 2.232146925299 3.987214857604 1.435444828355 4.686861998242 9.666492476200 1.547638093107 2.773966719238 6.402750242463 4.915362204124 0.292430921451 0.966216843618 4.826429161480 3.749041045716 3.936920816909 1.556752058531 1.277669056259 9.484774736180 1.621359889814 1.257072598821 6.453044794400 4.794055476865 3.701613995659 4.790462331909 5.006724689822 0.641861227745 0.137968600574 1.480957436749 3.061220062587 5.660529247889 1.441064361472 4.364252416791 10.251985655061 4.869849847189 1.918067923219 1.539417932054 6.210956833737 1.525722775297 3.348657385562 0.186459071374 3.946660454152 8.765769930642 2.810082025054 3.471934185998 7.224620996325 3.583136517073 0.967292992868 8.911573823229 0.236825346842 3.480395803127 7.041296870073 6.164348212564 1.032627531654 1.685221393535 3.637706774781 1.534184392426 3.165344359364 2.767670766865 4.011994992938
5.4219615638 -0.1345332312 2.5818536171 2.9799212067 4.4293005645 -0.2487040559 1.9169085189 1.4507866871 2.6229739115 7.7286897144 2.1862534358 0.1811839188 8.3392392647 5.1291352501 2.3190150384 0.8107306406 4.9019745500 2.1593384182 3.9893205921 1.0724688747 4.8852982976 9.6171712191 1.5887541202 2.7291388103 6.4051845540 5.1784568328 0.2622593268 1.2165731507 4.4988693369 3.5867478435 3.8358742791 1.2803823481 1.4528484499 9.2580340351 1.8704576396 1.2593631357 6.6390154618 5.0471243966 3.7167276898 4.9198027763 4.7459231502 0.4220434430 -0.0262612335 2.0009343007 2.9986492480 5.6453858938 1.5164497888 4.6669982958 10.5103744588 4.5589556706 1.8191226702 0.9865174387 6.3592419918 1.9442782497 3.7486161500 -0.2934155022 4.2135423888 8.4509590420 2.4398140488 3.5960967944 7.4119581019 4.0016193908 1.0620946284 9.5422135218 0.1256507801 3.0779812956 6.7373228918 6.4440636045 1.0794515521 2.0047345928 4.0990164380 1.2323414012 3.0865471583 2.1749699641 4.0698884165
5.4419909171 -0.0869124528 2.5024025002 2.7408871181 4.9243313416 0.0049583302 2.1701087934 1.5966315427 2.4119080590 7.9376318993 1.7265206515 0.0547643108 8.2721749787 4.8034813032 2.5390315721 0.7710942260 4.8957106009 2.2003064173 4.0026429447 1.4476224952 4.6815598268 9.6681705790 1.5459269585 2.8023062325 6.3955116645 4.9095667134 0.2962738303 0.9802379265 4.8246739474 3.7587012371 3.9381774563 1.5696888834 1.2696996070 9.4575378480 1.6219842830 1.2385017672 6.4563781376 4.7837722056 3.7085208487 4.8372183591 4.9933205782 0.6203454139 0.1073473412 1.4929187843 3.0535802700 5.5854036829 1.4385828705 4.3822862229 10.3152290915 4.8702074587 1.9334827368 1.5136948547 6.1607583328 1.5492812807 3.3615429730 0.2124019503 3.9401402986 8.7942158001 2.7574564145 3.4582747545 7.2013757134 3.6477044987 0.9547677552 8.9244391711 0.2829776583 3.4586272482 7.0449251874 6.1439793788 1.0451134043 1.6554133620 3.6915627154 1.5467763076 3.1920242904 2.7033663112 4.0264809338
5.4244814049 -0.1344666653 2.5766115692 2.9713187579 4.4136405932 -0.2619363589 1.9177013139 1.4498438038 2.6201820575 7.7376289088 2.2001860560 0.1854123597 8.3483630041 5.1262971906 2.3245892394 0.8209393596 4.8644049932 2.1623539514 3.9784779199 1.0927125336 4.8797633738 9.6064205646 1.6079049543 2.7305105558 6.4283662798 5.1662386099 0.2691703289 1.2148346490 4.5170262054 3.6001859915 3.8635171461 1.2983063053 1.4389858478 9.2548495996 1.8628267749 1.2561399098 6.6173860107 5.0157209172 3.7187347951 4.8827489043 4.7533546445 0.4275572070 -0.0189040880 2.0072089646 2.9798298673 5.6434003253 1.5113502050 4.6557022168 10.5044449544 4.5468218643 1.8412908018 0.9825873639 6.4006395564 1.9219185046 3.7350997366 -0.2865637253 4.2080706402 8.4162533654 2.4558959770 3.5647793567 7.3940501810 4.0172596869 1.0654101139 9.5442354805 0.0966993827 3.1093064875 6.7488026473 6.4630144371 1.0855769345 2.0199766432 4.0985477795 1.2508331398 3.1021370845 2.1511998134 4.0919444378
5.4472618285 -0.1371659572 2.5081079226 2.9344740772 4.6109907215 -0.0413280367 1.9787299495 1.3955036187 2.5048733921 7.7660004453 2.0756763039 0.0238754836 8.4321319048 5.0189092521 2.5155149329 0.7732082197 4.9161756518 2.2487148279 3.8960773245 1.3311314859 4.7957883455 9.6298856611 1.5216895501 2.7282941038 6.5419914257 5.0116150347 0.2252756373 1.2584329643 4.6616312122 3.6839057726 3.7332909068 1.5744711101 1.3731408625 9.1457958189 1.7033611462 1.2724510077 6.7016758821 4.8307808825 3.6475862750 4.9412513996 4.7794261144 0.3317001422 0.0923034246 1.6968069068 2.8796188683 5.5192779603 1.5663776345 4.6071965074 10.2860375967 4.7575889116 2.1035793504 1.1981069826 6.4193666780 1.7802805146 3.4976516978 0.0261965322 4.0382137390 8.7630935169 2.6291379625 3.5489288124 7.3695474691 3.7926095917 0.9438872765 9.1616110075 0.0752839337 3.2940871492 7.0003742590 6.2069850462 1.1136615381 1.6306975244 3.9096368758 1.2987608988 3.0842342974 2.4982450535 4.0122281540
5.4471383504 -0.1048716626 2.4932067848 2.7466155796 4.8912188618 0.0492452695 2.1502628072 1.5702085875 2.4438210420 7.9443553421 1.7727785976 0.0051861959 8.2756738100 4.8174107728 2.5268663185 0.7788523966 4.8807654569 2.2321953200 3.9432098819 1.3995939588 4.7273847032 9.6499452165 1.5352415420 2.7695053586 6.4668301845 4.9868968200 0.2604635310 1.1675290185 4.7483184576 3.7035731931 3.8214123117 1.6646683201 1.3139865505 9.2348211685 1.6406178550 1.3053703266 6.5995434330 4.7528933090 3.6810040028 4.8436149867 4.8999693956 0.4167437388 0.1189496039 1.6313261825 2.9261797871 5.6154326676 1.4373960067 4.5460136998 10.2737646118 4.8235983135 2.0514821906 1.4657656534 6.2351609542 1.5881379675 3.4086597782 0.1966167168 3.8618052395 8.8230735207 2.7514532516 3.5628187204 7.2839422955 3.7121565818 1.0206469970 8.9054302519 0.2184042124 3.4053807511 7.0572845350 6.1504569695 1.1399036187 1.6410700512 3.6846795528 1.4111068748 3.1083213711 2.6640635120 3.9555580704
5.4437025304 -0.0903520100 2.5003289260 2.7420544542 4.9183427661 0.0135963435 2.1625315830 1.5958486956 2.4154723226 7.9413642992 1.7336894604 0.0478735656 8.2766936216 4.8031909649 2.5388513377 0.7545191519 4.8823606836 2.1668865491 4.0219387930 1.4626169733 4.6809721599 9.6683230526 1.5463551454 2.8287555694 6.3919562690 4.9091016138 0.2965713763 1.0268460558 4.8162043847 3.7589504355 3.9283001755 1.6017686752 1.2674014165 9.3863347883 1.6239497423 1.2305836065 6.4748337569 4.7607755858 3.7120656541 4.9030493906 4.9576438554 0.5693609962 0.0715392198 1.5260568063 3.0348387003 5.4695623002 1.4385754124 4.4236893635 10.3983732915 4.8664134886 1.9623821988 1.4748131525 6.0962027294 1.5858983143 3.3809182669 0.2483681475 3.9126329096 8.8426189971 2.6733523161 3.4431469237 7.1675954533 3.7604737526 0.9396849172 8.9340431847 0.3421991612 3.4226274834 7.0609967975 6.1132371534 1.0826416648 1.6076499909 3.7750324089 1.5550153327 3.2301210287 2.5965590574 4.0427853492
5.4516901238 -0.1353010431 2.5006611819 2.8968884980 4.6668996465 0.0121342545 2.0022276121 1.4235572036 2.4970582179 7.7984560528 2.0142985690 -0.0164455421 8.4025268173 4.9725317851 2.5164591358 0.7719272952 4.9139890555 2.1963243506 3.9205448551 1.3791159680 4.7762825852 9.6413879262 1.5286791461 2.7764005907 6.5273349273 4.9791876106 0.2369504301 1.2918991524 4.6441776464 3.6766442989 3.6994755888 1.5947706967 1.3291766018 9.1023682033 1.7361545222 1.2908202731 6.7594262528 4.8059553901 3.6816170873 5.0163766829 4.7932719588 0.3179115424 0.0544255910 1.6774518089 2.8577189628 5.4038648726 1.5506275567 4.6212245401 10.3291520197 4.7659767954 2.1297679686 1.2359969401 6.3103127269 1.7462815153 3.4960845627 0.0730527924 4.0100019971 8.8217826114 2.5678059280 3.5148730498 7.3103119600 3.8757161274 0.9112398701 9.1377349480 0.1642467179 3.3414280864 6.9914654225 6.1956168751 1.1164833258 1.5527788787 3.9684951546 1.3655746872 3.1743181113 2.4452245161 4.0307310281
5.4544462580 -0.1302582437 2.4938345983 2.8451638322 4.7432828673 0.0634826096 2.0549902953 1.4675913960 2.4889259452 7.8483103019 1.9375803030 -0.0522583736 8.3463746348 4.9128256434 2.5166742701 0.7493604042 4.9286399627 2.2441242872 3.9147482217 1.3564038109 4.7833146954 9.6298423251 1.5162621944 2.7523660922 6.5289834334 4.9954784240 0.2212277545 1.2864686720 4.6364237975 3.6486765452 3.6535700347 1.6183344332 1.3023242349 9.1062033910 1.7421378608 1.3133605212 6.8211012594 4.7981620701 3.7135561497 4.9561320100 4.8353699673 0.3105374035 0.0805587832 1.6713952494 2.8269412282 5.5237466491 1.5246692200 4.6466535453 10.3302494549 4.7668933615 2.1612053585 1.3138472291 6.2845082004 1.6606119621 3.4815615844 0.0986817714 3.9776263855 8.7856132796 2.6246636467 3.6311308463 7.3612133106 3.7661955709 0.9569660909 9.0888019491 0.2086342012 3.4124963471 6.9629839049 6.2087275909 1.0960136242 1.6008304300 3.8523452780 1.2839739213 3.1130489483 2.5884469322 3.9534544069
5.4280106638 -0.1348452945 2.5634315931 2.9812309293 4.3889877984 -0.2963864474 1.9159642972 1.4366901515 2.6043125792 7.7413233396 2.2332757734 0.2001227806 8.3884653429 5.1308876788 2.3647974429 0.8599004703 4.8224555773 2.1331982583 4.0523018308 1.1051804371 4.8793560327 9.5862711815 1.6416603809 2.7645998658 6.4310771351 5.1266024913 0.2786532950 1.2240611122 4.5459004618 3.6608641954 3.9175542491 1.4004576231 1.4312828218 9.2322298549 1.8275851453 1.2265208028 6.5699907545 4.9160194157 3.7340956104 4.9345545289 4.7668010899 0.4475904374 -0.0064615432 2.0328353967 2.9462411344 5.4672385973 1.4806062103 4.6282435850 10.4267979769 4.4806825369 1.8846619700 1.0113948037 6.4557863207 1.8624706800 3.6813204278 -0.2060220873 4.1571295643 8.4564644245 2.4269455307 3.4106823283 7.2974045963 4.0765053999 1.0014537959 9.4746369981 0.0599499458 3.1745882403 6.8208027069 6.4177831294 1.1012210516 1.9473883276 4.1106877511 1.4122661079 3.0789814936 2.1862284619 4.1127187272
5.4076780603 -0.1332734670 2.5954269215 3.0753253860 4.6055229007 -0.1737913281 1.9193987695 1.5330033104 2.6550255702 7.6628506073 2.0772841149 0.1872965528 8.3044124033 5.1260748524 2.3140041968 0.7278842526 4.9123711209 2.1755580775 3.8826788615 1.0961522896 4.8955909207 9.7203755488 1.5402211640 2.7123196393 6.4622482925 5.1224429629 0.1728448766 1.2372811773 4.4607095114 3.5440400453 3.7181742980 1.3664372381 1.4931057836 9.2481543985 1.8575205136 1.3023903307 6.6658491977 5.1704510647 3.6420952741 5.0426773335 4.5951189315 0.3229586637 0.0913184689 1.9032452692 3.0364166087 5.5655851730 1.5349740530 4.7428244120 10.3477744271 4.6387173502 1.7929725297 1.0860089120 6.3396743610 1.9564993506 3.7290783193 -0.2564536630 4.1647354937 8.7026599692 2.3153275262 3.7490954910 7.4493649058 3.8973136052 0.7917638290 9.4401261040 0.1022775533 2.9944303499 6.8303022269 6.2778443982 1.1453615892 1.8348249438 4.1044016846 1.1327872667 3.0652539863 2.1860736668 4.1443310704
5.4535986888 -0.1196735777 2.4913288294 2.7924762687 4.8147094978 0.0914448349 2.1105145933 1.5292679896 2.4793068899 7.8990303947 1.8626315078 -0.0593288115 8.2933052456 4.8474319245 2.5128674769 0.8012909138 4.8830014225 2.1791364228 3.9373303290 1.4441993025 4.7020239102 9.6032483824 1.5555971294 2.8074794702 6.5239773598 4.9238272006 0.2781215832 1.2202172957 4.6723146572 3.6906180302 3.7196732176 1.6364577159 1.2537568855 9.1905336184 1.6854067112 1.2907413942 6.7501630441 4.8113251881 3.7284724163 4.9613761057 4.9208166464 0.3126141744 0.0412193797 1.6593272783 2.8120732138 5.5080196954 1.4359634805 4.6694732012 10.3225179615 4.7875850528 2.1665941556 1.3706199877 6.2469359052 1.6171142399 3.4674881413 0.1352910000 3.9552629243 8.8206712117 2.6500183676 3.6621390282 7.3318738034 3.7742748892 0.9664066260 9.0273383578 0.2113758566 3.4190240871 6.9507282066 6.2103976588 1.0709385958 1.5842774552 3.8203834940 1.3277435153 3.1156540126 2.5587234608 3.9964444271
5.4097116582 -0.1361198186 2.6008785331 3.0609153973 4.5573089295 -0.1903398030 1.9079813977 1.5001699788 2.6449966683 7.6749236051 2.1054567619 0.1860377076 8.3143444083 5.1415323580 2.3198239884 0.7234266250 4.9050348722 2.1496769577 3.9253010845 1.0783401464 4.9100861985 9.7204323863 1.5602152451 2.7032737617 6.4846003394 5.1271371812 0.2005172546 1.2572391365 4.4364978127 3.5559323089 3.7357584202 1.3298385511 1.4410996859 9.2331711386 1.8643788470 1.2804696562 6.6988342893 5.1661914899 3.6624140676 4.9645203643 4.5819463466 0.3753511279 0.0561336829 1.9473928717 3.0642877530 5.5294585260 1.5404367947 4.7231935255 10.4131726159 4.6090599113 1.7538156640 1.1003616292 6.4076632474 1.9656671253 3.7604863195 -0.2722239463 4.1551154942 8.6940196808 2.3156167425 3.7125451560 7.3575008031 3.9990967590 0.8079679759 9.4128489865 0.0669651473 2.9748780563 6.8019672813 6.3458965298 1.1640175598 1.8133609127 4.1301666711 1.2267320267 3.1187534932 2.1602924049 4.1473170819
5.4428859156 -0.0883418075 2.5015534525 2.7421949787 4.9214678295 0.0091774198 2.1661678631 1.5968298389 2.4132707119 7.9387247237 1.7297380844 0.0514364385 8.2747633326 4.8029839018 2.5391180166 0.7594230843 4.8898234546 2.1768454487 4.0171334461 1.4582251391 4.6779329465 9.6679927030 1.5455768734 2.8219111005 6.3908155969 4.9058388551 0.2988098141 0.9988827697 4.8217722775 3.7612128326 3.9361815451 1.5842447689 1.2655090482 9.4261983108 1.6226610562 1.2300913337 6.4627832016 4.7728283601 3.7125668158 4.8782487547 4.9774327610 0.5966051754 0.0831312115 1.5072224467 3.0452428624 5.5141833235 1.4375726984 4.4024873858 10.3712301022 4.8695027097 1.9486387906 1.4905098462 6.1185002228 1.5704854501 3.3726688122 0.2341977673 3.9296977241 8.8215722809 2.7084720763 3.4469399579 7.1802484634 3.7097559246 0.9438715590 8.9337163922 0.3218357990 3.4384431305 7.0510524425 6.1261917935 1.0609878040 1.6275024891 3.7408558131 1.5557571785 3.2160843852 2.6429380636 4.0386713649
5.4531282706 -0.1339123996 2.4978143965 2.8801236066 4.6940051139 0.0335475971 2.0184579461 1.4387008562 2.4940877331 7.8146264952 1.9864636806 -0.0320865601 8.3844018510 4.9510410248 2.5168015480 0.7569212294 4.9270377693 2.1970007948 3.9311725959 1.3767801800 4.7809512400 9.6420460660 1.5205768475 2.7829152032 6.5194226222 4.9778691239 0.2312294059 1.2953365730 4.6385913159 3.6655103607 3.6837616461 1.6044862560 1.3095702321 9.0943665105 1.7444592402 1.2980870235 6.7836838933 4.7986286887 3.7016929367 5.0270041766 4.8058561172 0.3142359392 0.0449979342 1.6731531181 2.8476592102 5.3998177332 1.5414251784 4.6295940564 10.3614262113 4.7684760778 2.1412984734 1.2527845303 6.2593156380 1.7247670795 3.4936283717 0.0895241630 3.9985213980 8.8250521065 2.5637891303 3.5345315265 7.3120186287 3.8657945618 0.9154175223 9.1283295235 0.2102763720 3.3620223173 6.9827889079 6.1955624672 1.1120002230 1.5505811523 3.9533462064 1.3571493365 3.1710251202 2.4763760466 4.0106688673
5.4082789949 -0.1354062943 2.5990609239 3.0703703791 4.5813567652 -0.1818906666 1.9135227690 1.5178685257 2.6516269572 7.6670775944 2.0913508879 0.1872320933 8.3087584416 5.1344852948 2.3170604219 0.7184095514 4.9172898130 2.1660614976 3.8921753616 1.0871578565 4.8946892865 9.7274121043 1.5392149066 2.7009072975 6.4723891983 5.1298376694 0.1889552742 1.2466123273 4.4504826445 3.5463805252 3.7232154527 1.3490270871 1.4753847776 9.2411536371 1.8585669295 1.2968476814 6.6874583413 5.1715995754 3.6436444895 4.9981491047 4.5815555860 0.3510137841 0.0709684545 1.9252141422 3.0529701019 5.5658467333 1.5460323663 4.7326207554 10.3878404446 4.6268044263 1.7704185267 1.0900611831 6.3494139017 1.9619149496 3.7465593327 -0.2646720402 4.1565026552 8.6950297657 2.3181475524 3.7402315696 7.4041611860 3.9387368792 0.7969434518 9.4263003612 0.1076791521 2.9786590005 6.8163574158 6.3147557461 1.1587136235 1.8276118796 4.1148034260 1.1745966787 3.1008294786 2.1627953220 4.1544692496
5.4277010089 -0.1345424883 2.5673945610 2.9714615643 4.3937298372 -0.2876364496 1.9159904327 1.4422996179 2.6100500555 7.7446263974 2.2240385702 0.1956764191 8.3735857144 5.1275807906 2.3483503597 0.8620438423 4.8162156106 2.1418414228 4.0153156296 1.1099317293 4.8784395010 9.5853734642 1.6428060721 2.7541958922 6.4468591311 5.1319591680 0.2773145298 1.2247747373 4.5370290726 3.6459490541 3.9071853444 1.3604974695 1.4202817907 9.2386350286 1.8425872974 1.2356136919 6.5792565134 4.9481752971 3.7360458614 4.8962925311 4.7638721487 0.4407044675 -0.0003350472 2.0261302441 2.9530992671 5.5328260102 1.4889591221 4.6368221389 10.4389344126 4.4996786319 1.8699493630 0.9997665984 6.4694680388 1.8793935029 3.7022336143 -0.2368063111 4.1796701805 8.4294592906 2.4427161372 3.4581835628 7.3217718319 4.0714397636 1.0234613122 9.5067555340 0.0467893009 3.1601654660 6.7920608946 6.4505056927 1.0992432456 1.9740839973 4.1134009729 1.3603545864 3.1041569303 2.1518212718 4.1175337035
5.4295905546 -0.1411957965 2.5469570364 3.0357059372 4.4013559540 -0.2764091887 1.9297024768 1.4119674592 2.5758254353 7.7144413784 2.2645081296 0.1962906658 8.4482309883 5.1326624972 2.4513300646 0.7605792630 4.8919288086 2.2330972511 3.9611834964 1.1683359756 4.8869637101 9.6276283180 1.5808009416 2.6599362044 6.4421269083 5.1021464159 0.2046287601 1.1655941604 4.6307761941 3.6762756180 3.9127823162 1.5359462443 1.4476212327 9.2502016317 1.6923087198 1.1902032450 6.5749700202 4.8656216295 3.6608505022 4.8629533618 4.7572719288 0.4869793252 0.0187043911 1.9779364849 2.9693750514 5.5928115014 1.5332223220 4.5510746125 10.3685908604 4.5067216363 1.9437985512 1.0827403947 6.4024919510 1.7832206076 3.5650647366 -0.0993871787 4.0655214220 8.4968826348 2.4574113109 3.5107452593 7.3746870670 3.8965937009 0.9826516795 9.2938405756 0.1205204373 3.2198118097 6.9634930924 6.2734524050 1.1113861650 1.9325587478 3.9869508602 1.3857326814 2.9905626221 2.2863566747 4.1093002948
5.4139223059 -0.1352763057 2.5996008938 3.0338045604 4.5110662294 -0.2075213846 1.9027896439 1.4651032470 2.6297266964 7.6924683035 2.1324666697 0.1808434814 8.3231510000 5.1472760349 2.3223268113 0.7876447291 4.8862540929 2.1235127488 4.0321579704 1.0669636979 4.9303702404 9.6645222654 1.6072450462 2.7344336817 6.4613878817 5.1398374505 0.2069977490 1.2632120661 4.4230455356 3.5746976856 3.7633144427 1.2922087853 1.4062991861 9.2301647667 1.8791987981 1.2493574818 6.6922571885 5.1384154276 3.7263748467 4.9621208279 4.6308081443 0.4064255445 0.0364310462 1.9839792343 3.0674080306 5.4239342645 1.4994592358 4.7129591009 10.4085051305 4.5673728990 1.7364426642 1.0980382467 6.5086143343 1.9763358678 3.7746219712 -0.2814489099 4.1728578437 8.6887480863 2.3100524541 3.6283204957 7.3349982523 4.0572354817 0.8813483331 9.4253952072 0.0061082795 2.9904683477 6.7701790756 6.3807496032 1.1406532973 1.8045789657 4.1552210597 1.3069293914 3.1077964031 2.1892141666 4.0969408075
5.4452015129 -0.0988458353 2.4955301870 2.7372728919 4.9075052034 0.0286429458 2.1568607968 1.5824586654 2.4289812287 7.9511704682 1.7504940781 0.0312709626 8.2758324834 4.8108237095 2.5338154369 0.7782850147 4.8752070419 2.2338882500 3.9574980745 1.4127914625 4.7317304305 9.6708930669 1.5387788680 2.7648575662 6.4365752845 4.9755897554 0.2591055972 1.1327226590 4.7802755379 3.7262786004 3.8643447735 1.6507450420 1.3118001949 9.2696761184 1.6326459049 1.2843746592 6.5465038583 4.7407426597 3.6807812507 4.8328807023 4.9035368562 0.4831981296 0.1281498282 1.5950060305 2.9840593874 5.6045576791 1.4468974190 4.4813819507 10.2654602870 4.8409340785 1.9989977815 1.4890490229 6.2018085707 1.5783933220 3.3861841647 0.2164810650 3.8515515845 8.8213895112 2.7372808006 3.5140254743 7.2366061403 3.7297207244 0.9999934542 8.8884823799 0.2494978834 3.4173415060 7.0848479171 6.1302196259 1.1460047163 1.6440943047 3.7002355321 1.4616365272 3.1531427987 2.6485160594 3.9748967745
5.4496942308 -0.1363925639 2.5040923448 2.9145546936 4.6392911018 -0.0132930326 1.9887813266 1.4081400738 2.5003516080 7.7825500231 2.0439942303 0.0025648508 8.4188285690 4.9957529523 2.5161264527 0.7758232050 4.9110689526 2.2189054175 3.9047019155 1.3604743647 4.7823706925 9.6374375007 1.5279925319 2.7546227084 6.5365043891 4.9945703039 0.2340522719 1.2806552728 4.6516635962 3.6844899757 3.7148069553 1.5844500470 1.3537003285 9.1192983422 1.7224001631 1.2819116953 6.7324836859 4.8170800421 3.6604817737 4.9790885758 4.7833797608 0.3235684421 0.0772293961 1.6854042572 2.8681280092 5.4576351027 1.5606929960 4.6132219329 10.2959018795 4.7622220901 2.1174425340 1.2206203182 6.3772365646 1.7642981710 3.4966262770 0.0498908275 4.0228743371 8.7960655477 2.5980315678 3.5244635108 7.3350778316 3.8419889486 0.9252320424 9.1468852549 0.1107665102 3.3194146142 6.9976829132 6.2006759378 1.1173493502 1.5871589092 3.9432506827 1.3374598262 3.1400278038 2.4600585226 4.0268611909
5.4158696470 -0.1348352105 2.5966760580 3.0194304744 4.4891456368 -0.2167435484 1.9049514799 1.4549519687 2.6256652101 7.7007607883 2.1453050455 0.1786425553 8.3256055444 5.1443144304 2.3208539566 0.8094066940 4.8959318408 2.1278169142 4.0556147490 1.0609053131 4.9208039230 9.6402202862 1.6107553740 2.7421010793 6.4245412179 5.1579699027 0.2141241411 1.2549878147 4.4316456895 3.5803547779 3.7736491917 1.2784300341 1.4232780184 9.2375946839 1.8823273843 1.2462462088 6.6823032312 5.1201345576 3.7413583564 4.9826421909 4.6708829184 0.4123531298 0.0201521829 1.9937162498 3.0572168555 5.4407764278 1.4923214609 4.7051347574 10.4156876514 4.5560336013 1.7435326371 1.0752548446 6.4935071866 1.9762345313 3.7739053065 -0.2840513436 4.1880588680 8.6518811153 2.3289615752 3.6063605156 7.3625725135 4.0399515559 0.9410269219 9.4554127242 0.0278856941 3.0080073859 6.7542315518 6.3905394846 1.1174219121 1.8439808794 4.1450634855 1.3000481100 3.0924189512 2.2008161096 4.0721250214
5.4459892404 -0.1018766283 2.4942144478 2.7400780497 4.9007779737 0.0375482049 2.1544380885 1.5762163580 2.4359510801 7.9495083458 1.7601095703 0.0199166675 8.2752657918 4.8142873088 2.5305567780 0.7812221180 4.8776479086 2.2447627195 3.9454314689 1.4001883251 4.7348040221 9.6617374240 1.5360078611 2.7557450393 6.4534981327 4.9887288089 0.2558957807 1.1548212107 4.7645780438 3.7111623198 3.8402497329 1.6602782318 1.3205029697 9.2484130279 1.6362904543 1.3028994578 6.5744055252 4.7441537796 3.6752706873 4.8239323282 4.8973369387 0.4503320215 0.1347849600 1.6153524969 2.9571283527 5.6286292063 1.4446168287 4.5113752323 10.2507457384 4.8314323497 2.0222153660 1.4839588947 6.2311555739 1.5792240643 3.3941474226 0.2029007560 3.8493077853 8.8169219092 2.7562925509 3.5419425306 7.2651251523 3.7112583583 1.0166962278 8.8891044256 0.2232706640 3.4136018071 7.0763024620 6.1416964263 1.1492061345 1.6502760939 3.6790223339 1.4303401110 3.1242241042 2.6684822316 3.9578480848
5.4195232529 -0.1346343238 2.5872455342 2.9919218966 4.4478270088 -0.2370286333 1.9139923003 1.4506161712 2.6241022135 7.7188446160 2.1720780384 0.1786252535 8.3326255574 5.1337078562 2.3173960675 0.8126088095 4.9214920359 2.1513687387 4.0123148827 1.0570442359 4.8948232431 9.6243303755 1.5857311192 2.7327987337 6.3878241517 5.1798632644 0.2494858771 1.2265618300 4.4749668393 3.5828116986 3.8095981382 1.2716319616 1.4556090488 9.2551771745 1.8768898455 1.2562139073 6.6575997768 5.0753509522 3.7243414716 4.9677522241 4.7336359488 0.4175303060 -0.0197615283 1.9986022626 3.0196652287 5.6017947879 1.5135328562 4.6788743678 10.4818023529 4.5583753591 1.7902134106 1.0070498074 6.3700144091 1.9607650722 3.7600765257 -0.2910541665 4.2118990380 8.5108502009 2.4084873895 3.6078943904 7.4106026453 4.0023737397 1.0384835968 9.5236127792 0.1182588791 3.0508062859 6.7347589413 6.4210869652 1.0816967999 1.9635425372 4.1076957748 1.2417722978 3.0774903857 2.1950073562 4.0563742678