-28925.2039008664
-28923.9448057458
-28925.0818920226
-28924.8757920184
-28924.1512356879
-28924.7072143164
-28923.4934443583
-28924.3188575905
-28924.7224413908
-28924.4751791555
-28925.1875088732
-28924.3010146871
-28923.8726288116
-28924.6522161921
-28924.9572337437
-28924.5039765401
-28924.4100971778
-28924.9546071662
-28924.9147406045
-28924.625459116
-28924.5324154149
-28924.4779596133
-28924.711293981
-28924.6725187313
-28924.4547104909
-28924.5185942159
-28925.3651029266
-28924.748227021
-28923.9874937185
-28924.6902610887
-28924.6815267832
-28925.0365952959
-28924.275123885
-28924.5372470657
-28924.1417975603
-28924.6598604101
-28924.5165534992
-28924.4145282773
-28924.3025722659
-28924.9628761573
-28924.8544366713
-28925.0742437228
-28924.9224041426
-28924.9171783351
-28925.1871974391
-28924.7918752828
-28924.851516075
-28924.9880877637
-28924.7585655728
-28925.009898493