0.0277781841942921 -0.00633082404124449 -0.0842056418836007 0.134322587236139 0.23120684647432 -0.163206859438611 0.0212285593871337 0.829437451043931 0.22432092154752 0.170395660161236 0.152608520576404 0.398447250467171 0.388764223857201 -0.0695976697141921 0.273113235236146 -1.08510216080654 -1.25348104869065 -0.15081312016703 -1.59893300530422 1.38465583595372 0.0511880663758017 0.696416355555215 -0.102359677699878 -0.326024196949656 3.49885101814557 -0.844032567704179 0.17571244163989 -0.0705451207393306 0.408082454583064 -0.135486267925359 0.47062167843752 0.543212624904674 -0.652782443472383 -0.126860478388759 -0.235746383869122 0.158704603020375 -0.229311430203677 -0.265942946446712 -0.522248374785883 -2.47954129634168 -0.942216776028684 0.0415801159393291 0.196794705332776 -0.203169238105167 -0.265410728367462 -0.0475191040613575 0.017308657533874 0.0157045471008104 0.845076435048022 0.412119341569686 0.60459459582449 -0.00710961078619553 -0.299558817350847 -0.289046096179649 -0.252745994962775 -0.0951047996601671 -0.369606172775478 -0.451488567043569 0.205433093268354 0.116169065640228 -0.75952533557567 0.533762025900327 -0.963701931378663 -0.31177103683308 -0.244616942300141 0.126611852841592 0.466393501474589 0.434088378284472 0.593350396182052 -0.179783010060513 0.23890421113934 0.1375287512208 0.683593499387852 -0.828661235400812 1.00550573317739
0.0439002782326398 -0.0585663573034544 -0.0338210448303384 0.218814392753655 -0.318862907016634 0.485484961018859 -0.47058722567297 0.0701797671689855 0.123648400869883 0.0567421605535608 0.339212663797547 -0.381986542317532 0.327094803752553 -0.0834250553673671 0.0259537303342153 -0.839824445335538 -0.317172150451828 -1.82520076515903 1.00930762145655 0.769129172249211 -0.328505824438024 0.0408614929772498 -0.0760094834631486 1.57644537734989 -0.422072590982213 -0.34913994508157 0.236325396001717 0.502912146347194 -0.0664524408429521 0.18757627682387 0.00679387948121043 0.442815469233258 -0.219147864661282 -0.931569329121482 0.0177462590657019 -0.438067158369687 0.142394561438099 -0.345656873429589 0.1941171598848 1.50319597170353 -0.469778871256949 -0.735199626921557 -0.950387994761364 0.417602473336878 -0.256679780765928 -2.4908898827185 -0.0650558183277411 0.626393425597989 2.06409880565397 0.00258190045982119 0.510043611498963 -0.834087802927698 -1.59481075773677 0.75928365200345 0.405642993164743 0.811868598004646 -0.257346724581181 0.940163494105548 -1.72048184441799 -0.435908718381617 -0.758309718629441 2.12318941062099 -0.407939501321198 0.397655093992693 1.46698765882207 -0.707696807733486 0.147605927741636 -0.644359513870338 0.447785666184941 -0.978397063900181 1.75142556918799 0.38774940996406 0.868942430694551 -2.10296692338077 0.466693291948215
0.0439689266515576 -0.011982105868258 -0.000962106305581646 -1.08052200000279 0.390533913248253 0.19273827797223 -0.275985155982631 0.352565424052512 -0.0544248264722654 1.03891540171459 -0.948191759576362 -0.225205894798138 -0.316106685852595 -0.493699374262319 -0.317819811003341 1.84028079162481 -2.61483216052779 -0.475542253123844 0.873262910213256 0.965998182424936 -1.1173054683641 -0.197762725172571 1.99718973712563 0.11424768124108 -0.30546695225089 -0.357855980292478 1.08117351720705 0.609059057045794 -0.347182051036406 0.241800043132864 -0.22370951353184 0.108003503331578 0.524844930526147 -0.595706811011196 0.463241844848768 -0.0480448943860273 0.632475624092067 -0.190351524141468 -0.555228926427299 0.256018750484888 -0.183201032836141 0.197940388309171 0.923836997471546 0.422040709319495 0.0240156337731585 -1.734731404992 -0.201920968165669 0.0292429409080544 -2.48410911585663 -0.816142797690373 -0.225898806741896 1.21921494613317 2.83342132476096 -0.734796992374646 0.0829473446469581 0.339189009660692 -0.355646889598315 0.209233953106786 -0.98497394238676 -0.902351842121566 -1.03859709930777 1.9055916632543 -0.339261514732358 -0.688242051500336 -1.37984993240911 0.828982108909461 0.0326388522079268 -0.161706621519566 0.234385499669378 -0.329856167120257 0.946545740183435 1.19375358179981 1.50894212718815 -2.03243080149785 0.689365108780609
0.0320498127781867 -0.00303749970447396 0.0165208719325105 -0.599761181490275 0.0482081593523673 0.134244168630259 0.010214216248488 1.0352256134753 0.198610674556807 0.722027872235574 -0.522644067357847 -0.197896165357659 -0.44687163948362 -0.949494793984883 -0.374001214247315 0.917880268746876 -1.20239222684557 -2.54084253466396 1.34248848035593 1.54628301042667 -0.943222333955228 0.22485236829622 1.45187652202411 1.56415036838867 -1.03015797176418 -1.27580541167864 1.10749131556069 0.500295793122822 -0.308674916006834 1.07145346673069 0.108272954803585 0.0331849542370704 -0.128011817789185 -0.331036817081569 0.195353088535503 -0.676820960051848 0.340926303168659 -0.0487421772029 -0.115669500554246 1.5406540971856 0.258489322235378 0.209399274954592 -0.70474081195709 0.228584322605551 0.00438707105615703 -2.56668802161105 -0.591433125545835 0.0621882684543707 -0.450426959097085 -0.46330200863164 -0.167708601636481 0.385584028001044 -0.365965749691371 -0.447020506279701 0.189192985655911 0.542782222457976 -0.148574718911981 0.640239066074172 -1.75448749435987 -0.991631296360685 -1.26113059086159 2.58928826382562 -0.489655545300751 -0.0941234100908445 0.797623151193567 0.511541535426359 -0.155751435455995 -0.471029969408462 -0.0775385177227141 -0.778125200449638 1.60657174884747 1.55746884605752 1.46413604978005 -2.37646093879825 0.861137593972948
-0.0196033659190467 0.0210179861470825 0.0361746314474668 0.727262121345417 -0.421538830241864 -0.480353813092485 -0.665561848018784 0.0155050295986374 -0.0926077455608061 -0.515997512011617 0.260616394781096 0.589168499052099 0.813731618392205 0.30609841486086 0.0246689507487018 -0.767174877746612 0.230369438607597 -2.99858119315125 1.06103819031893 1.30184990190753 -0.346396322316508 0.61243285686991 -0.376493383253195 2.96323445649373 -0.93920010224905 -1.27984975486057 0.411648058603857 -0.216687320207937 0.179366491563708 0.532009048671184 1.05014880272933 0.0416688189525374 -0.817698057188626 -0.0844756075759739 -0.0937567709695833 -0.920246967983348 -1.15412930302418 -0.149459435052415 0.535368193214857 1.84275804824007 0.0069949396444827 0.114284962217646 -1.29387717223629 -0.0805611050365617 0.305770085156898 -2.70955489445571 -0.239029680908748 -0.253002076705255 2.22796669537362 0.251966693997457 -0.260005500985783 -0.801817903832681 -2.07579886165124 0.933527994497196 0.18541140908122 0.575321573024999 0.161229425019523 1.11855425252396 -1.20845179964353 -1.72310513961731 -1.18909988748366 1.9610742410203 -0.665536137000462 0.439461209783066 1.52793074265914 -0.98960372545587 0.283871753742495 -0.414123515447828 0.16767646286358 -1.15156128651425 1.59041854447695 1.74855313422114 1.14610386576538 -1.93113658839721 1.02382277684982
-0.0210745503873893 0.0171153106760981 0.0302410426392858 0.664604112586317 -0.163612836417904 -0.690825751731439 -0.548727124114218 -0.273807689841003 -0.258985801999162 -0.456413769713191 0.0384883659861972 0.740570658648869 0.793148662675118 0.519097489490612 0.184085234756209 -0.987242168423062 0.355945137410842 -1.13100815557842 0.974256047289359 -0.0886734455372865 0.283225635852082 0.385594826628739 -0.596852236877408 1.40330917974579 -0.889863229192379 0.0142277062084371 -0.106921326570436 -0.263389585217228 0.202532890401715 -0.309858394180162 0.624157338334589 0.108978208036137 -0.317796156866485 -0.13313422396933 -0.00672985904559048 -0.172694996529707 -0.781237262107243 -0.302079011366697 0.295349152321107 1.13202219814101 -0.327870248065122 0.213588371169675 -0.618778593301781 -0.0235080982714968 0.43742952511532 -1.95013394561442 0.141398773698516 -0.402294904358948 1.95987687889708 0.166769635247389 -0.360534297071004 -0.595979604915584 -1.59615210156259 0.735719760822196 0.120190526015857 0.618697089373702 0.0244259816255659 0.791474104051854 -0.866207549675718 -1.48039415510532 -0.808108104464978 1.10974951429985 -0.370013178195504 0.294966315258303 1.3467068871319 -0.736595992326585 0.369358061448678 -0.542906920896834 0.250946223680286 -0.801047858833959 1.04196138605511 1.31664093652738 0.745480948927863 -0.893268139348664 0.422392178939946
0.0519383138904161 -0.0597719469525384 -0.0327944038687704 0.321006434614078 -0.354453384127842 0.571276458512515 -0.565820580424743 0.12465010214368 0.112621716442443 0.00187561878653611 0.357656719900488 -0.449884456610506 0.404185178425927 -0.117540491357484 0.0495399901014087 -0.998850950305295 -0.291887935034699 -2.5421913346851 1.10688042176538 0.901216186442316 -0.398764524433256 0.189314855882754 -0.158697661045428 2.31073406289233 -0.570804404216137 -0.445796404697425 0.290785703679266 0.490509151109017 -0.0579078981242469 0.496867485939865 0.0822415771940394 0.473784133691036 -0.345503378650211 -0.998217945034226 0.0264934046087786 -0.8777129732643 0.093779396665706 -0.382932964901938 0.295247079578371 1.8095607527142 -0.479928809959634 -0.789238273898637 -1.21918872089448 0.42988256990748 -0.28461480217198 -2.83190437468 -0.110762809817816 0.651337227132545 2.41682363802007 0.0227555367652334 0.582126251133905 -0.988442872978665 -1.96185199932452 0.909882856498047 0.507326213972588 1.02623549880909 -0.204619339538486 1.0752823515791 -2.00814648758324 -0.531888978215623 -0.888664324408059 2.45157953547657 -0.479498150402753 0.513880209652861 1.80299467285532 -0.834648303127101 0.109467488714791 -0.798812542901109 0.436863111381703 -1.13356074547735 2.06437417066019 0.504412641376423 1.0213833154315 -2.45313068121189 0.5596643341979
0.00830054515483641 -0.00351521042488302 0.0152579467125701 0.840401400586667 0.708892627195607 -0.385024042022007 -0.525132893931345 -0.275349065389363 -0.411404318150172 -0.224034500803421 -0.060039855763446 0.412943636817066 0.620742915101525 0.428961601231212 0.978147409912282 1.65789376962872 -2.47610604718377 -0.679533729594924 1.6667725555856 0.660999170707492 0.54728987819006 -0.492626453467773 2.21216856016612 0.690167035442049 0.798479842324032 -1.48299559593907 -0.804120582633533 0.584541287084821 -0.407089237945314 0.673235558546948 0.0968351511931881 0.649965544305106 -0.786598780757776 -0.428037804342929 -0.0849273501678785 -0.451500908332364 -0.215754010242875 -0.225091223656425 0.681658745259176 0.771973067985726 -0.344036307944799 0.0708963332495991 0.981785261894557 0.279342757865205 0.1556334218819 -3.22919720042455 -0.56798596238776 0.0410936634726908 -2.44450720566694 -0.900820236760168 -0.477622274506034 1.17630531343645 3.69634609161741 -0.416108148952047 -0.145674258935159 0.652767273971574 -0.504118764437011 1.78444108781433 -1.08011936545587 -1.38301932963757 -1.3648483245492 1.16159295453266 -1.43797945951128 -1.17463949655942 -2.5749944803001 0.294048689014417 0.631702493771147 -0.285236237484805 0.593075545396198 -1.83860906121356 0.581742642740552 1.97837389969776 0.462886775685752 -0.264473304639469 0.605208574942002
0.0212488710916075 -0.057067662045508 -0.0362219397211779 -0.0558772418972336 -0.212070649758171 0.272277884250888 -0.221113729122125 -0.0834654216661315 0.157031329948027 0.212580756361665 0.277645573545818 -0.216069998658043 0.110925046343423 0.0191855618713261 -0.0293455278711563 -0.261618096054893 -0.344392148438366 -0.121719046055056 0.424836525451749 0.234570619001291 0.0304084213685573 -0.159917391754589 0.107338873507973 -0.0427175713898617 0.0633403791853464 0.0607078280194324 -0.0338709242058817 0.572857171918906 -0.110182512134305 -0.258058405568314 -0.189328739832648 0.351605631738579 0.0949901285184543 -0.789789775241628 0.016957959243972 0.28102785800598 0.264527297777944 -0.238269406096988 -0.0550758294561598 0.499108201186563 -0.415939741782042 -0.552224079716093 -0.155778174915049 0.380898966242543 -0.191734776927151 -1.13926062112899 0.0488645616501092 0.479230241591845 0.695271701019552 -0.0638926518588872 0.272729626842793 -0.314394332032399 -0.418333694697935 0.288132069478328 0.128981380290079 0.219290303702781 -0.380220709579228 0.460455798903476 -0.746081815426031 -0.10123944863162 -0.294265432898866 1.04748694100253 -0.124328200194297 0.00271431220417569 0.384690827224563 -0.305063546373429 0.231788429708747 -0.216519684368482 0.458515388350771 -0.432362911844932 0.708900597611287 -0.00364325129612291 0.325071089500486 -0.951928341868991 0.117190821508315
-0.0496924564400538 -0.00661904455662584 0.0402467425291884 1.33291318291273 0.9320637520038 -0.113686409711127 -0.374332115053109 -0.491818613272119 -0.430415816427463 -0.766704623221516 -0.281105248171127 0.233342146545901 0.605072820765265 0.58284693097745 1.08311906996342 1.6366451556473 0.759950081598337 -1.30629250876326 2.56470467365775 -0.81011382100422 0.512029530554097 -0.186862796065455 0.32026390040496 1.09346081286278 -0.925119205955227 -0.823894669714233 -0.368399554685661 0.467985784839224 -0.460430087885155 0.650461509848523 -0.185903517971889 0.658258633264629 -0.0708564811712011 -0.316570512623111 -0.0901533717518583 -0.437577363470667 0.0233278640330648 -0.149845357437418 0.513824416743104 2.0633249040025 -0.109242774414663 0.0596827297189636 0.359897692257369 0.219480051017992 0.243909632186123 -2.8556238175221 -0.369865339840157 0.0715218823253554 -1.96538880700479 -0.75459704758385 -0.497706950688054 0.727986143621344 0.388186754385705 -0.0123081215805716 -0.126740665043381 0.937734059984372 -0.420080244172498 2.06294360960079 -1.1476197874056 -1.2719739557284 -1.12732813752609 0.84557085793034 -1.33950111713718 -1.06181492018242 -0.392641445420047 -0.17571321297044 0.516810237300752 -1.06823059058412 0.142322056366433 -2.01030775578332 0.481012015161509 2.00425821028251 -0.409222481135429 0.830810162312103 -0.203666232089317
-0.0203767533501502 0.0239585553124853 0.0509738935931856 0.496671567980257 -0.281804587869466 -0.275660425821234 0.81969194665944 1.56931468352868 0.560655751064368 -0.108881277497066 0.396801231074244 0.247853188176238 -0.866408866949174 -0.659952732261817 -0.229615591550417 -0.259842493129626 0.252012973830436 -1.46295025761508 1.2967961441463 0.587712484084565 0.107744593377083 -0.196178669333798 0.0865260612870946 0.932296950939974 -0.835192091164596 -1.28368301058209 -0.177879623374189 -0.582572594411962 0.120003349802478 -0.194931427835034 0.431754846261634 0.0274030604369849 -0.8412539779542 0.495546710928702 -0.288613379741302 -0.252750108725706 -0.255950359176154 0.115473839704821 0.877105679011552 1.32553617753599 0.562939403711663 0.209089714294004 -1.6454516936427 0.210547529032819 0.0776465039996634 -1.50429717461823 -0.609590503794494 0.143076674754162 2.28525881460907 -0.0901328029372013 -0.115006927612107 -0.686438166454916 -3.32969874283035 -0.309366542399676 0.178053172747858 0.35782409862976 0.160495632556634 0.387242388682765 -1.40305824020698 -0.0253991436690257 -0.490336630176081 1.03532485800602 -0.429653741844421 0.537165393395513 2.32625503332233 -0.0798738495168343 -0.286862459393624 -0.226359548190213 -0.334086143854471 -0.631873472042983 1.20854615908076 0.908214725629363 0.116946052613896 -0.707750029541411 0.453274711486348
0.0313419884438023 0.00590736356949329 0.0296034093849185 0.704269271881078 -0.725085169424155 0.399531741219962 -0.48042066174012 0.0749203647270599 0.111463177956887 -0.691461070994158 0.736962117227479 -0.508446185930662 0.301533166447737 -0.0520691829736714 -0.0436305696504498 -0.431841235283194 -0.0902873261573121 -2.45873594031611 1.26786867743305 1.73851863799072 -0.864540704357951 -0.245222951001973 0.388233034218683 2.25826790179578 -0.589532824181711 -2.02317226380037 0.701714625100677 -0.496520130082345 0.0140528712838525 0.390971257669898 0.382923966045526 -0.362145606589197 -1.07833836321676 0.411241824514381 0.0537707381661725 -0.851501618526506 -0.180152477393789 0.286671940747864 0.745680466430036 1.82497733640981 0.498017796899558 0.112101068321438 -1.30696228079053 -0.357352815663931 -0.0665010346675793 -2.48965575383908 -0.234814873675343 0.111080340894084 2.12373396998904 0.14061073098697 0.194180151879687 -0.764150490661482 -1.63459804436856 0.450224613382896 0.293512614282419 0.332861785162012 0.759171294853386 0.618524568440767 -1.68202278899268 -0.525569209912257 -0.763931175675201 1.44743031562581 -0.934149944030387 0.930829880234563 1.37973474704703 -0.170490019598475 -0.500628493699899 -0.106574999153649 -0.614952793775577 -0.982660722068396 1.9284197050912 0.83724922974048 1.03238351751007 -1.75798882083486 1.01561736246277
-0.0250810983723917 -0.0566331458358787 -0.033265429724416 -0.429975129573436 0.0225804447304657 -0.0433786016709014 0.264121835019017 -0.455243147049024 0.260508408504147 0.356156481981443 0.124778914345469 -0.0585830694653632 -0.328034798582378 0.311311838045863 -0.142237210005973 1.5794533093833 0.212194062646113 3.02112615667643 -2.98890022342274 -1.85586603960061 1.66649359103682 0.442433660611187 -0.180209041634096 -2.68722204683168 1.20341681092567 1.81838914507517 -1.17144258854135 0.563954731825169 -0.247710492024555 -0.259747619472021 -0.550667791777107 0.0493042200634028 0.597143542714988 -0.286504304908409 0.0689620933412905 0.68094192206838 0.475165329595254 0.0972730098351992 -0.461766032397128 -2.35606310241308 -0.0767484181297017 -0.0156693230057103 1.48263898411495 0.233949183688466 -0.172030109595919 4.6794847815164 0.129155186773931 -0.299870692003084 -3.95995293493946 -0.233723955167972 -0.265987169398225 1.08166511187735 2.68146355005826 -0.861464895236178 -0.369327465336876 -1.04670224072336 -0.38532203272435 -1.28982305886739 2.51586685146669 1.1592627649422 1.4945277589867 -2.51879636489421 1.09120621366619 -0.963173827062345 -2.43110636580772 0.696616387277754 0.14732696319285 0.740897959912098 0.228348295457362 1.48120893727592 -2.61341342653683 -1.31662628124694 -1.70405121815979 2.71002592031135 -1.22703392391485
-0.0567830410726916 0.0302495272753319 0.059494525064852 0.222896788242705 -0.124413560775124 -0.992667707509215 0.688508674760327 -0.0676323194737148 0.0798561089141927 0.0653905757862839 0.460178119905607 0.833262479239585 -0.450889757426867 0.427938045591843 0.00240603709450375 -1.52392059513157 1.38928741879411 3.19010822505037 -0.71534095059058 -2.87735656997851 1.47544761229049 -0.451585240472458 -1.20552819975021 -2.09358111614259 0.172437372126128 1.92911184570441 -1.18224712977049 -0.553103139432497 0.134591781597962 -0.232979878297754 -0.0271063552855575 -0.0428718374997893 0.348404352847399 0.632598008539276 -0.386117788741393 -0.116326674182537 -0.190232225016457 0.269092289080884 -0.0750651177602086 -1.88895714862081 0.190730761661706 0.140378817601712 0.947726390144747 0.25887601595093 0.0247481406851313 3.52297900906879 0.0611495433141917 0.0259961535144454 -0.0691479840037532 -0.0889490676536904 -0.0563222996243746 0.0999698385469164 1.12844168172959 -0.247824648945902 -0.135644390688035 -0.474041758094615 0.0986076687962559 -1.5904545399026 1.85694821636175 2.07234484344996 1.87563164204527 -3.09259970228734 1.28736791372789 -0.0180756172103972 -0.527886543993552 -0.100556049764641 -0.174226601891105 0.354589652524945 -0.256277146219017 2.28017960293971 -2.86195361312261 -2.58894605017176 -2.66285082967513 3.2581660618773 -1.69562931699847
-0.032876164907032 0.0322341607795501 0.0518233856385201 0.19344970184918 -0.678928749333825 -0.7023406883968 -0.255531012467334 0.164008528989868 0.0874529434975761 -0.299443117768401 0.607806673343365 0.705411869535275 0.328645949487875 0.142966117375381 -0.146537634930387 1.69052593697189 -0.919257607998346 -1.61099095867653 0.683564188826965 1.90483061711199 -1.49103003205428 -0.353009710449103 1.10643022183457 0.792545996405667 -0.0770278968988538 -1.5214374249821 1.30172031837519 -0.351537240429844 0.288409234255832 0.422511992285323 0.670436657092495 -0.111630299575975 0.0327326974247994 0.622139794726919 -0.439497462318899 0.00122461580264174 -0.772332508021857 0.209892669396177 -0.325254151950934 0.702289780580524 0.285576651367378 0.00628325865735015 -0.548232187011534 -0.06107498136106 0.075211927674823 -1.45020530583323 -0.454929215515321 0.0556754104034116 -0.482269541067602 0.120021604625486 -0.178134676675936 -0.29589525435025 -0.0740104517886704 0.3851803650134 0.0154386951713685 -0.102664353266985 0.107281023716751 0.620653440757767 -0.45617440013262 -0.76082425622126 -0.715500358904172 1.17747799298208 -0.451383923199002 -0.00619841229688998 -0.568280867767905 -0.412404476762869 0.0999397566554805 -0.0275493561312329 -0.0265383988908408 -0.640779511679285 0.969232114309384 1.02515512181923 0.653753805744561 -1.59345141619813 1.05522852861906
-0.0671258124127859 -0.0516305530011106 0.0224423765620805 1.09094576105059 0.628257474426281 0.921347656677681 0.382403832144887 -0.143379293439803 0.0733800176194331 -0.645279196995689 -0.318662875294095 -0.180741259713346 0.0169638727781858 0.14255551241279 0.326818153195416 -4.03357643590239 3.43948967615562 2.2048907993201 -3.25733328199387 -0.472393938930405 0.527141438682602 2.10840763196773 -2.50831269717372 -1.78622466115527 -1.24507920212363 1.72565952928752 -0.95803548005084 -0.515415157446641 0.198181043440658 -0.690069076462245 -0.471646776737989 0.0816895616306819 0.437566307732789 0.221864490857106 -0.309196592568572 0.125440715957058 0.544635215548389 0.335848119940027 -0.851056560799365 -0.588406167358873 -0.237099811873554 0.0562071142622953 -0.658894466747714 -0.36275161529103 0.336138397336874 3.77350074383659 1.05482692251288 -0.472257156312936 1.43778688398406 0.652685255823129 0.0886773021900347 -0.0810637554447424 -2.22745993120251 0.257820835759026 -0.268080046289576 -0.391922822457968 -0.280804172146585 -0.953533223632604 0.82157270764964 2.0075114254307 1.85038522182507 -2.38185819576425 0.986932607762474 -0.270158525010667 1.76297907238084 -0.468291745957247 0.182016526222081 -0.417843642688732 -0.11637809621918 2.0421217985235 -1.6919194741649 -2.31094900700549 -0.595439673530838 0.670687082410944 -0.257507932666056
0.0977556056490893 0.16105150477274 -0.17270965181015 -1.05244094001267 -0.0593058061903739 -0.251383310991748 -0.0719692540441454 -0.819610442731361 -0.999785031600907 1.18714970674399 0.00115185362079256 -0.165549647428045 0.557197361989975 -0.249630076652421 -0.0694359474089514 0.267009953707045 -2.35281940034167 -1.82028044758289 2.72350929253939 0.776787456166382 2.21137743213237 -1.39682820335755 2.73088912612814 1.75897406705693 2.31243176143208 -1.78431124717181 -0.392960519157414 0.347024185383913 -0.573888955084139 0.803044833626972 0.645306964895476 -0.126302549291187 -1.70628267743989 -0.176739596821825 0.242683730832565 -0.742784891546696 -0.404517879003005 -0.422395778482511 0.712923343537832 -1.12008945742793 0.278768630826091 -0.0277154493095882 -0.164070749654206 0.120778537004864 -0.314645271571214 -2.93690020308836 -1.15520299514927 -0.0281211691786977 0.457732230732705 -0.338733924636405 0.631679096744474 0.611504689108512 3.62270973514532 -0.248432457419017 -0.213115031322381 0.0362700193254387 0.446127819723586 0.490904329460615 -0.337782616958519 -1.35180203963263 -0.851437083870519 2.25473289388679 0.139311553231196 -0.164484439938995 -3.17414682487653 0.767306518160417 0.0893411606830897 0.072726957754073 -0.141552525588078 -0.908742058615133 0.465542723878338 1.40097616194332 -0.32553234516917 0.630037705334845 -0.438279788491204
-0.0283564249963373 0.010437902107883 0.0228046448102271 0.31566934143095 0.0588841454899052 -1.00672212145417 -0.307952179281823 -0.574109298511152 -0.383515062356732 -0.226326895196945 -0.145417148751947 0.955883467817351 0.648930161597308 0.730364669926243 0.317390436997376 -1.33342483217732 0.622639874033268 1.36418780848853 0.518631862948814 -1.95597548897701 1.14866828273274 0.263902520032737 -0.725719974466507 -0.889206312674271 -0.655278469131012 1.77620713419694 -0.80786256424001 0.0167805532175552 0.122556196811596 -0.591783823835737 -0.0304526443200698 0.112656169206994 0.592753900556999 -0.247102426441258 0.109558248609465 0.476678680133643 -0.176631353434692 -0.37314452311685 -0.281350017065546 -0.350638640339516 -0.62710099282219 0.326024454059839 0.547175721268713 0.0339984508567552 0.5102130471097 0.0360363061688984 0.539194506961427 -0.546082745879876 0.743080825367574 0.0426741197688988 -0.444349645696488 -0.0497323085184518 -0.143061248143169 0.216220665225406 -0.0897034289312362 0.276568538988341 -0.248804495854125 -0.0103132036690248 0.126464271596428 -0.657875281981459 0.101808690577253 -0.57636441192811 0.322700533611266 -0.0864913514123609 0.361213325064868 -0.203774989696816 0.472633308510976 -0.423658703702452 0.38121161222533 0.226057443724938 -0.419102711255924 0.103309699826848 -0.298302319885487 1.04023669094612 -0.676719915749845
0.0578539049857722 0.096667001133367 -0.172931537898263 -0.833830949854668 0.134519276526296 -0.0104273605903713 0.383002384651406 -0.26168108804978 -0.375886089000447 0.283790764034783 -0.0703708000351125 -0.285964630633846 -0.099879849982792 -0.566548973573785 -0.17750192851505 3.17959087589587 -0.229755716600268 -0.0419755514011101 2.60784133464624 0.19807871358774 0.273334349993709 -2.27920746933698 0.827056610747382 1.60655375113464 -1.75219792817837 0.350156301635809 -0.832056889590501 -0.283748597964736 0.213441047034694 0.0607404810127004 0.203620723586888 -0.0314188643885829 0.293801349018167 0.22890031102072 0.159672622860171 -0.170541441635118 -0.764157946856795 -0.442620065494016 0.947036049302821 1.55947559103749 1.19067083070309 -0.39176778501749 0.376567688096143 -0.11844371943111 -0.428573107744378 -1.51533902854648 -0.931352585237034 0.21280367089051 -1.70734351405582 -0.306428287225922 0.279678800874664 -0.358505954835639 0.502455775771992 0.130699904754673 -0.303710632589365 0.136305420969074 0.511242773393466 0.207349592574021 -0.206588289321528 -1.00058875803363 1.3068738348875 -0.858924646626037 1.02760718163653 0.781688747588965 -0.295127009122811 0.56820604870459 -0.0794539885876481 -0.674838897649462 -0.821396587174139 0.0646742668158535 0.0914258100485776 -0.120969569870991 -1.26385415903237 1.09364953173726 -1.0811236378315
-0.00798018586655348 -0.0591350850287207 -0.03822688492987 -0.358192537522303 -0.0646830085620828 0.0494199196458485 0.0753415112071622 -0.291680961337212 0.20747840477581 0.382519017506966 0.181507705169503 -0.0581166715930155 -0.162742518447729 0.174217345924509 -0.0873290163892676 0.928222011646237 -0.21612013514377 1.85200655864041 -1.32846080587003 -0.851903481742867 0.914352459923015 0.0697105410846225 0.154770817217222 -1.75027577244867 0.800594316470772 0.958865431722251 -0.654881748118314 0.660230154149503 -0.188907079132179 -0.338246700839217 -0.416996207524863 0.210290161739423 0.430987372364744 -0.603941278848946 0.043355204644229 0.630774326009749 0.399994282439562 -0.0785697866675799 -0.322172943515314 -1.14991038202784 -0.276399874708153 -0.248261222036997 0.894445189767411 0.321008748605727 -0.146433762416369 1.8846153289569 0.142616961746578 0.0709097029791261 -2.04463350790331 -0.168944530287184 -0.100088623451561 0.53056177544988 1.41424896093131 -0.410325483821411 -0.203797615392938 -0.540277197942935 -0.469198830683622 -0.447059329917366 0.982332649474617 0.534348751338419 0.600416555347285 -0.803007809760589 0.475385158801901 -0.634155582029178 -1.31039161641422 0.309514637865206 0.270449059517697 0.34242371287569 0.409486276183405 0.570951728351118 -1.07103386291169 -0.688873771220489 -0.710181263433869 0.995416472477941 -0.572232137063516
-0.0563984042386055 0.0282525524823194 0.0583380434607616 -0.119589916627872 -0.322651425566272 -1.10970966222145 0.446796820420306 -0.177836171753227 0.0527847206135521 0.176803617257445 0.526014781859765 0.938533672654163 -0.219440713159961 0.456647482869731 -0.0404938254152557 0.325823136786383 -0.80982174383609 2.79468021946466 -2.22817135507946 -1.44533461052245 0.165351929697154 -0.582908380311238 0.0926308854772952 -2.38821858747657 1.24660540817118 1.5205537372824 -0.354599165601724 -0.366001230896654 0.178071170460683 0.108280153888715 -0.0574679826007701 -0.124804111143424 0.790074910434811 0.629238349775237 -0.427886880665383 -0.0530024929387332 -0.19590510409886 0.340123090956303 -0.634335559157427 -2.65853523524991 0.0695614171783591 0.1072465709522 1.56103753540051 0.207063428940105 -0.0213810257257788 4.12589184718489 0.151362821738739 -0.0289189820772065 -2.12546586418316 -0.169603760796941 -0.0462199263055841 0.740880733529823 3.34168496246154 -0.59064842526667 -0.1948982606214 -0.623206801987252 0.0443849309279956 -1.46866813097954 2.06580318905849 1.80134068304671 1.51428384835458 -2.58378456324377 1.09279721147991 -0.490616880275783 -2.221298542772 0.237918964917269 -0.0881761944429533 0.37774705250654 -0.187062570677812 1.78614675676976 -2.33641551354252 -1.92148364367867 -1.70126362955339 1.88712780966725 -0.815658144995017