10.410488 0.000000 0.000000 0.000000 6.227148 0.000000 0.000000 0.000000 4.951635