-0.144512 6.237024 5.005887 5.110284 6.259734 2.290427 10.405294 2.964564 5.094577 3.019534 4.582974 4.766297 2.279194 1.523974 2.478607 7.446904 1.589444 0.126244 8.103954 4.579554 2.590497 1.133234 4.789714 2.244337 4.108184 1.598874 4.688717 9.348824 1.605174 2.771647 6.344494 4.588854 0.262102 1.162944 4.609044 3.789867 4.079164 1.660224 1.280977 9.204494 1.522844 1.159157 6.542534 4.619494 3.727177 4.840064 4.773844 0.597149 0.412362 1.638234 3.201987 5.496204 1.515284 4.198607 10.000934 4.777534 1.794507 1.698574 6.021114 1.547997 3.306654 0.356259 3.954767 8.810224 2.864974 3.369307 6.995604 3.332074 0.998977 8.528844 0.400121 3.477737 7.116094 5.756524 1.007967 1.857684 3.554104 1.596047 3.127124 2.755864 4.149127