0.359361617525371 -0.649015265067952 -0.388172870435812 0.383675242000873 -0.182149195076618 0.709288319767572 0.684856424607792 0.983824145647433 -0.243791875722212 -0.276460295601208 0.647745397873065 0.400049818239136 0.52097645070953 0.868484003237883 -0.146351744267924 -0.652645403744731 -0.713743010801914 -0.210518732692299 0.599016847509875 0.770377956409075 -0.924912746478108 -2.29362338019953 -2.61569682207394 0.348380184490177 -3.90700572069011 -0.372806166115743 0.788739223033021 -0.809482872614616 -3.0011993461469 -2.33853590122348 -0.143483165953821 0.14877629329562 2.40748153951304 0.220474038986292 1.11963488662401 -0.170468679453269 -0.91802065090691 -0.407213422163806 -0.109963197148025 0.0609543966851333 0.224668791625406 2.75061667626568 -0.0576466741781028 -0.0812702149218621 -1.5823555691314 0.171623104175893 -0.442533162252091 0.0464922059896063 0.67445143260336 -0.995771798751141 0.225974140025577 3.13005679932867 0.24782850559865 -1.13057595336044 0.636450033304168 -0.288904942689066 0.143121411926041 1.26015228661447 1.28011483545946 -0.227208268904997 0.42758888996304 0.327781802162097 0.618112935037443 -1.98729125218213 1.9733911043471 1.33076502733199 -0.227557938754167 0.256614474779392 -0.652463883955383 0.81331587122595 1.24825836953905 -0.542853956199092 -0.0146033441861107 0.478730933616047 -0.190696566007339 0.0889889197320884 0.116143354621907 -0.375324303250127 1.25587808692874 -0.942071765885352 -0.534826719169011