6.27910157559732 -3.09346931484437 -3.42605733703619 -3.09346931484437 6.58163646325374 2.09971233287364 -3.42605733703619 2.09971233287364 4.21946008877089