2.4583944015 0.1059170646 -0.1236419915 3.1675231182 3.7561184074 4.9566253877 1.891604411 1.5636819759 2.2787641783 7.4298067855 1.6017930362 0.3178428103 8.072038956 4.791482637 2.9149756918 1.0553101102 4.5938350133 2.4052639512 4.4315453558 1.794277148 3.8716798416 9.2047727946 1.5793803784 3.1017948424 6.1788666314 4.5911906627 0.5674276013 1.6611983392 4.4995494356 3.8381913572 3.6645582998 1.8933354981 0.3405137145 8.9253868208 1.546033559 1.5886664163 6.5537064532 4.678942867 4.0186286397 4.6288340061 4.8121706941 0.6970770624 0.3269590114 1.6502559431 3.4080701449 5.8660407514 1.323507957 4.0751754715 9.9325284257 4.4713800108 2.3704665586 1.4682226781 5.9287205978 1.7225012794 3.5766127299 0.8151989197 3.0085337512 8.4439449321 2.7460765421 3.831083795 6.6401748952 3.2213779273 1.1681490116 8.5866611239 0.319374284 3.8251742381 6.9897903686 5.6828378166 1.3644287502 1.7229459886 3.4259174079 1.5403780368 4.2073055225 3.2324122165 3.325215151