-0.318135285198143 0.0835476969247596 -0.245996852653443 -0.0210503820301673 -0.0311959498597375 0.0235044987289318 0.0425825885436751 0.0166424850491701 -0.0336577798639984 0.0470182534244593 0.0156428406568394 -0.00549264484397133 0.0357881948420982 -0.00655425279045626 0.00589399383996623 0.0754968057578226 0.0333993841298697 -0.0764172602137238 -0.0730236629055004 -0.110594145537629 -0.0160249063890933 0.167502399269545 -0.00673885790200292 0.0370171815178546 0.00482261570651922 0.0300322691705172 0.00780149428922071 0.0271024986328093 -0.0563030163606337 0.058070134649854 0.00577418049458915 0.0185157898440573 0.0285158333099291 -0.0410553540553921 0.00351983840818085 -0.0238053176432906 0.0163717480262472 0.000309817770771214 -0.00352343795074582 -0.000969819611078025 0.0306861003664269 -0.00502856096327254 -0.0934814059633626 -0.0112125750899026 0.000564871072518139 0.0520630123292742 0.00244331807106958 0.0646902076472127 -0.0555720521097602 -0.00374403848794226 0.0074510531095019 0.000442743735492142 -0.0908393417206696 0.0349847255195588 0.111056429647045 0.0107610896081812 0.0504514457008975 -0.01858803780554 0.00855919799914832 0.0321351733590133 0.00813470908666427 0.00492134601687287 0.00674605698713288 -0.0131123622336607 -0.00585799841431647 0.0137525665898601 0.00294751114034954 0.0127423806800177 -0.00666866682198588 0.024184298053346 0.0341912834941646 -0.0200558798415009 0.013700373222668 0.0171253379732434 0.0650923279737573