-6.84151761376035 2.76737788991182 -4.70753957301968 2.76737788991182 5.68061757474319 2.76737788991182 -4.70753957301968 2.76737788991182 3.71248239671926