10.288285428 -0.003934909 -0.011330586 -0.002351462 6.080162493 0.115453255 -0.005386283 0.091841656 4.922758081
9.951863340 -0.105843034 -0.079416455 -0.063250731 6.076105449 0.042860443 -0.037752637 0.034094960 5.036912335
9.885928272 -0.096357345 0.008584705 -0.057582178 6.214268771 -0.021280986 0.004080958 -0.016928764 5.014656993
9.937877098 -0.102281497 -0.209921912 -0.061122392 6.114156678 0.037611195 -0.099791732 0.029919247 4.971861791
9.940007368 -0.113807696 -0.192502799 -0.068010332 6.094826326 0.054682621 -0.091511113 0.043499358 4.996585767
10.357333112 -0.000175575 -0.008983820 -0.000104922 6.176103198 0.009510273 -0.004270688 0.007565306 4.927954725
10.275892558 -0.017557061 -0.018712233 -0.010491923 6.071988948 0.076251800 -0.008895337 0.060657377 4.929267975
10.367946855 0.000017123 -0.007539818 0.000010233 6.185320472 0.007432763 -0.003584245 0.005912672 4.930600029
10.000093655 -0.101608412 -0.166642437 -0.060720163 6.059651547 0.044100778 -0.079217731 0.035081631 4.993322485
9.992870755 -0.112529220 -0.066088966 -0.067246328 6.134476267 -0.000335683 -0.031417075 -0.000267032 5.033765438
10.249087410 -0.033392736 -0.045158348 -0.019955162 6.076795473 0.044324697 -0.021467172 0.035259756 4.952511329
10.249099718 -0.041659602 -0.112550598 -0.024895358 6.053600804 0.106381126 -0.053503796 0.084624888 4.932389796
9.995579279 -0.077331973 -0.151932393 -0.046212808 6.128826804 0.012505044 -0.072224937 0.009947610 4.969352477
10.112029556 -0.060839145 -0.160314189 -0.036356860 6.120408533 -0.004187731 -0.076209437 -0.003331289 4.976144658
9.941071542 -0.106764536 -0.138213282 -0.063801411 6.184793647 0.011725595 -0.065703207 0.009327568 5.004346718
9.887383866 -0.130219545 -0.104402932 -0.077817888 6.215462592 0.029963383 -0.049630595 0.023835506 5.032955304
10.251664942 -0.023150774 -0.118865214 -0.013834670 6.012858625 0.024876596 -0.056505610 0.019789029 4.984286690
9.900788358 -0.119413510 0.013564005 -0.071360310 6.188308711 -0.029357256 0.006447995 -0.023353339 5.048217851
10.280929333 -0.007004984 -0.010889176 -0.004186108 6.085555029 0.120847667 -0.005176447 0.096132845 4.942762437
9.934522839 -0.079800717 -0.020543853 -0.047688104 6.217187521 -0.009100972 -0.009766044 -0.007239712 5.014882125
10.141830204 -0.039062478 -0.126561327 -0.023343343 6.045647582 0.015994157 -0.060164153 0.012723157 4.987124244
9.918634472 -0.084063624 -0.010539563 -0.050235574 6.216708808 -0.011518188 -0.005010250 -0.009162578 5.012507095
10.222832480 -0.025943589 -0.117521370 -0.015503628 6.020317295 0.021699299 -0.055866779 0.017261528 4.989589031
10.344668176 -0.022637179 -0.136813959 -0.013527750 6.002536359 0.066398865 -0.065038004 0.052819487 4.930607524
10.050806676 -0.062285479 -0.130162913 -0.037221175 6.175856753 -0.003066504 -0.061876259 -0.002439366 5.002966898
10.068049950 -0.060155033 -0.030653288 -0.035948042 6.026370757 0.040179942 -0.014571822 0.031962654 4.985972471
10.264422842 -0.025929965 -0.030332720 -0.015495485 6.073868648 0.059233474 -0.014419432 0.047119506 4.941245309
10.280095355 -0.007460946 -0.010805727 -0.004458586 6.086219660 0.120867278 -0.005136778 0.096148446 4.944481451
9.976003170 -0.116662035 -0.049568322 -0.069716057 6.144096494 -0.006529088 -0.023563566 -0.005193810 5.037139870
10.170740281 -0.057744683 -0.120045158 -0.034507641 6.066844976 0.081612655 -0.057066526 0.064921872 4.957376912
10.147005759 -0.062580574 -0.079502851 -0.037397520 6.065770822 0.055181137 -0.037793707 0.043895922 5.012818546
10.069092831 -0.062755299 -0.150868491 -0.037501934 6.161165534 -0.003934410 -0.071719183 -0.003129775 4.995183947
10.052161112 -0.066021426 -0.036019438 -0.039453739 6.027081379 0.040999238 -0.017122758 0.032614393 4.994244168
9.947171614 -0.107970796 -0.081818097 -0.064522260 6.080847664 0.042777281 -0.038894318 0.034028805 5.037353061
10.067614934 -0.088187625 -0.127023885 -0.052700036 6.054882809 0.042629134 -0.060384042 0.033910956 5.005319325
10.288466714 -0.005055247 -0.010863880 -0.003020965 6.078945831 0.109149273 -0.005164422 0.086826916 4.917204877
10.010499723 -0.107675535 -0.080847654 -0.064345815 6.125279392 0.006684314 -0.038432994 0.005317290 5.029765658
10.063986381 -0.061654690 -0.031916971 -0.036844221 6.026363897 0.040386830 -0.015172546 0.032127231 4.987996513
10.288634990 -0.004062181 -0.011210357 -0.002427518 6.079822163 0.113874357 -0.005329129 0.090585662 4.920639683
10.337134027 -0.022094092 -0.135486797 -0.013203207 6.002119055 0.059922441 -0.064407103 0.047667571 4.936976667
10.300503841 -0.020992283 -0.125629241 -0.012544777 6.007415304 0.036853066 -0.059721063 0.029316164 4.962610381
10.326026956 -0.029939497 -0.109683106 -0.017891542 6.043460701 0.118223209 -0.052140661 0.094045121 4.913884101
10.290001322 -0.005061256 -0.012466060 -0.003024555 6.119359004 0.020742585 -0.005926059 0.016500474 4.923135045
9.945596034 -0.112764352 -0.190542792 -0.067386840 6.087723185 0.053061509 -0.090579374 0.042209783 4.994451021
10.319210593 -0.002211875 -0.011794710 -0.001321794 6.143253937 0.016200376 -0.005606916 0.012887202 4.923491345
10.223540237 -0.015122003 -0.014023820 -0.009036757 6.074749699 0.029834404 -0.006666581 0.023732904 4.928930730
10.357576048 -0.023569214 -0.136106222 -0.014084725 6.008529335 0.081258728 -0.064701563 0.064640327 4.917209726
10.361969480 -0.023810205 -0.133032309 -0.014228738 6.014775940 0.091339365 -0.063240300 0.072659351 4.910612931
10.001968871 -0.084637619 -0.057308254 -0.050578588 6.042343340 0.042978096 -0.027242939 0.034188551 5.023643056
10.059985754 -0.063132430 -0.033235635 -0.037727304 6.026480866 0.040593044 -0.015799407 0.032291271 4.990048918
10.154853311 -0.036643454 -0.124207058 -0.021897759 6.041566472 0.016489448 -0.059044992 0.013117155 4.989340942
10.104147189 -0.061617614 -0.163302172 -0.036822065 6.126173733 -0.004339193 -0.077629851 -0.003451775 4.977645199
10.317717495 -0.021143308 -0.130129079 -0.012635028 6.004847216 0.046000849 -0.061860175 0.036593114 4.951288935
10.061259116 -0.062551712 -0.142563436 -0.037380273 6.167996093 -0.003476599 -0.067771164 -0.002765592 4.998999192
10.271509220 -0.021130754 -0.023189436 -0.012627526 6.072386444 0.068747665 -0.011023689 0.054687929 4.934286275
10.239822714 -0.036638419 -0.053947939 -0.021894750 6.077966710 0.037162602 -0.025645528 0.029562396 4.957178070
9.987176987 -0.113990597 -0.060727527 -0.068119632 6.137591943 -0.002454182 -0.028868378 -0.001952272 5.034900327
9.917267783 -0.120066478 -0.124892537 -0.071750517 6.210358228 0.014866736 -0.059370852 0.011826307 5.025803831
9.905183337 -0.120103103 0.011065212 -0.071772404 6.186433553 -0.028725456 0.005260131 -0.022850750 5.049371657
9.966977064 -0.099063583 -0.072182868 -0.059199399 6.063139370 0.043079943 -0.034313967 0.034269569 5.035244223
10.148735145 -0.055337361 -0.136045520 -0.033069049 6.102921579 -0.002331193 -0.064672706 -0.001854436 4.971066433
10.016564062 -0.105889421 -0.085269215 -0.063278451 6.122144863 0.009328485 -0.040534895 0.007420696 5.028129138
10.362336070 -0.023831604 -0.132369598 -0.014241527 6.015830717 0.093005404 -0.062925263 0.073984665 4.909796270
10.396567830 -0.000105382 -0.002042654 -0.000062975 6.210125273 0.001603164 -0.000971028 0.001275298 4.941977279
9.942771215 -0.100888628 -0.209421110 -0.060290027 6.110438967 0.033124390 -0.099553663 0.026350048 4.969160248
9.929258457 -0.113728847 -0.195107925 -0.067963213 6.111126129 0.053995974 -0.092749526 0.042953139 4.992538540
10.313006984 -0.021038876 -0.128787485 -0.012572620 6.005668448 0.043176466 -0.061222414 0.034346352 4.954503236
10.073939398 -0.085663392 -0.114188867 -0.051191580 6.092594086 0.039578232 -0.054282589 0.031484001 5.006590809
10.018677917 -0.068025544 -0.149614469 -0.040651379 6.112412795 0.013625531 -0.071123052 0.010838943 4.964018509
10.039268929 -0.062292423 -0.116201822 -0.037225324 6.183397997 -0.003080647 -0.055239499 -0.002450617 5.006442209
10.358819135 -0.024539133 -0.122640272 -0.014664339 6.026740914 0.110591234 -0.058300180 0.087973978 4.906406775
10.168534115 -0.054341864 -0.064986792 -0.032474150 6.072301205 0.061981620 -0.030893129 0.049305623 5.009600966
10.361497770 -0.023785763 -0.133657805 -0.014214132 6.013711896 0.089664363 -0.063537645 0.071326907 4.911516204
10.065596910 -0.081564728 -0.101133981 -0.048742259 6.063824519 -0.004174196 -0.048076616 -0.003320522 5.050021479
10.197042823 -0.042152100 -0.045057711 -0.025189670 6.080439066 0.073874570 -0.021419331 0.058766320 5.002266014
9.928356760 -0.111594956 -0.198235121 -0.066688021 6.116960588 0.050615076 -0.094236118 0.040263675 4.986299677
10.351216940 -0.023130466 -0.137146457 -0.013822533 6.004409904 0.072949776 -0.065196064 0.058030657 4.924362316
10.028271545 -0.091379707 -0.134939121 -0.054607592 6.081524775 0.007588631 -0.064146751 0.006036664 5.033732800
9.902956975 -0.119766900 0.012349307 -0.071571492 6.187389123 -0.029063017 0.005870558 -0.023119276 5.048845464
9.992574285 -0.067300857 -0.067092432 -0.040218314 6.207268758 -0.005589554 -0.031894098 -0.004446422 5.017577887
10.241106029 -0.024035836 -0.118146317 -0.014363573 6.015192124 0.023608364 -0.056163864 0.018780165 4.986723594
10.067756173 -0.054036939 -0.140090587 -0.032291930 6.079825127 0.015155979 -0.066595632 0.012056397 4.966900286
10.232346784 -0.038799066 -0.061039856 -0.023185931 6.078746181 0.031942362 -0.029016852 0.025409759 4.959909572
9.882123579 -0.132488130 -0.101584351 -0.079173571 6.182196197 0.040146510 -0.048290711 0.031936059 5.032096124
10.177410180 -0.025203467 -0.016276966 -0.015061338 6.053531649 0.034499223 -0.007737671 0.027443711 4.941042480
9.937242812 -0.102602356 -0.209764480 -0.061314134 6.114735824 0.038356940 -0.099716893 0.030512478 4.972548194
10.253258841 -0.019042756 -0.015664209 -0.011379759 6.092379952 0.106347313 -0.007446381 0.084597991 4.978170315
9.989381530 -0.080185871 -0.151888919 -0.047918268 6.133612321 0.012236377 -0.072204270 0.009733888 4.971501561
10.010984362 -0.094604877 -0.152413347 -0.056534921 6.089706704 0.013480775 -0.072453570 0.010723792 5.020073412
10.356488426 -0.023500348 -0.136437402 -0.014043571 6.007583764 0.079585713 -0.064858997 0.063309464 4.918548632
10.032067821 -0.101003440 -0.095226584 -0.060358638 6.113965297 0.016719199 -0.045268385 0.013299919 5.023283322
10.274891311 -0.018417541 -0.019728517 -0.011006137 6.072005256 0.074395565 -0.009378453 0.059180765 4.930467498
10.143127083 -0.056317665 -0.140315602 -0.033654869 6.105260675 -0.002956459 -0.066702599 -0.002351827 4.972014634
10.072230758 -0.079132054 -0.094839449 -0.047288518 6.060760688 -0.006161638 -0.045084350 -0.004901508 5.048952789
9.972091892 -0.071224235 -0.048962114 -0.042562885 6.213483103 -0.006544531 -0.023275389 -0.005206095 5.019058454
10.270243737 -0.022071114 -0.024481041 -0.013189475 6.072612556 0.066847949 -0.011637687 0.053176728 4.935626623
10.286877772 -0.004186333 -0.011428231 -0.002501711 6.081110748 0.118051286 -0.005432701 0.093908358 4.928034165
9.949610748 -0.101686905 -0.142211169 -0.060767070 6.173953264 0.011490044 -0.067603705 0.009140190 4.995977281
9.944884142 -0.109007164 -0.083001404 -0.065141583 6.083289144 0.042735910 -0.039456834 0.033995895 5.037583516
9.930621546 -0.114073450 -0.194618620 -0.068169144 6.108498950 0.054769936 -0.092516922 0.043568816 4.994509984
10.014830093 -0.064012662 -0.088933147 -0.038253322 6.197255475 -0.004283044 -0.042276639 -0.003407109 5.013007586
10.282859713 -0.010998375 -0.012524229 -0.006572518 6.074204214 0.091860827 -0.005953712 0.073074167 4.920392587
10.099269988 -0.078815001 -0.108329181 -0.047099050 6.056258847 0.045445443 -0.051497038 0.036151296 5.011037289
9.881702896 -0.132278849 -0.101849585 -0.079048507 6.186805028 0.039519733 -0.048416797 0.031437466 5.032481735
10.341006513 -0.022366152 -0.136265344 -0.013365787 6.002151527 0.063150515 -0.064777205 0.050235465 4.933789427
9.917812763 -0.120958865 -0.094862907 -0.072283799 6.116629315 0.042386510 -0.045095501 0.033717951 5.040484866
10.340883093 -0.027598712 -0.112900423 -0.016492712 6.037466361 0.118425981 -0.053670094 0.094206423 4.910370512
9.901817354 -0.127557536 -0.097788727 -0.076227098 6.137229132 0.042395562 -0.046486364 0.033725153 5.038382038
10.136836713 -0.036490866 -0.018932624 -0.021806574 6.039519652 0.037066368 -0.009000105 0.029485844 4.956409614
9.882924993 -0.115160418 0.021739500 -0.068818705 6.196786668 -0.030431137 0.010334426 -0.024207598 5.038159977
9.879689487 -0.100223195 0.013108257 -0.059892371 6.212901828 -0.024197076 0.006231344 -0.019248479 5.017489617
9.956813265 -0.100018164 -0.202670687 -0.059769847 6.104870942 0.026850540 -0.096344678 0.021359277 4.974194081
9.928160464 -0.112760560 -0.196473670 -0.067384574 6.114780565 0.052265250 -0.093398768 0.041576369 4.988958021
10.261589615 -0.039495123 -0.111218421 -0.023601887 6.052825294 0.109038122 -0.052870512 0.086738496 4.929501991
10.361573259 -0.024119811 -0.126113141 -0.014413756 6.023453764 0.105473286 -0.059951097 0.083902713 4.906365091
10.269745992 -0.038165405 -0.110399751 -0.022807261 6.052371467 0.110582691 -0.052481336 0.087967182 4.927606948
10.064062301 -0.089444178 -0.110719458 -0.053450939 6.097140215 0.034116287 -0.052633317 0.027139090 5.010918312
9.943213676 -0.113259296 -0.191432559 -0.067682614 6.090640180 0.053798767 -0.091002347 0.042796263 4.995430548
10.276486249 -0.009433151 -0.010581592 -0.005637156 6.088934237 0.120305584 -0.005030230 0.095701624 4.951310802
10.274816736 -0.006933762 -0.012675993 -0.004143546 6.107767382 0.022974942 -0.006025856 0.018276286 4.923586324
10.015803999 -0.093757361 -0.147339045 -0.056028454 6.087511220 0.011850618 -0.070041371 0.009427022 5.024043422
9.934509016 -0.104550264 -0.208066546 -0.062478184 6.117207727 0.041918268 -0.098909737 0.033345471 4.976288669
10.255105000 -0.022895354 -0.119147471 -0.013682033 6.012217983 0.025335509 -0.056639788 0.020154088 4.983343145
10.227863804 -0.028639105 -0.026714300 -0.017114441 6.087020712 0.090345151 -0.012699324 0.071868465 4.991849641
9.878161018 -0.113083998 0.022767680 -0.067577858 6.200328097 -0.030199154 0.010823197 -0.024023059 5.033521091
10.028933695 -0.102030835 -0.093357212 -0.060972599 6.115640557 0.015152580 -0.044379731 0.012053693 5.024335433
10.162020608 -0.059684422 -0.120663061 -0.035666809 6.068864306 0.078331703 -0.057360262 0.062311914 4.961432215
10.287002174 -0.006850092 -0.010811199 -0.004093546 6.077538404 0.103338599 -0.005139379 0.082204595 4.916566576
9.885125756 -0.130624452 -0.103325545 -0.078059856 6.212506145 0.032159016 -0.049118432 0.025582105 5.033423434
10.107684374 -0.045952172 -0.022100714 -0.027460555 6.031712372 0.038367189 -0.010506138 0.030520631 4.968371273
10.003931990 -0.095770579 -0.160038978 -0.057231533 6.092690513 0.015768383 -0.076078608 0.012543556 5.014111103
10.328868686 -0.021592871 -0.133372857 -0.012903682 6.002924297 0.053565389 -0.063402188 0.042610614 4.943332707
10.040814139 -0.070198222 -0.040477952 -0.041949750 6.028857196 0.041575710 -0.019242226 0.033072970 5.000744194
9.912660660 -0.085843452 -0.007029998 -0.051299182 6.216397983 -0.012769875 -0.003341889 -0.010158280 5.011954204
10.015694182 -0.079449707 -0.051339867 -0.047478344 6.036422806 0.042624392 -0.024405715 0.033907184 5.015979271
10.273829590 -0.019301388 -0.020813291 -0.011534315 6.072078762 0.072524260 -0.009894128 0.057692164 4.931704738
10.362366113 -0.024000518 -0.127794823 -0.014342467 6.021705288 0.102570639 -0.060750527 0.081593693 4.906733832
9.928636124 -0.113403674 -0.195554109 -0.067768893 6.112701027 0.053358825 -0.092961631 0.042446294 4.991109221
10.242678030 -0.022854258 -0.019841541 -0.013657474 6.090201088 0.099405492 -0.009432182 0.079075856 4.984901582
10.125189627 -0.059166136 -0.152882525 -0.035357087 6.113126130 -0.003955221 -0.072676606 -0.003146330 4.974551784
10.191030436 -0.044827758 -0.049173246 -0.026788616 6.078904077 0.071077380 -0.023375756 0.056541189 5.004006364
9.990294398 -0.097701993 -0.174743748 -0.058385726 6.097389099 0.019588728 -0.083068896 0.015582594 5.002210490
10.297861675 -0.021021031 -0.125052599 -0.012561956 6.007694987 0.035735951 -0.059446941 0.028427513 4.964226363
9.887028778 -0.132373152 -0.099750444 -0.079104861 6.161897150 0.041902358 -0.047418916 0.033332815 5.032378183
10.288016623 -0.005688747 -0.010780274 -0.003399538 6.078467785 0.106954212 -0.005124678 0.085080771 4.916621396
10.145908140 -0.055835546 -0.138215101 -0.033366760 6.104099109 -0.002668840 -0.065704072 -0.002123029 4.971549731
9.881790780 -0.131540262 -0.102280145 -0.078607135 6.199767324 0.037015593 -0.048621474 0.029445453 5.033564415
10.362755761 -0.023872385 -0.130946055 -0.014265897 6.017889113 0.096294691 -0.062248546 0.076601252 4.908428162
9.894658484 -0.118265239 0.016790486 -0.070674115 6.190912821 -0.030001380 0.007981786 -0.023865732 5.045793899
10.249204096 -0.010661059 -0.013169690 -0.006370941 6.089982008 0.026554320 -0.006260548 0.021123637 4.925383162
10.286756364 -0.021266939 -0.122965528 -0.012708909 6.008649791 0.031805156 -0.058454799 0.025300614 4.970530929
9.921712378 -0.083190866 -0.012394675 -0.049714023 6.216848861 -0.010952004 -0.005892125 -0.008712186 5.012887361
9.935212029 -0.122052968 -0.010022025 -0.072937624 6.170730130 -0.021144476 -0.004764225 -0.016820173 5.047612028
9.934017638 -0.104995712 -0.207568937 -0.062744379 6.117590298 0.042584903 -0.098673186 0.033875771 4.977033183
10.279377163 -0.014374296 -0.015321361 -0.008589934 6.072500134 0.083472175 -0.007283399 0.066401097 4.924870097
10.182530836 -0.023942364 -0.015997283 -0.014307715 6.055563320 0.034076087 -0.007604716 0.027107111 4.939343990
9.944537282 -0.077349530 -0.027456442 -0.046223300 6.217026266 -0.008116874 -0.013052120 -0.006456874 5.016543881
10.338687415 -0.027960789 -0.112251510 -0.016709086 6.038478656 0.118551384 -0.053361617 0.094306180 4.910883561
9.974869531 -0.099191165 -0.189506342 -0.059275641 6.101046426 0.022879923 -0.090086671 0.018200700 4.988561230
10.261955357 -0.015912439 -0.012804031 -0.009509113 6.093361196 0.112253859 -0.006086723 0.089296576 4.970741109
9.954271175 -0.104752250 -0.078206919 -0.062598889 6.073810385 0.042901330 -0.037177653 0.034127485 5.036691359
10.132494275 -0.066731367 -0.121919318 -0.039877993 6.075465580 0.066855578 -0.057957456 0.053182797 4.976633108
10.029248603 -0.064434568 -0.147735402 -0.038505448 6.105184561 0.014108581 -0.070229790 0.011223204 4.963003479
9.941168303 -0.078158521 -0.025075652 -0.046706744 6.217133506 -0.008410714 -0.011920350 -0.006690620 5.015999678
10.263473478 -0.015338545 -0.012383080 -0.009166160 6.093356692 0.113275971 -0.005886613 0.090109653 4.969194638
10.041681114 -0.062252402 -0.119087395 -0.037201408 6.181890150 -0.003036434 -0.056611229 -0.002415446 5.005756176
10.022714327 -0.076848512 -0.048249438 -0.045923896 6.033845695 0.042377570 -0.022936600 0.033710840 5.011746883
9.885489427 -0.132613251 -0.100188970 -0.079248343 6.166238948 0.041645644 -0.047627381 0.033128602 5.031913599
9.945244131 -0.104279863 -0.140225536 -0.062316595 6.179471679 0.011578581 -0.066659783 0.009210620 5.000147035
10.199336425 -0.045881440 -0.092358729 -0.027418286 6.084135575 0.012944057 -0.043905076 0.010296839 4.964768512
9.947402087 -0.102996511 -0.141223462 -0.061549677 6.176731735 0.011527547 -0.067134173 0.009170023 4.998052484
10.137437115 -0.039889588 -0.127370010 -0.023837616 6.047096241 0.015866071 -0.060548581 0.012621266 4.986212620
9.933132525 -0.114283901 -0.194109482 -0.068294908 6.104510659 0.055363530 -0.092274891 0.044041013 4.996442212
10.084977227 -0.053960664 -0.026211182 -0.032246349 6.027622414 0.039360987 -0.012460153 0.031311185 4.978090192
10.118373766 -0.060086806 -0.157014092 -0.035907270 6.116613768 -0.004089345 -0.074640651 -0.003253024 4.975333243
9.953383212 -0.100126881 -0.204649593 -0.059834815 6.105841238 0.027917019 -0.097285401 0.022207648 4.972090302
10.114096828 -0.060605857 -0.159310474 -0.036217450 6.119099834 -0.004155076 -0.075732295 -0.003305312 4.975857684
10.286586722 -0.007287947 -0.010878916 -0.004355204 6.077172256 0.102047948 -0.005171570 0.081177898 4.916752527
9.973543961 -0.106267318 -0.178983535 -0.063504278 6.066860636 0.046649457 -0.085084386 0.037109074 4.990181954
10.202238613 -0.045329877 -0.089638275 -0.027088678 6.083406273 0.014359639 -0.042611839 0.011422918 4.964575849
10.034270802 -0.062449420 -0.110320684 -0.037319144 6.186434193 -0.003231761 -0.052443750 -0.002570827 5.007832595
10.070059666 -0.079956030 -0.096921111 -0.047780918 6.061763302 -0.005513479 -0.046073921 -0.004385905 5.049492984
10.179524804 -0.055823524 -0.119356809 -0.033359576 6.064812628 0.084866947 -0.056739302 0.067510621 4.953560828
10.077279186 -0.084394620 -0.115211211 -0.050433374 6.091180038 0.041385549 -0.054768586 0.032921699 5.005072660
10.284632464 -0.005098861 -0.011289420 -0.003047028 6.082671696 0.119849362 -0.005366713 0.095338706 4.934292485
10.156994996 -0.030596941 -0.017481306 -0.018284424 6.046048309 0.035950058 -0.008310185 0.028597832 4.948450810
10.144911487 -0.063646747 -0.121596595 -0.038034654 6.072735677 0.071762581 -0.057804042 0.057086258 4.970030607
9.885816291 -0.130499726 -0.103628021 -0.077985321 6.213606433 0.031444846 -0.049262222 0.025013992 5.033280486
10.115505709 -0.073538718 -0.098855132 -0.043945997 6.058464601 0.048001947 -0.046993307 0.038184964 5.012880378
10.299956391 -0.003975188 -0.012305805 -0.002375532 6.127300786 0.019234819 -0.005849878 0.015301064 4.923062448
10.323844728 -0.001857337 -0.011606857 -0.001109926 6.147183383 0.015441967 -0.005517616 0.012283897 4.923731305
10.172443052 -0.050957187 -0.116621482 -0.030451502 6.093209909 0.002557306 -0.055438994 0.002034305 4.967232227
9.931254080 -0.080634331 -0.018393514 -0.048186264 6.217148404 -0.009502527 -0.008743826 -0.007559145 5.014334701
9.971009738 -0.106789557 -0.180060636 -0.063816363 6.067981697 0.047014310 -0.085596414 0.037399310 4.990070211
10.264923219 -0.014775843 -0.012010525 -0.008829895 6.093278774 0.114239009 -0.005709509 0.090875738 4.967632325
10.236364508 -0.044025736 -0.113925811 -0.026309336 6.054690768 0.103265051 -0.054157539 0.082146089 4.935415407
9.949628341 -0.111823988 -0.188935621 -0.066824888 6.083237246 0.051799225 -0.089815364 0.041205651 4.992889457
10.364536997 -0.000026822 -0.008041098 -0.000016028 6.182361324 0.008110771 -0.003822541 0.006452020 4.929663127
10.119711803 -0.043276463 -0.130628936 -0.025861578 6.053514087 0.015519689 -0.062097795 0.012345723 4.981812627
9.978895199 -0.105220134 -0.176664765 -0.062878491 6.064809484 0.045972460 -0.083982100 0.036570531 4.990580156
10.044730671 -0.096641624 -0.102119103 -0.057752060 6.107145259 0.023372898 -0.048544919 0.018592855 5.018712451
9.877226466 -0.112519395 0.022806155 -0.067240457 6.201232149 -0.030092426 0.010841487 -0.023938158 5.032400960
10.126936570 -0.039585216 -0.019821363 -0.023655726 6.036626089 0.037533372 -0.009422590 0.029857339 4.960432117
10.233014202 -0.026558188 -0.024187776 -0.015870905 6.088099122 0.093409868 -0.011498276 0.074306411 4.989668390
9.929773683 -0.115768882 -0.090458439 -0.069182317 6.101237280 0.042488893 -0.043001725 0.033799396 5.039438874
10.188070565 -0.030850216 -0.119256212 -0.018435778 6.031459872 0.018571285 -0.056691480 0.014773231 4.991615723
9.924687144 -0.121932200 -0.001787795 -0.072865454 6.176921386 -0.024358984 -0.000849874 -0.019377275 5.049691050
10.093213442 -0.048534150 -0.135404030 -0.029003519 6.065435648 0.015330189 -0.064367757 0.012194978 4.973933463
10.244879066 -0.042426592 -0.113007988 -0.025353704 6.053919447 0.105395511 -0.053721228 0.083840843 4.933376937
9.977946818 -0.094318710 -0.067412812 -0.056363910 6.055530790 0.043160345 -0.032046399 0.034333528 5.033055884
10.197163861 -0.052032985 -0.117829581 -0.031094387 6.060912797 0.091180832 -0.056013295 0.072533240 4.946779151
10.094862776 -0.062299866 -0.164505375 -0.037229772 6.134633557 -0.004541053 -0.078201824 -0.003612352 4.980763853
9.937887280 -0.121981046 -0.012270881 -0.072894644 6.169051044 -0.020258486 -0.005833276 -0.016115378 5.046943575
9.979218199 -0.098853731 -0.185646055 -0.059073993 6.100143125 0.022026113 -0.088251585 0.017521504 4.992381382
9.927722473 -0.116670390 -0.091342836 -0.069721049 6.103847494 0.042463688 -0.043422146 0.033779346 5.039693687
9.927285593 -0.122020844 -0.003730986 -0.072918427 6.175460277 -0.023611123 -0.001773619 -0.018782360 5.049280313
10.067167623 -0.062712731 -0.148950319 -0.037476496 6.162926487 -0.003819336 -0.070807331 -0.003038236 4.996192906
9.890192717 -0.129681939 -0.106026155 -0.077496620 6.217411203 0.027644328 -0.050402236 0.021990726 5.032438625
10.184520892 -0.048675469 -0.105971752 -0.029087970 6.088694654 0.006587990 -0.050376374 0.005240666 4.965869176
10.276837477 -0.016721533 -0.017764043 -0.009992619 6.072030999 0.078090213 -0.008444591 0.062119812 4.928107315
10.246856874 -0.034242619 -0.047278015 -0.020463044 6.077111155 0.042513620 -0.022474810 0.033819066 4.953773011
10.251290649 -0.019740489 -0.016391919 -0.011796717 6.092015487 0.105027925 -0.007792316 0.083548433 4.979580362
9.948800255 -0.100319714 -0.207012054 -0.059950050 6.107442241 0.029702193 -0.098408458 0.023627732 4.969950271
10.289335403 -0.035198899 -0.108842381 -0.021034507 6.050930838 0.113801762 -0.051741001 0.090527914 4.922922692
10.008515139 -0.071864063 -0.151030277 -0.042945239 6.119461822 0.013125795 -0.071796092 0.010441410 4.965852879
10.256964977 -0.017727310 -0.014366248 -0.010593662 6.092957039 0.108857660 -0.006829362 0.086594941 4.975267792
9.943134738 -0.105536095 -0.139221160 -0.063067307 6.182162430 0.011644200 -0.066182328 0.009262819 5.002249262
10.253293277 -0.040915210 -0.112097698 -0.024450517 6.053317679 0.107315427 -0.053288499 0.085368113 4.931417520
10.309712455 -0.003024526 -0.012092010 -0.001807426 6.135299641 0.017718840 -0.005748245 0.014095121 4.923176152
9.882595831 -0.131189700 -0.102476264 -0.078397643 6.205310635 0.035390713 -0.048714705 0.028152881 5.033759887
10.360239184 -0.023721578 -0.134783115 -0.014175776 6.011585383 0.086300741 -0.064072590 0.068651187 4.913571216
9.944942933 -0.100609731 -0.208680557 -0.060123361 6.109202784 0.031698602 -0.099201623 0.025215851 4.969076353
9.928026599 -0.081476843 -0.016319516 -0.048689740 6.217074523 -0.009944245 -0.007757898 -0.007910525 5.013811820
9.874060695 -0.107158658 0.020085812 -0.064036934 6.208125938 -0.028302770 0.009548303 -0.022514508 5.024313606
10.222544573 -0.030862496 -0.029485852 -0.018443117 6.085935995 0.087271495 -0.014016851 0.069423410 4.993913070
10.090963965 -0.079358889 -0.118583230 -0.047424072 6.086086081 0.048479721 -0.056371562 0.038565027 4.998552993
10.131867778 -0.038027959 -0.019359826 -0.022725125 6.038039925 0.037305758 -0.009203187 0.029676276 4.958422569
10.289616069 -0.021185510 -0.123454225 -0.012660247 6.008425770 0.032706757 -0.058687113 0.026017827 4.968989381
10.082150256 -0.062792334 -0.160891152 -0.037524066 6.148003328 -0.004527783 -0.076483711 -0.003601796 4.987542176
10.101663101 -0.075698911 -0.120330517 -0.045236907 6.082827558 0.053630646 -0.057202179 0.042662525 4.993137245
9.913939578 -0.121652165 -0.122723433 -0.072698108 6.212650575 0.015790973 -0.058339712 0.012561526 5.027554515
10.361030301 -0.024199798 -0.125254926 -0.014461555 6.024295335 0.106846569 -0.059543122 0.084995142 4.906285700
10.305640098 -0.020973208 -0.126843452 -0.012533378 6.006785164 0.039241461 -0.060298269 0.031216103 4.959363562
9.932551321 -0.122082761 -0.007848445 -0.072955427 6.172361165 -0.022000829 -0.003730959 -0.017501391 5.048231166
9.997053021 -0.096806259 -0.167540162 -0.057850445 6.095253388 0.017812827 -0.079644487 0.014169886 5.008157935
10.354499964 -0.025258280 -0.119155198 -0.015094094 6.030013680 0.114545210 -0.056643461 0.091119317 4.907226907
9.964345100 -0.100228408 -0.073380064 -0.059895486 6.065166620 0.043049312 -0.034883084 0.034245203 5.035612850
10.175228258 -0.051609432 -0.060288990 -0.030841276 6.074365407 0.064462969 -0.028659908 0.051279506 5.008126948
10.089418120 -0.062575976 -0.163743949 -0.037394772 6.140243022 -0.004601538 -0.077839860 -0.003660468 4.983387637
10.260366048 -0.016500052 -0.013274355 -0.009860265 6.093294047 0.111175005 -0.006310303 0.088438360 4.972270149
9.931699979 -0.107356399 -0.204553673 -0.064155102 6.118770119 0.045649617 -0.097239803 0.036313713 4.980445314
10.333080568 -0.021832724 -0.134509549 -0.013047016 6.002397016 0.056722672 -0.063942543 0.045122194 4.940158139
9.906809453 -0.125560406 -0.097180392 -0.075033633 6.130750561 0.042385255 -0.046197177 0.033716953 5.039623581
10.214727706 -0.048347404 -0.116159580 -0.028891921 6.057592376 0.097011526 -0.055219418 0.077171485 4.941154592
9.908559065 -0.124843821 -0.096913593 -0.074605409 6.128508904 0.042381286 -0.046070347 0.033713796 5.039925810
10.045185047 -0.093666130 -0.140756172 -0.055973935 6.055553220 0.042249816 -0.066912035 0.033609214 5.000912190
9.978774442 -0.116028436 -0.052395749 -0.069337424 6.142429499 -0.005522588 -0.024907655 -0.004393152 5.036569237
10.272391423 -0.011528676 -0.010712802 -0.006889421 6.091327077 0.118680738 -0.005092604 0.094409079 4.957982515
10.103324927 -0.077520860 -0.105971995 -0.046325684 6.056705836 0.046012945 -0.050376489 0.036602736 5.011593564
10.072889922 -0.062816071 -0.154358219 -0.037538251 6.157539238 -0.004151140 -0.073378115 -0.003302182 4.993073622
9.910684881 -0.123106097 -0.120517032 -0.073566963 6.214536022 0.016844351 -0.057290844 0.013399476 5.028886144
10.110004927 -0.061056088 -0.161218077 -0.036486503 6.121767233 -0.004222052 -0.076639123 -0.003358591 4.976459143
10.320197430 -0.030800069 -0.109019839 -0.018405811 6.045282910 0.117727761 -0.051825360 0.093650998 4.915297529
10.017794116 -0.063682752 -0.092040979 -0.038056171 6.195711605 -0.004098987 -0.043754026 -0.003260694 5.012253558
10.257347703 -0.029774759 -0.037249981 -0.017793096 6.075379777 0.051695711 -0.017707728 0.041123307 4.947028374