5.1455329385 0.1086380460 2.4546545678 2.8162278560 4.6152043636 4.8991220883 2.1984580544 1.5453198195 2.3617347262 7.4643048909 1.5322317814 0.1521481118 8.1129577322 4.5807037577 2.6337177122 1.1035407588 4.6030356274 2.2242374069 4.0496898384 1.6317997634 4.6121314290 9.2076065585 1.5920134491 2.8238312968 6.2021667663 4.5400232390 0.3924467959 1.2973301562 4.6265084809 3.7502653966 3.8335535843 1.4618188949 1.2091577271 8.9897777115 1.6145322912 1.3013609268 6.4196530884 4.6673956127 3.7958592825 4.6844559107 4.6011523019 0.7574444544 0.4282869854 1.6241801070 3.1386181707 5.5653881542 1.5428322139 4.2834036397 9.8681670449 4.5474984729 1.9352652748 1.7848951025 5.8139513203 1.4810402059 3.2790426288 0.4473294751 3.8540258222 8.4557382246 2.7876492357 3.5380932803 6.9037582288 3.3168127987 1.0679971694 8.4909148446 0.3689896190 3.5202845629 6.9481408828 5.7389076357 1.1189740059 1.8496588225 3.3982189074 1.5294526579 3.3295251263 2.8536847992 3.9626394743
5.0080251229 -0.0332004949 2.4991306122 2.5528786705 4.6096652931 5.0064133859 2.1377785817 1.5516386815 2.4437952976 7.2903097477 1.4738448201 0.0258328219 7.6904809304 4.3793020460 2.5078627978 0.9628346441 4.5712374763 2.2236499386 3.8878149858 1.5672838269 4.7147004883 8.8785690061 1.3830671907 2.7705898717 5.9569435392 4.4631497878 0.3007816681 1.0767176613 4.5245392728 3.7556003798 3.7675265355 1.5340457397 1.2034788266 8.7600497051 1.4490584191 1.2408301462 6.1040775580 4.4833898706 3.8184788385 4.4775931811 4.4993091730 0.7344002856 0.4103500101 1.5210582677 3.2678249482 5.3847479649 1.4990376003 4.3107770609 9.4351944463 4.5342364033 1.7186080960 1.7269261196 5.7803634462 1.5571708474 3.1725878733 0.3421507972 3.9891547711 8.1233200542 2.6108760312 3.4157898712 6.7139025734 3.2570182824 0.9864340415 8.1288512488 0.2006603929 3.4393151820 6.7034893043 5.6653215969 1.0151878006 1.7271925460 3.3801061909 1.5355537982 3.1580065123 2.7767986518 4.0267712689
4.9509176892 -0.0456043187 2.4992382311 2.6049104054 4.6212488739 4.9690728391 2.1429747716 1.6836051556 2.4638875281 7.2308561938 1.4449318592 0.0370557224 7.6593060887 4.4673435279 2.5227524729 0.9826993601 4.6924710874 2.1848723165 3.8949220985 1.4841899005 4.7471120262 8.8350578415 1.4729919535 2.7937096585 5.9437235438 4.5491136490 0.2826884785 1.1581401365 4.6253605070 3.7121136589 3.7228702858 1.5421298794 1.2665547825 8.6711917756 1.4995403498 1.2637742126 6.1203995586 4.5812540758 3.7645700419 4.4422761632 4.5483108468 0.6675446050 0.4414873361 1.4729512683 3.1354673549 5.3950209175 1.4730371684 4.3440543387 9.3846757713 4.6018312837 1.8172699900 1.7281955127 5.9086594201 1.5179381144 3.2295725182 0.2260933212 4.0976083146 8.2008326527 2.7078204304 3.5293120673 6.7217881873 3.3590956021 0.9552884506 8.0847245929 0.2739937306 3.4943661795 6.6362688277 5.7898905093 0.9667103939 1.6985363339 3.4689604529 1.4789031415 3.1259765933 2.6668992519 4.0528828819
4.8262160315 -0.1676506116 2.3801522735 2.4575327013 4.6445549479 4.8264237156 2.1266582645 1.6282787703 2.2929946298 7.2623193370 1.4352342871 0.0122887355 7.6942121821 4.3970323700 2.5007324311 0.8835310412 4.6066953204 2.0660880252 3.8468382458 1.5780721151 4.5563622727 8.8962466538 1.4006399570 2.7265782905 5.9649492306 4.5027835616 0.2369265662 1.0297836595 4.5310895081 3.5926703660 3.7132936602 1.5134827183 1.1090366019 8.7477842413 1.5287821767 1.1925715651 6.0689031104 4.5425851878 3.6815853998 4.4556986375 4.4904810398 0.5947814575 0.4639407855 1.5104038483 3.2795082602 5.3518765647 1.5853290501 4.2054353704 9.3326148862 4.5550784478 1.4888315342 1.6648899886 5.8113343541 1.3940752509 3.1621988040 0.3352178641 3.8300545195 8.1284689790 2.6118340240 3.4223968790 6.7162190803 3.3429376662 0.9707130054 8.1474543139 0.1942413786 3.3902422068 6.6495085876 5.7524123626 0.9381382880 1.6113133945 3.3871553257 1.3618645448 3.0794605121 2.7474677118 3.8553315441
4.8933626923 0.0166947936 2.3721411823 2.5587066582 4.5925658186 4.8527534578 2.0839655405 1.6095378280 2.3135620302 7.2502856676 1.4412783428 0.0062000950 7.6879798367 4.4122921746 2.5817163780 0.8882482345 4.5897751480 2.0904090748 3.8058927293 1.5861730001 4.5883400814 8.9097491925 1.4079588858 2.7312338670 5.9358980845 4.4517309321 0.2953326613 1.0856451268 4.5783865324 3.6193736428 3.6662500470 1.5068449915 1.1172085730 8.7451708077 1.4254070815 1.2002408360 6.0705722353 4.5112115668 3.7682857223 4.4186072156 4.5216026680 0.6593406087 0.4597719751 1.5202140001 3.3047041612 5.3254365235 1.4804587231 4.2304398999 9.3273065759 4.4613409349 1.5204093025 1.6730710924 5.7802949748 1.4214376087 3.1060259514 0.3754948093 3.8536478352 8.2219151670 2.6491414848 3.4575267926 6.6532935148 3.2463104423 0.9837654394 8.1491793551 0.2029901375 3.3895132407 6.6003961593 5.6886644814 1.0466802665 1.6309490127 3.3714881368 1.3745620424 3.1270997776 2.8051172514 3.8620695043
5.1738055717 0.0051432596 2.4621050721 2.8303318143 4.6219326729 4.8950309315 2.2169193490 1.5679814779 2.4486676104 7.5208908021 1.5511508195 0.0003751628 8.1433405838 4.6264420541 2.5226275461 1.1288740990 4.6122901008 2.1807642912 4.0689858421 1.6170375537 4.6818997973 9.2334034173 1.5454702405 2.7214722376 6.2795097572 4.6101833770 0.2740164250 1.3831020617 4.6534446562 3.6942718121 3.8713311577 1.5611067012 1.2691708719 9.0097561702 1.5568890396 1.1989476376 6.4738612476 4.6270075656 3.6710871039 4.7543563832 4.7085644124 0.6269382744 0.3890426161 1.4875849587 3.0228493010 5.5778723790 1.5278127671 4.2840417794 9.9770175222 4.5896459421 1.8823022998 1.8647290906 5.7998199374 1.4488189714 3.3310114197 0.3958488693 3.9514355636 8.4837619922 2.7441965467 3.4345094807 6.9838214861 3.3979481485 0.9698799659 8.4913370356 0.3248187313 3.4271405422 6.9859533219 5.8588680891 0.9568230942 1.8963547127 3.3798500004 1.5562541806 3.3265964364 2.8163743888 3.9938954224
5.0844615087 -0.0077919380 2.4466743664 2.7915315237 4.5897476023 4.9144064461 2.1877380142 1.5251391460 2.3837621459 7.4466218136 1.5223884858 0.0779871782 8.0996966471 4.5672200081 2.5916393585 1.0895907060 4.5728217462 2.2067484980 4.0025070135 1.6272598780 4.6179162301 9.1954823425 1.5229057739 2.8088847535 6.2407420046 4.5217852945 0.3457351401 1.2797051364 4.6190065945 3.7293940452 3.8136978731 1.5642164507 1.2158351468 8.9838675304 1.5514256905 1.2839710617 6.4379581751 4.6133668028 3.7469143388 4.7265833666 4.6077838885 0.6939823322 0.4201075986 1.5467803909 3.1928864925 5.5018298345 1.5184870950 4.2603005723 9.8635003591 4.5206817721 1.8071854825 1.8035500237 5.7902296547 1.5018289871 3.2736992345 0.4123963591 3.9052101203 8.3954123643 2.7073806638 3.4852065011 6.9555978731 3.3061664508 1.0151096373 8.4351532367 0.3088657576 3.4811452813 6.9359277224 5.7286399724 1.1224157848 1.8984132023 3.3913038035 1.5526509583 3.3251142700 2.8381077208 3.9227083791
5.1802847396 0.0039463727 2.4633332770 2.8357732198 4.6252659793 4.8977497536 2.2177154282 1.5701460102 2.4455537871 7.5261167989 1.5560666095 0.0025045828 8.1531009803 4.6314315201 2.5222228245 1.1301152900 4.6219114976 2.1813415611 4.0724594021 1.6147892636 4.6810024157 9.2411867238 1.5474624229 2.7263802203 6.2896643869 4.6150964395 0.2762552483 1.3882169796 4.6566680300 3.6957671417 3.8714163687 1.5580408883 1.2687361413 9.0187367413 1.5561305637 1.2036420280 6.4814875017 4.6370193193 3.6746533667 4.7665561591 4.7130380973 0.6226030496 0.3875229790 1.4924377404 3.0226347703 5.5807927552 1.5241949555 4.2898463592 9.9872657502 4.6031144477 1.8847816219 1.8663778373 5.8104997523 1.4536644727 3.3407987090 0.3952940385 3.9541394833 8.4935479171 2.7480887280 3.4356129026 6.9941158365 3.3987410238 0.9665294907 8.5036487651 0.3304274340 3.4296947078 6.9917462232 5.8663550781 0.9585516257 1.8942130022 3.3899407729 1.5561559500 3.3295472501 2.8153031261 3.9925972828
5.0109285622 0.0925661393 2.4111180213 2.5876965999 4.5276865712 4.8317450484 2.0932399444 1.5628187209 2.3081983827 7.2994047208 1.4582077605 -0.0113855704 7.7571108183 4.4383567078 2.5819776401 0.9517454037 4.5731906524 2.0860260633 3.8553656586 1.5594634873 4.5751534285 8.9178768723 1.3967522711 2.7646040532 5.9955886664 4.4184817447 0.3232909775 1.1626772292 4.5831746915 3.6047772815 3.7269307890 1.5701650791 1.1128787722 8.7284683092 1.3972282085 1.2372797743 6.1014878753 4.4771518975 3.7804359154 4.4802805933 4.5311116681 0.6787145696 0.4246603768 1.4908536300 3.2287488476 5.3693345273 1.4280937167 4.2400680463 9.4255198275 4.4281791915 1.6843806923 1.6473463766 5.7967457500 1.3822370309 3.1025215723 0.3578137173 3.8614461326 8.1950530966 2.6219047659 3.4656168419 6.6601438903 3.1938834442 1.0283426587 8.1557212713 0.2193121469 3.4800609651 6.7387051686 5.6179325804 1.0490693310 1.6364764552 3.3430781136 1.3771015026 3.1941387122 2.7795218548 3.8526034614
5.0752438285 0.0402373854 2.4821285462 2.6565021543 4.5384076270 4.9400910784 2.1516603646 1.5843741630 2.3884276242 7.2618002323 1.4314979862 0.0396575875 7.7256655723 4.4346256845 2.5520777102 1.0117384278 4.6299260888 2.2055727515 3.8817307237 1.5328488941 4.6580320159 8.8814887307 1.3999990241 2.7879928532 5.9891120233 4.4657764574 0.2765371277 1.1945531175 4.6346266075 3.7337682351 3.7294461158 1.5369853719 1.1526773692 8.7284459323 1.3946754748 1.2494813096 6.1210596105 4.5033196765 3.7761710194 4.4929615382 4.5595457868 0.6728803750 0.3779797054 1.5529145753 3.2477205762 5.3905025979 1.4923934766 4.3176972739 9.5089485776 4.5356286124 1.7912133686 1.8235341302 5.8224987479 1.5629308359 3.2032933836 0.3150261068 3.9524444995 8.0970374151 2.6039654086 3.4656457074 6.7161965487 3.2686741978 0.9800085938 8.0779794028 0.2039084296 3.4435447508 6.7237138008 5.6955055976 0.9583136758 1.7283414531 3.4063933778 1.5023460213 3.1269199881 2.7278207131 3.9979559540
5.0442695472 -0.0848344373 2.4443752327 2.7728487032 4.5748538304 4.9333691441 2.1654946230 1.5183449222 2.4090884499 7.4179357622 1.5162461872 0.0194225487 8.0517696208 4.5530941675 2.5520500015 1.0495088245 4.5750811418 2.1990676681 3.9930212908 1.6171771355 4.6449949848 9.1476368807 1.4748596956 2.7704686364 6.2269402292 4.5119042513 0.2973506136 1.2333180323 4.6100444409 3.7247407828 3.8035565184 1.5804083475 1.2179321943 8.9704408334 1.4561789693 1.2465903007 6.4229777245 4.5926830714 3.7322906451 4.7128338181 4.6015276019 0.6249630435 0.3935494910 1.5047187726 3.1986867422 5.5020569349 1.5025851534 4.2596383486 9.8212503866 4.5019064125 1.7350955146 1.8183167532 5.7894463475 1.5209597985 3.2562451206 0.3911736311 3.9200072028 8.3780841488 2.6720470010 3.4828321971 6.9594217308 3.2985713544 0.9834992574 8.4162709383 0.2544199641 3.4487886318 6.9355874659 5.7093267404 1.0591333702 1.8656562775 3.3975138789 1.5070702170 3.2948040736 2.8303513176 3.9117214687
5.1013281835 0.0880570311 2.3921102955 2.7120422842 4.6173482533 4.9320736164 2.1741444779 1.5242222759 2.3535723999 7.4290186417 1.5433265204 0.0024144456 8.0023953092 4.4910982509 2.5909600178 0.9856135435 4.5480223302 2.1676635743 4.0099834976 1.6487706617 4.5814025923 9.1747541117 1.4736794184 2.7492185640 6.1783945542 4.5013731402 0.3309800627 1.2503262245 4.5472148755 3.6806580157 3.8133680847 1.5112406204 1.1693971939 8.9123816655 1.5436318323 1.2330862470 6.3579027664 4.6021595096 3.7342538114 4.6703161631 4.5906536639 0.7021977310 0.4296888226 1.5359059259 3.1931844173 5.5219996069 1.5520536092 4.2489326214 9.7387847337 4.4890369435 1.7227739835 1.6678396078 5.7747316852 1.4490323349 3.2828457510 0.4284263035 3.8603594736 8.4345986268 2.6867864259 3.4799528459 6.9014527445 3.3065034089 1.0301253313 8.4515082925 0.2656429510 3.4426893889 6.8926451230 5.7246006489 1.0569076866 1.7741355472 3.3582784595 1.4752222625 3.3307398950 2.8615934968 3.9092477058
4.9500934476 -0.0384664326 2.3233098002 2.6086089236 4.5686514010 4.8189502591 2.1135379385 1.6526843269 2.3126441267 7.2570933626 1.4257247291 0.0128010147 7.7628674288 4.4601977480 2.5623631364 0.9661946200 4.6387076519 2.0428765927 3.8700784386 1.5161016102 4.5459972496 8.8914915898 1.4876268997 2.7769934520 6.0156822147 4.5007757712 0.2818349504 1.2149116531 4.5502545480 3.5569300836 3.7695786730 1.5282976775 1.1156239848 8.6623497196 1.4783994142 1.2604702548 6.1243657640 4.5534919293 3.7133163433 4.4993574977 4.5323329465 0.6548914325 0.4152973220 1.5155167038 3.1627522042 5.3809813466 1.4820438160 4.1578994181 9.4443286358 4.5559525794 1.6424953388 1.6970436823 5.8483383178 1.3411476699 3.1733148746 0.2987997125 3.8489923237 8.2143684779 2.7092936328 3.5076436763 6.7531467248 3.2957059147 0.9370654008 8.1630472610 0.2985338044 3.5094889300 6.7377682481 5.7120124829 1.0135069650 1.6776663230 3.4106525421 1.3401248417 3.1708402973 2.7445286655 3.8601197089
4.8972278837 -0.1750213663 2.4270131361 2.6327181013 4.5927518140 4.9033301197 2.1499403703 1.6076027671 2.4338128491 7.3611523293 1.5100776152 -0.1079424587 7.8611528408 4.4870983094 2.3988095410 1.0010985892 4.5896268442 2.1793821206 3.9210167623 1.5654489352 4.6651791542 8.9878058945 1.4244510627 2.6281189265 6.1146049098 4.5129341973 0.1541183138 1.1872391105 4.5705403960 3.7016715409 3.8199250871 1.5052624892 1.2169630598 8.8058560677 1.4112217951 1.1049795853 6.2381474461 4.5015697320 3.6003968786 4.6128055713 4.5623357898 0.5495013949 0.3831723669 1.5000755243 3.1090979833 5.4044661757 1.5092593789 4.2219113304 9.6103522297 4.5983868811 1.6785923957 1.7710724904 5.7710163093 1.4988017601 3.2129829150 0.3622130807 3.9122968551 8.2564150423 2.6609680912 3.2823672696 6.8461789142 3.3262948935 0.8704222804 8.2651231834 0.2420716639 3.3595681083 6.7918281226 5.7421655606 0.9010907786 1.6941829821 3.3650667837 1.4673944621 3.1998641432 2.7692764763 3.9679182732
4.9236490741 -0.0123900209 2.3653297018 2.5828089567 4.5762161785 4.8742360701 2.1264559228 1.6929702882 2.3448896537 7.2202247083 1.4193276370 -0.0020889482 7.6783210125 4.4760894072 2.5846188168 0.9300865767 4.6868396976 2.0909041579 3.8703377225 1.5349869210 4.5875501552 8.8750722649 1.4590154466 2.8010395799 5.9655573938 4.5100926668 0.2608371746 1.1492421738 4.5861645387 3.6114890324 3.7354006170 1.5378305348 1.1073201074 8.6354646576 1.4564419469 1.2872350906 6.0754216583 4.5767560681 3.7390352499 4.4723927878 4.5766262425 0.6627094438 0.4519361015 1.4936475503 3.2106782756 5.3661493131 1.4822080544 4.1905318027 9.3507966635 4.5870304147 1.6776951244 1.6273467304 5.8730117284 1.3594619918 3.1648261869 0.3025134963 3.8849651450 8.1990941348 2.6954702429 3.5218304051 6.6949855029 3.3047369865 0.9588719900 8.1344485146 0.2648837082 3.5306224273 6.6771805850 5.7255142656 0.9857109441 1.6684170854 3.4569913378 1.3837002493 3.1294993508 2.7312743533 3.8783663557
4.9192242125 0.0082822964 2.4601961768 2.5444029144 4.6085375297 4.9469919828 2.1593555772 1.6995297550 2.3623590151 7.2372458826 1.4345392638 0.0114683152 7.6003413635 4.4840917703 2.5946153633 0.9103071352 4.7215118826 2.1682258062 3.8338093104 1.5451019803 4.6428544981 8.8633157290 1.4102358922 2.8277791744 5.9080125819 4.5224676874 0.2787252133 1.1120679696 4.6836660057 3.6937594957 3.6820372289 1.5625946095 1.1405755652 8.6427370253 1.4438034132 1.3055241883 6.0491434594 4.5409774090 3.7835185218 4.4038297433 4.5849034428 0.6119750298 0.4785721884 1.5291556466 3.2796090339 5.3413407130 1.5141994306 4.3128197323 9.2875551080 4.5705723443 1.7341943454 1.6669333509 5.9023938461 1.4910011290 3.1758993490 0.3014653161 3.9240324534 8.1545826738 2.6365068468 3.5364893429 6.6042240874 3.2999327669 0.9747969728 8.0871154270 0.2152721192 3.5060437200 6.5846340840 5.7621849297 0.9808465529 1.6054030852 3.4756087033 1.4623721738 3.1376205702 2.7682844292 3.9415152566
5.0534149486 -0.0838840511 2.5337500270 2.7559211630 4.5553572084 4.7884067864 2.1374849920 1.5009662805 2.2930195965 7.4301288271 1.4979520120 0.1046928775 8.0536477854 4.4922985039 2.5539496098 1.0053623436 4.5265749062 2.0622878919 3.9720705544 1.5735715710 4.6149627101 9.1920610848 1.4809418885 2.8002115131 6.1869027178 4.4573315468 0.3069253883 1.2495545615 4.5331934468 3.5823360498 3.7882633381 1.5142826568 1.1568029436 8.9651655019 1.4791741638 1.2689816483 6.3966344863 4.4767880364 3.7723399756 4.6553041805 4.4970815074 0.5810767026 0.4482927782 1.5462206359 3.2257324411 5.4981056511 1.4912441105 4.3178126129 9.7536327388 4.5498235239 1.6398310243 1.7630508702 5.7191720022 1.3580776947 3.2752680488 0.3447988311 3.8719298820 8.4192405630 2.6619008506 3.5017735862 6.8586278136 3.2492578926 1.0314551170 8.4969039403 0.2523361695 3.4818311960 6.8827772374 5.6655417812 1.0503351601 1.7242569416 3.3013640731 1.3834583031 3.3015034378 2.7785985010 3.8881180618
5.0110195267 0.0099809558 2.5159816004 2.6199310248 4.5592062841 4.9721985811 2.1364298787 1.6445041540 2.4289834678 7.2161163887 1.4141020836 0.0601269154 7.6696576672 4.4448636441 2.5656767629 0.9926352039 4.6735026224 2.2146612231 3.8947091800 1.4929114285 4.7543735624 8.8085143164 1.4221470691 2.8489515181 5.9709219256 4.5042022116 0.2833457463 1.1312679302 4.5894056005 3.7462841747 3.7505983836 1.5304228026 1.2439356051 8.6665739475 1.4163020748 1.3143786158 6.1250949353 4.4804378457 3.7960838101 4.4706098986 4.5762102847 0.6791529194 0.4030717384 1.4914325142 3.2247029198 5.3977960382 1.4946648974 4.3620538003 9.4119282937 4.5854498978 1.8277363745 1.7350290470 5.8645237291 1.4863727892 3.2564412623 0.2525316345 4.0414810173 8.0887688019 2.6622122611 3.4967185651 6.7027253251 3.3147787609 1.0040508408 8.0201711465 0.2359980244 3.5455554059 6.6653159456 5.7273568670 1.0200654317 1.7379242629 3.4507483882 1.5293920631 3.1553217323 2.6714086500 4.0249795437
5.1809915570 0.1327630288 2.4652180365 2.8262867542 4.6176343866 4.9154171404 2.1913932062 1.5508668451 2.3659034904 7.4589423957 1.5340307757 0.1678799237 8.0850882014 4.5825708804 2.6591305379 1.0777539960 4.6111889034 2.2331317873 4.0603261308 1.6247766869 4.6333305102 9.1975278515 1.6046420064 2.8455144495 6.1746558724 4.5302083815 0.4000586011 1.3078713970 4.6359763123 3.7498974770 3.8392711743 1.4256397991 1.2115765729 8.9815235692 1.5922580883 1.3136876510 6.3990538805 4.6866344677 3.8143799530 4.6726733771 4.6090013345 0.7616346127 0.4391542509 1.6377411729 3.1239742235 5.5620187621 1.5482178912 4.2985206027 9.8475431463 4.5636018352 1.9480334727 1.7725351428 5.8152947999 1.5050526132 3.3222117298 0.4593643545 3.8479958951 8.4703163692 2.7950952356 3.5916228734 6.8732561658 3.3137541027 1.1047221165 8.5056752362 0.3734807876 3.5282506744 6.9474870242 5.7270544500 1.1251287729 1.8206890341 3.4204749690 1.4898906026 3.3492503729 2.8504955795 3.9861731218
4.9343608241 -0.0792303813 2.4974330409 2.6122597883 4.6533496453 4.9832224919 2.1930904301 1.6989195363 2.4676091561 7.2736447361 1.4698019288 -0.0001876620 7.6811285988 4.4808488946 2.5128728153 0.9988543075 4.6910094885 2.1822950934 3.8815615451 1.5001739568 4.7633372018 8.8919149462 1.4810845378 2.7826787593 5.9671923955 4.5739208947 0.2545820885 1.1827951998 4.6593059819 3.7053710856 3.7505036730 1.5473343863 1.2856385508 8.7195937079 1.5365091370 1.2576688340 6.1246838040 4.6161724745 3.7349937693 4.4784584883 4.5328361144 0.6815456923 0.4527271622 1.4950421761 3.1747231236 5.3727337364 1.4706777391 4.3352805553 9.4366985838 4.6306879978 1.7671190052 1.7820687281 5.8817467631 1.5435093895 3.2214223778 0.2421491154 4.0747587430 8.2329100230 2.7283566048 3.5009846129 6.7369274508 3.3871076056 0.9310606460 8.1028259701 0.2903325517 3.4218504192 6.6535654046 5.8141362053 0.9632130144 1.7055032403 3.4651442304 1.4607038288 3.1119024735 2.6740426784 4.0439280825
5.0015351952 -0.0663847098 2.4543331992 2.7143748045 4.5642231575 4.8119682326 2.1328954612 1.5528391264 2.2926358463 7.3370225148 1.4617750796 0.0664781112 7.9405155118 4.4643113677 2.5770087138 1.0080563580 4.5493451250 2.0445491603 3.9428228997 1.5435979451 4.6046254375 9.0586280927 1.4838807040 2.8145100161 6.1244888609 4.4503548638 0.2827841405 1.2369863567 4.5672290916 3.5675651217 3.7693755779 1.5018348353 1.1450625098 8.8238759636 1.5009356718 1.2918388805 6.2997828156 4.5247455187 3.7497941745 4.5993540860 4.5019612401 0.6236392870 0.4307245696 1.5739560746 3.2396673327 5.4632613563 1.4414290504 4.2870197768 9.6336961783 4.5470888264 1.6290852642 1.7874831263 5.7631143393 1.3727889196 3.2518792304 0.3340963788 3.8703914641 8.3163503164 2.6896994205 3.5259948419 6.8253398577 3.2644228336 1.0280432840 8.3111558086 0.2692669927 3.4893966909 6.7819245427 5.6768909233 1.0449700006 1.7022175540 3.3519289978 1.2809972973 3.2286935763 2.7292145724 3.8626127798
4.9385216037 -0.0695640743 2.4971416873 2.6102589165 4.6455048032 4.9788912603 2.1787706651 1.6960923245 2.4667661169 7.2612928369 1.4629941372 0.0122537211 7.6729070079 4.4772729825 2.5162675635 0.9975409252 4.6912565275 2.1805037947 3.8826272334 1.4966909473 4.7602112910 8.8740952157 1.4802049116 2.7855116945 5.9595296900 4.5645911520 0.2637391125 1.1777911645 4.6546756026 3.7066106544 3.7402540101 1.5470994579 1.2774004519 8.7052633536 1.5272933523 1.2620459686 6.1254003593 4.6108059031 3.7466099157 4.4614108399 4.5346449613 0.6798117851 0.4498685446 1.4873807075 3.1596872994 5.3749089020 1.4696990126 4.3345976940 9.4161361302 4.6228170708 1.7815793769 1.7624956262 5.8892513850 1.5443718363 3.2266030701 0.2407731498 4.0820388409 8.2288032453 2.7271074304 3.5117890511 6.7299772655 3.3842942331 0.9354944777 8.1012428514 0.2854996390 3.4382447356 6.6508780057 5.8113382483 0.9638822958 1.7023507521 3.4685099989 1.4629891646 3.1186396811 2.6659363031 4.0484507438
5.0350830646 -0.0777246953 2.5249455273 2.7546979026 4.5603230841 4.7990962888 2.1381554505 1.5115530697 2.2938037414 7.4009609265 1.4874675566 0.0970257207 8.0269814769 4.4850781371 2.5652251889 1.0066500056 4.5341187661 2.0590188787 3.9700638926 1.5687014362 4.6179656627 9.1624759988 1.4862007064 2.8062641804 6.1608342314 4.4561690835 0.2980832817 1.2438693308 4.5449860909 3.5768442386 3.7829752655 1.5126677058 1.1415775841 8.9281307654 1.4838499668 1.2817626679 6.3797945366 4.4853679558 3.7751100278 4.6431511920 4.4888589036 0.5858375732 0.4489031599 1.5596116438 3.2451134955 5.4885997805 1.4749770730 4.3284649555 9.7230851222 4.5561931183 1.6373272154 1.7729924606 5.7230429882 1.3661437119 3.2700475359 0.3303029433 3.8794301705 8.3881136934 2.6657326077 3.5203955035 6.8472410327 3.2575039658 1.0363238774 8.4455817825 0.2547064791 3.4862863796 6.8607695681 5.6673022916 1.0512543708 1.7202328771 3.3157826477 1.3482512617 3.2821332569 2.7619384081 3.8878663789
5.1334564813 -0.0805480104 2.4614387509 2.7226653669 4.5503278387 4.7727930536 2.1483117010 1.4983286924 2.2951380398 7.5320689762 1.5395425503 0.0903094626 8.1085439293 4.5163044538 2.5244458843 1.0036322297 4.5050888064 2.0882502890 4.0245385499 1.6267254380 4.5758561340 9.2647262621 1.4626214586 2.7478800326 6.2491697531 4.4623221631 0.3157980384 1.2162601809 4.5638152748 3.6121594858 3.8310848182 1.4854300606 1.1675961552 9.0439755670 1.4694626101 1.2171695793 6.4660030815 4.5361114355 3.7325591745 4.7360938575 4.5996366089 0.6473287159 0.4324876802 1.4933414778 3.1510732392 5.5395256884 1.5277273148 4.2381843743 9.8454251812 4.4620686656 1.6529122416 1.7320945516 5.6985940518 1.3693819849 3.2506849809 0.4449164154 3.8049879607 8.5261845405 2.6768435057 3.4264941399 6.9532346846 3.2664492197 1.0440232985 8.5721843346 0.2560544554 3.4594233528 6.9663165580 5.6536078106 1.0841391254 1.7608706402 3.2987218548 1.4007134795 3.3195496506 2.8474005812 3.8984806824
4.8949532442 -0.1436171953 2.4604615386 2.6164196015 4.6492391257 4.9550390275 2.2256668461 1.6779353134 2.4426996207 7.3401040974 1.5074682116 -0.1010145819 7.7716029947 4.4770176922 2.4253059629 1.0095732011 4.6473751449 2.1638323146 3.9049467021 1.5287601738 4.6978147093 8.9670937072 1.4688647039 2.6802217968 6.0369506431 4.5523622891 0.1915642518 1.1680999102 4.5984520562 3.6907519017 3.8039089403 1.5188661934 1.2344945506 8.8118919535 1.5093663450 1.1465173579 6.1317281626 4.5497579240 3.6566837356 4.5397245371 4.5623647042 0.5809634008 0.4109173876 1.5133225498 3.1962438816 5.3941429187 1.5025010422 4.2934960133 9.5560911427 4.6668070025 1.6947924453 1.8353627590 5.7938988036 1.4732801926 3.1781880971 0.2984934987 4.0131176192 8.1924235606 2.6883078124 3.3605806793 6.8307505197 3.3691306220 0.8550445538 8.1547205203 0.3034941813 3.3603711707 6.7089213695 5.7962004884 0.9048734880 1.7130307904 3.3922862719 1.4989489608 3.1227310045 2.7224108270 4.0363282535
5.0313027584 -0.0008887785 2.5036387859 2.7002945714 4.5820681250 4.9712641484 2.1869192800 1.5059572265 2.4924574641 7.2908421165 1.4831588729 0.0124774957 7.8474281411 4.4204297884 2.5267436525 1.0021903016 4.5132651858 2.2113045717 3.9625818372 1.5948262461 4.7271742620 8.9983420338 1.4346509196 2.7420297299 6.0769939082 4.4620698754 0.3013159472 1.1808432169 4.5265102651 3.7389153396 3.8147716617 1.4699991344 1.2616315374 8.8557458014 1.4499092870 1.2162081815 6.2015149069 4.5160578268 3.7610597473 4.5933925095 4.5673967916 0.7133010310 0.4096146206 1.4743052212 3.2061688319 5.4430688410 1.5089489394 4.2875087918 9.5909803021 4.4280839072 1.7397207099 1.7687780091 5.7319190305 1.5625391163 3.2492004723 0.3838203772 3.9951276169 8.2543983676 2.6382693619 3.4620051822 6.7963309493 3.2406410246 0.9831280628 8.2204305666 0.2448443098 3.3875071268 6.7930904138 5.6762517583 1.0210462944 1.7570003128 3.3138642665 1.5302475703 3.2293039354 2.7963703697 4.0372019544
5.0647761520 -0.0499685398 2.4455349219 2.7827828849 4.5808967017 4.9253347684 2.1775584749 1.5202772672 2.3966557819 7.4331061375 1.5190295464 0.0471396034 8.0777485970 4.5602877953 2.5729470051 1.0691599016 4.5695271568 2.2035227462 3.9941673940 1.6232442369 4.6369004150 9.1743437487 1.4996502463 2.7908723515 6.2405137124 4.5176425867 0.3191329377 1.2602197446 4.6168855637 3.7295253782 3.8070405526 1.5777978752 1.2169236465 8.9823547465 1.5009375509 1.2703632899 6.4332024701 4.6025883702 3.7442690771 4.7191357080 4.6074554066 0.6593513035 0.4049653418 1.5206743492 3.1999633312 5.5028209840 1.5082500144 4.2558316552 9.8403238133 4.5112540584 1.7632229319 1.8137855967 5.7895023558 1.5117642491 3.2672635817 0.3978120208 3.9132212180 8.3846292946 2.6861789103 3.4865433847 6.9627013403 3.3034207896 1.0002905798 8.4248692545 0.2757864426 3.4648135934 6.9339253104 5.7111438764 1.0919223082 1.8894600378 3.3976428982 1.5296281563 3.3116977825 2.8357051939 3.9125192014
5.1839689502 0.1337751294 2.4660097881 2.8268824803 4.6177104386 4.9168445763 2.1907489622 1.5511661606 2.3662511800 7.4582051332 1.5340718497 0.1685748450 8.0821586670 4.5828967635 2.6610911576 1.0752494446 4.6119456633 2.2330740898 4.0605486465 1.6237535578 4.6354874780 9.1971556653 1.6042977285 2.8471406811 6.1729416717 4.5292829466 0.3998690001 1.3090399493 4.6366591251 3.7492996683 3.8392870105 1.4241475045 1.2115590039 8.9801500066 1.5902616920 1.3159062454 6.3972011147 4.6873061456 3.8162875127 4.6721078219 4.6100574225 0.7613875319 0.4398963415 1.6384842630 3.1233311828 5.5626573193 1.5486933227 4.2996925021 9.8457619876 4.5649404025 1.9476815024 1.7714812990 5.8161334018 1.5074135122 3.3255726818 0.4584219605 3.8477000368 8.4705288889 2.7951140456 3.5954290174 6.8709144633 3.3125937836 1.1072802367 8.5058878384 0.3735196468 3.5286511912 6.9472248956 5.7269472975 1.1265604220 1.8188283034 3.4215811227 1.4871289716 3.3504548538 2.8520641898 3.9874310792
5.0659290509 0.0362722462 2.4905842577 2.6518587643 4.5378802453 4.9463804640 2.1536497963 1.5968113172 2.3910283305 7.2516713745 1.4246808144 0.0460313558 7.7121976022 4.4345583832 2.5562042269 1.0120191121 4.6352605214 2.2015111806 3.8837738014 1.5247385539 4.6737188789 8.8657076082 1.3970360054 2.8061542198 5.9850505622 4.4678522997 0.2851145095 1.1821624600 4.6360198321 3.7319070328 3.7331065126 1.5377352844 1.1647300032 8.7120119429 1.3868535683 1.2712224441 6.1243978162 4.4942136098 3.7935486327 4.4788669398 4.5622949729 0.6692354413 0.3757919755 1.5449984709 3.2588814702 5.3929847294 1.4931216196 4.3302318324 9.4882367281 4.5493275775 1.7956541666 1.8106992709 5.8223993841 1.5643268363 3.2131103889 0.2991898068 3.9652060037 8.0833943099 2.6092899371 3.4646228565 6.7126974702 3.2766644080 0.9781191458 8.0556362374 0.2120390846 3.4535466420 6.7230404961 5.6997049204 0.9620235093 1.7403082744 3.4108256791 1.5116764564 3.1304156929 2.7185129604 4.0083754019
5.0992109755 0.0858524068 2.4018620041 2.7104065431 4.5968483596 4.9351234701 2.1451815712 1.5275698726 2.3735127654 7.3747912267 1.5150737784 0.0049001070 7.9282214708 4.4678333340 2.5676124435 0.9989761951 4.5563313591 2.1891367076 3.9512826055 1.6226568083 4.5965769944 9.0915366907 1.4637544965 2.7247356445 6.1005529489 4.5011772616 0.3076907918 1.2255459166 4.5599979014 3.7078263798 3.7924383352 1.5265301836 1.1606998773 8.8502840563 1.5404721116 1.2165025414 6.2417108780 4.5519630366 3.7420528845 4.5967201980 4.5585454538 0.6773983985 0.4278499553 1.5342893582 3.1555733960 5.4658268992 1.5467924813 4.2504337184 9.6503115344 4.5235241927 1.7867179534 1.6844545258 5.7846573515 1.4671821177 3.2351952985 0.3969568727 3.8648446834 8.3481029632 2.6611686233 3.4519112429 6.8371620432 3.2808037286 0.9801689074 8.4049530650 0.2381989111 3.4266584091 6.8259120498 5.7099704036 1.0176764534 1.7547995764 3.3654695065 1.4690207447 3.2623159725 2.8453086673 3.8888452260