-28927.7984335582
-28927.8278132661
-28927.7770295028
-28927.7805292931
-28927.8133691988
-28927.7505162405
-28927.8229956291
-28927.7481634094
-28927.8347094436
-28927.8111732413
-28927.8193161077
-28927.8362569542
-28927.8081831199
-28927.8317846295
-28927.8031452069
-28927.7885597765
-28927.7917554798
-28927.7990088065
-28927.782312046
-28927.8016996028
-28927.8478419228
-28927.7967046838
-28927.8116532498
-28927.7726203084
-28927.8021416515
-28927.818318811
-28927.8214048524
-28927.7819359849
-28927.7998187529
-28927.8584928612
-28927.8225874586
-28927.8168817785
-28927.8235008082
-28927.8272357048
-28927.8074836516
-28927.8043196496
-28927.8279113631
-28927.8197014207
-28927.8004623018
-28927.7706390486
-28927.7760342469
-28927.7726882008
-28927.7971170721
-28927.8320325251
-28927.7917489491
-28927.8153292338
-28927.7874208446
-28927.781821561
-28927.8164527913
-28927.8210698805
-28927.8422389657
-28927.8290059404
-28927.7725560896
-28927.8096318532
-28927.8232423002
-28927.8195838675
-28927.8063241752
-28927.7889709403
-28927.8009340109
-28927.8250753941
-28927.822863654
-28927.8327978448
-28927.7803189492
-28927.7460043233
-28927.7602086584
-28927.7810410029
-28927.7722926835
-28927.8574112092
-28927.8231952245
-28927.7888978778
-28927.7723997603
-28927.8157478807
-28927.7833644457
-28927.80075945
-28927.8061128789
-28927.7809974647
-28927.7802612611
-28927.8287394051
-28927.8000425665
-28927.786935938
-28927.7984656676
-28927.862474837
-28927.8201279589
-28927.7899987138
-28927.8284705567
-28927.7824357217
-28927.8046200631
-28927.8056136863
-28927.8227180731
-28927.7868572972
-28927.8416457578
-28927.8232066533
-28927.8241459898
-28927.7966626422
-28927.7848786224
-28927.8230318202
-28927.7929799915
-28927.8059252565
-28927.8268122958
-28927.7887800526
-28927.7826091942
-28927.8174768912
-28927.8099325389
-28927.7874382599
-28927.7708205484
-28927.8089216365
-28927.7648724151
-28927.8115845411
-28927.8284761351
-28927.7848644725
-28927.765405894
-28927.7617198418
-28927.7743437405
-28927.8265346038
-28927.7753599492
-28927.818591741
-28927.8536417542
-28927.8246198758
-28927.7821845607
-28927.7921260987
-28927.8245387859
-28927.7865613735
-28927.7903218488
-28927.8021722643
-28927.7806815407
-28927.8402279094
-28927.8595210428
-28927.808599862
-28927.7887922977
-28927.8181574475
-28927.8175849203
-28927.7724754079
-28927.8258035704
-28927.7938112988
-28927.8224445989
-28927.823325703
-28927.775742405
-28927.7766167063
-28927.8053576273
-28927.8311189033
-28927.8074937198
-28927.7978200778
-28927.7776288332
-28927.8044615569
-28927.8058840312
-28927.8234742771
-28927.7849624334
-28927.7778284286
-28927.7950817977
-28927.7965944777
-28927.7843684092
-28927.7981905606
-28927.8058374998
-28927.7871490031
-28927.8214024034
-28927.8278838796
-28927.7993247305
-28927.766164683
-28927.7816031898
-28927.7966079474
-28927.8279208871
-28927.8642294261
-28927.8310880184
-28927.8006454344
-28927.7946968928
-28927.791779834
-28927.8247446399
-28927.8010454415
-28927.8046372063
-28927.8141373758
-28927.8053219804
-28927.849433924
-28927.7963200511
-28927.8144531637
-28927.8327558033
-28927.7556691216
-28927.8323654562
-28927.8096185197
-28927.8450667712
-28927.8148935798
-28927.7838111204
-28927.7971864611
-28927.8577040035
-28927.8585459233
-28927.7869896805
-28927.8303080045
-28927.8623142899
-28927.7888849524
-28927.8157127781
-28927.7992169735
-28927.7872642432
-28927.8164708868
-28927.8014202781
-28927.8450503084
-28927.7928507374
-28927.8435712344
-28927.8406256036
-28927.7483473583
-28927.8556017892
-28927.8449118025
-28927.8463937337
-28927.7795827456
-28927.8255597565
-28927.8028967671
-28927.8196610118
-28927.8241816367
-28927.8051746308
-28927.8653365207
-28927.8389267977
-28927.8187959623
-28927.855893495
-28927.8308510074
-28927.8056076998
-28927.7845350789
-28927.8178329519
-28927.8055108273
-28927.8146609226
-28927.7869494077
-28927.8134180432
-28927.8227046035
-28927.8193129784
-28927.8054247033
-28927.7507882182
-28927.7967566575
-28927.816059723
-28927.8020317176
-28927.8039031796
-28927.8333149969
-28927.7977188515
-28927.7864360652
-28927.7860684396
-28927.7540191602
-28927.8006725097
-28927.7646294175
-28927.8021039638
-28927.8621117012
-28927.8271616898
-28927.7828376336
-28927.8332077841
-28927.8638647938
-28927.786328036
-28927.7749996706
-28927.7736008701
-28927.8058783169
-28927.8086210869
-28927.7661388322
-28927.8261865704
-28927.8128482371
-28927.8338784083
-28927.798519274
-28927.7919051423
-28927.7714798799
-28927.8084726489
-28927.8520788692
-28927.8076671923
-28927.808954018
-28927.8009907466
-28927.7847489602
-28927.8111526967
-28927.8220009175
-28927.7842119438
-28927.8310491061
-28927.7749187168
-28927.7813581514
-28927.8198640086
-28927.7798751318
-28927.8221237768
-28927.8044226446
-28927.8067343866
-28927.8222705821
-28927.8441368227
-28927.7520081039
-28927.8191318867
-28927.8100424728
-28927.8078408009
-28927.7786366063
-28927.7857623116
-28927.8120049568
-28927.8070263646
-28927.7822308201
-28927.8151674622
-28927.7532913921
-28927.8213494773
-28927.775223212
-28927.7819129913
-28927.8303414745
-28927.7832954649
-28927.7528550578
-28927.7866449124
-28927.8382154925
-28927.8199757113
-28927.8260314656
-28927.7911181895
-28927.830964887
-28927.7482070837
-28927.8047871409
-28927.8178008425
-28927.7776444797
-28927.8218353363
-28927.7629227204
-28927.7750871552
-28927.8260471121
-28927.8130079679
-28927.7728571834
-28927.8137504301
-28927.782766748
-28927.8290198182
-28927.8265980063
-28927.8287331464
-28927.8125583
-28927.8149894998
-28927.8205248367
-28927.7756965538
-28927.7927723687
-28927.815288961
-28927.8237503364
-28927.7862748378
-28927.8034668453
-28927.80708242
-28927.7886452202
-28927.7860221802
-28927.8147968434
-28927.7843114014
-28927.8034310623
-28927.7981071578
-28927.7709972863
-28927.8170517135
-28927.8199211525
-28927.8227311346
-28927.7838337058
-28927.8461329127
-28927.8316896618
-28927.8170080393
-28927.768086486
-28927.813853017
-28927.8439226692
-28927.7908671646
-28927.8640458854
-28927.8158647536
-28927.8196358413
-28927.7881545992
-28927.7729541919
-28927.8210689281
-28927.8413548683
-28927.7624401268
-28927.8172119885
-28927.8143346582
-28927.7482016414
-28927.8158912846
-28927.8204806182
-28927.748270078
-28927.8081360442
-28927.8067654075
-28927.8373156125
-28927.8249143028
-28927.7740646879
-28927.8613671982
-28927.7723476505
-28927.8157620306
-28927.8166881696
-28927.8305641995
-28927.7985690708
-28927.8158433926
-28927.8475136176
-28927.7689320794
-28927.842526998
-28927.8016020501
-28927.8295875835
-28927.8169638208
-28927.7821476893
-28927.8050821122
-28927.7959139214
-28927.7856525138
-28927.8304458301
-28927.803911479
-28927.8301222869
-28927.8210029405
-28927.8246292637
-28927.8013213648
-28927.8339743284
-28927.781136923
-28927.8166249032
-28927.8218747928
-28927.8201607486
-28927.8207445685
-28927.8662487819
-28927.8023495464
-28927.8523492141
-28927.7868332151
-28927.7848046075
-28927.7982053908
-28927.8551843667
-28927.8300319451
-28927.8012348326
-28927.8199309486
-28927.7944438271
-28927.7763511233
-28927.8549341582
-28927.8201016999
-28927.7836396887
-28927.7918546653
-28927.7623704657
-28927.8507029262
-28927.8025932242
-28927.8296752041
-28927.7945423323
-28927.8130957246
-28927.8050495946
-28927.8295469025
-28927.8029194885
-28927.7972351694
-28927.845583243
-28927.8226832426
-28927.7803937805
-28927.7886365126
-28927.8077963103
-28927.8079425714
-28927.7709850412
-28927.8174547139
-28927.8199449624
-28927.7845875968
-28927.78953027
-28927.8048336724
-28927.7447228038
-28927.8072048711
-28927.8071728978
-28927.7809978729
-28927.8184212618
-28927.8166815028
-28927.8152553549
-28927.8186777289
-28927.8164129266
-28927.8092597377
-28927.8086228556
-28927.8076282801
-28927.8040683526
-28927.7953672449
-28927.7877683338
-28927.7886867176
-28927.8154089631
-28927.856199623
-28927.8055153172
-28927.7702674773
-28927.8590242992
-28927.8129154492
-28927.802743567
-28927.8139259435
-28927.8108174526
-28927.7999058293
-28927.8147735776
-28927.8341755565
-28927.8202177564
-28927.8037525646
-28927.7600189951
-28927.7690007881
-28927.7944860047
-28927.8209457966
-28927.8448500327
-28927.8455733109
-28927.8454421521
-28927.8400409673
-28927.8439124649
-28927.779921119
-28927.791380099
-28927.8300776602
-28927.7716145762
-28927.8268589633
-28927.8135463448
-28927.7694144009
-28927.8149846018
-28927.7856289759
-28927.8211313782
-28927.7928171314
-28927.7712228685
-28927.7839135712
-28927.7958899754
-28927.822353985
-28927.7459324853
-28927.8369007752
-28927.776110983
-28927.8098718575
-28927.8136131488
-28927.8056300131
-28927.8284229368
-28927.804114748
-28927.7876068344
-28927.8251846478
-28927.8278880974
-28927.7874518656
-28927.8193680814
-28927.8259924173
-28927.8194727091
-28927.7864206907
-28927.8491626266
-28927.8003541366
-28927.7797853342
-28927.8270169254
-28927.7729320147
-28927.8300697689
-28927.8213071636
-28927.7780915625
-28927.7978296018
-28927.7886988266
-28927.86084025
-28927.783207164
-28927.7935644917
-28927.8140996881
-28927.8105367673
-28927.8024751269
-28927.7848232473
-28927.8258185366
-28927.782063198
-28927.7681082551
-28927.8452777954
-28927.8257993526
-28927.8043548883
-28927.7912556069
-28927.7904521912
-28927.7833157374
-28927.7975648352
-28927.8456012025
-28927.7710293957
-28927.8543190452
-28927.8224217413
-28927.8252230158
-28927.860148673
-28927.7837391463
-28927.8053704166
-28927.7451415868
-28927.8146711268
-28927.765260041
-28927.7646933643
-28927.8008104713
-28927.8474623242
-28927.8318521137
-28927.8069712615
-28927.8633537642
-28927.7823630673
-28927.7750705562
-28927.8253197522
-28927.8349508084
-28927.8194630491
-28927.810074174
-28927.7898902765
-28927.8573355616
-28927.8450626895
-28927.8106911919
-28927.7760066274
-28927.7789621903
-28927.81356825
-28927.7889068576
-28927.7631470782
-28927.7751501495
-28927.7723630249
-28927.7848171247
-28927.7947959422
-28927.832491989
-28927.7790039598
-28927.8154408004
-28927.7986219969
-28927.7995062304
-28927.845137929
-28927.8155262441
-28927.8125071426
-28927.7774651568
-28927.8081635277
-28927.8196850938
-28927.8076960364
-28927.8237225809
-28927.8064119318
-28927.8109147333
-28927.8051761275
-28927.80940872
-28927.7873925448
-28927.7914403721
-28927.8636783959
-28927.7484510336
-28927.786215381
-28927.8119739358
-28927.8261246645
-28927.8018538913
-28927.8036498417
-28927.8329888686
-28927.788101401
-28927.827650406
-28927.8219090791
-28927.7764429617
-28927.827889594
-28927.7981407638
-28927.7930613535
-28927.8127279629
-28927.7769578008
-28927.7845447389
-28927.861572644
-28927.8319284416
-28927.7768953507
-28927.8141609136
-28927.8193457681
-28927.7603368239
-28927.7783382336
-28927.7675448437
-28927.8261932372
-28927.7990097589
-28927.8414492917
-28927.7484314414
-28927.8184301055
-28927.7635306224
-28927.7863106207
-28927.7935931997
-28927.7876333654
-28927.7995554829
-28927.8395824557
-28927.8278535389
-28927.8304631093
-28927.8570974621
-28927.802377302
-28927.8045487693
-28927.8069133013
-28927.8402298142
-28927.7909932893
-28927.809372801
-28927.8057576344
-28927.7823017057
-28927.7969904032
-28927.802109134
-28927.7755741026
-28927.8627708967
-28927.8068928928
-28927.7829623977
-28927.7667593875
-28927.7991470403
-28927.82371088
-28927.8042593764
-28927.8200646925
-28927.7933364604
-28927.8009733314
-28927.7847715457
-28927.8083190407
-28927.8115273973
-28927.7559103504
-28927.7707325196
-28927.7873389384
-28927.8139542433
-28927.8643024886
-28927.8108624874
-28927.7904321909
-28927.808932385
-28927.7715196085
-28927.8094639591
-28927.8022915862
-28927.7946702257
-28927.8386544119
-28927.8226952156
-28927.811715972
-28927.8267997786
-28927.8589693323
-28927.7735367874
-28927.8067524821
-28927.8257228887
-28927.7984296125
-28927.8510791234
-28927.785846939
-28927.8008783637
-28927.789233394
-28927.8034264364
-28927.8110088846
-28927.8599976499
-28927.8202734037
-28927.7816982935
-28927.7992028236
-28927.7873324077
-28927.7849588959
-28927.8248899486
-28927.8223236443
-28927.8304235168
-28927.8141304369
-28927.7733208652
-28927.7509125741
-28927.7705530607
-28927.8079163124
-28927.8283456565
-28927.7780692492
-28927.807860257
-28927.813647163
-28927.797425513
-28927.7989649962
-28927.7677542352
-28927.7985030832
-28927.7568159448
-28927.8209716474
-28927.862491708
-28927.8202086406
-28927.7853374061
-28927.793625037
-28927.7914335693
-28927.819448491
-28927.793476599
-28927.8310397182
-28927.798277637
-28927.7885385517
-28927.7678472981
-28927.7952790801
-28927.8120770669
-28927.8063390054
-28927.8073018797
-28927.7860993245
-28927.7921554869
-28927.8028341809
-28927.820755317
-28927.8047816986
-28927.8509568083
-28927.8185956866
-28927.78059841
-28927.829047982
-28927.865059645
-28927.7881529665
-28927.8580788402
-28927.8138736976
-28927.7785646322
-28927.8083632592
-28927.764967927
-28927.78200102
-28927.8244736147
-28927.8058734188
-28927.8252476421
-28927.7765358885
-28927.7827451149
-28927.7870573007
-28927.8110703823
-28927.8665445695
-28927.8370211855
-28927.7818659156
-28927.8076386204
-28927.8103405734
-28927.8538896498
-28927.8041271291
-28927.8442711108
-28927.8226720859
-28927.7639673649
-28927.8328265528
-28927.7468394402
-28927.8428894535
-28927.8188826305
-28927.8203310918
-28927.8273125769
-28927.8214151927
-28927.8257541817
-28927.8193571968
-28927.7920002461
-28927.7930995854
-28927.8277735375
-28927.8046259136
-28927.7999737217
-28927.7738027785
-28927.7883386841
-28927.7839475854
-28927.8211770933
-28927.7852591734
-28927.7862410957
-28927.837704463
-28927.7834025416
-28927.7516127227
-28927.8066935695
-28927.7637606946
-28927.8197550271
-28927.7888071279
-28927.7863264033
-28927.7744125853
-28927.8294482613
-28927.8172383835
-28927.8429376176
-28927.7877159519
-28927.7929790391
-28927.8291855355
-28927.7839685381
-28927.7885350142
-28927.7857785024
-28927.8073080022
-28927.7906474328
-28927.7991026857
-28927.7449328756
-28927.8644313345
-28927.8470258538
-28927.8646578691
-28927.8143353385
-28927.8057867506
-28927.7999369863
-28927.8183638458
-28927.8256695544
-28927.8228690962
-28927.8595875746
-28927.8118103955
-28927.7826293306
-28927.7476451689
-28927.7874494166
-28927.7715030096
-28927.8649162411
-28927.817323283
-28927.8298986094
-28927.7887650863
-28927.8445628167
-28927.7820203401
-28927.7561363408
-28927.7904041632
-28927.8225632404
-28927.8223417399
-28927.8071493599
-28927.7842463662
-28927.8067492168
-28927.7883950117
-28927.8231013453
-28927.7735491685
-28927.8237119684
-28927.7844870508
-28927.7741456418
-28927.8202697301
-28927.8453746679
-28927.8117766534
-28927.7959140574
-28927.8188513375
-28927.7857191816
-28927.7818814261
-28927.802980306
-28927.7977417091
-28927.8275740781
-28927.8228176667
-28927.8024926782
-28927.8071848708
-28927.8532850131
-28927.8281425237
-28927.7874041096
-28927.8262982731
-28927.8044034606
-28927.7914556105
-28927.8649373299
-28927.7774956335
-28927.8657985698
-28927.7724344548
-28927.7836458113
-28927.7790680425
-28927.8319312988
-28927.8184594937
-28927.7864247725
-28927.8252775746
-28927.8061739684
-28927.796130932
-28927.8193574689
-28927.8195576086
-28927.7823159916
-28927.857281547
-28927.8140690753
-28927.8197229176
-28927.8120406037
-28927.7993780648
-28927.7893169329
-28927.8053470149
-28927.8272774742
-28927.7920760297
-28927.7854436665
-28927.8288502914
-28927.8184754124
-28927.7793646465
-28927.820812597
-28927.8452757546
-28927.7881424902
-28927.8650708017
-28927.7871264176
-28927.7585499893
-28927.8179147221
-28927.787598807
-28927.7603851241
-28927.8199984328
-28927.8059802234
-28927.7720099574
-28927.7610633675
-28927.775969892
-28927.8255100957
-28927.7857110182
-28927.8239209517
-28927.7889027758
-28927.8083213536
-28927.8352781612
-28927.8630287244
-28927.8275650984
-28927.8049558514
-28927.8524628216
-28927.8504946232
-28927.7895155759
-28927.8042770638
-28927.8345770603
-28927.7603184563
-28927.7869781157
-28927.8094081758
-28927.791198327
-28927.8014474895
-28927.8129630691
-28927.7932795886
-28927.822153029
-28927.7850874697
-28927.7999848784
-28927.7860493916
-28927.7880065694
-28927.8498472647
-28927.7728026246
-28927.7861872172
-28927.7854919667
-28927.7999705924
-28927.8344493029
-28927.7836278518
-28927.8607854191
-28927.8486601687
-28927.7954868389
-28927.774670277
-28927.8175964851
-28927.8049768042
-28927.8086412233
-28927.7826981753
-28927.8020575684
-28927.7851915532
-28927.8564675189
-28927.7627555066
-28927.8220124823
-28927.8294520708
-28927.7709955175
-28927.8039052204
-28927.8014004138
-28927.8098415168
-28927.8247005575
-28927.8016960654
-28927.7803296977
-28927.7977304164
-28927.796513796
-28927.8302647384
-28927.8139973733
-28927.7727759575
-28927.8646547398
-28927.8353289104
-28927.7952145892
-28927.8035831739
-28927.806814388
-28927.7817453692
-28927.8024552626
-28927.7846749453
-28927.832707231
-28927.7870490013
-28927.805871378
-28927.8193554281
-28927.7490620649
-28927.8103281922
-28927.8040626382
-28927.7666769371
-28927.8605278635
-28927.8071417408
-28927.8022469595
-28927.8028541813
-28927.8227187534
-28927.8296881295
-28927.8539998558
-28927.7946417898
-28927.8034748726
-28927.8135056638
-28927.8287872971
-28927.7818577522
-28927.8201297276
-28927.8666785855
-28927.7828796752
-28927.8233402611
-28927.8047720386
-28927.8006961836
-28927.7910584606
-28927.8569362347
-28927.7627386355
-28927.8132173594
-28927.843580078
-28927.7932410845
-28927.8216516595
-28927.8142807797
-28927.7743674144
-28927.8142675822
-28927.813161304
-28927.8040273995
-28927.8221860908
-28927.8146640519
-28927.8175877775
-28927.7878771793
-28927.8166285767
-28927.7614424219
-28927.7817309472
-28927.7855990434
-28927.7515472793
-28927.7925495076
-28927.7939040896
-28927.7855104704
-28927.7860583713
-28927.7897855127
-28927.8450488117
-28927.7874007082
-28927.7970811531
-28927.8037939259
-28927.7612818748