0.162969546739506 -0.221654946057788 -0.0366489997354941 0.179503017070994 0.072173142419433 0.284680108158516 -0.179053074250372 0.033119134030168 0.146907102263664 -0.0585077361816819 0.0772477261055006 -0.390090398182211 -0.49797871615171 0.229475466500566 0.189084228048413 -0.571597332021164 0.0728436857772515 -0.0337410835633593 -0.0313705276741389 -0.106201418057441 -0.0119995893607165 0.0441944122822351 -0.299635950405811 0.243354531300567 -0.20381458466503 -0.268217600237595 -0.0815075276209674 0.0798231988107415 0.0883816254793401 -0.262613112463926 0.00435698916472116 0.212402579004698 0.0674867951100165 -0.0619126463379667 -0.212912428498009 0.0313101067810839 0.00962337704746537 0.000937937948359659 -0.203199834216969 0.360635084262823 0.12514709612783 -0.150376032855568 0.157502612913856 -0.102764883348621 0.0368588016449956 -0.324204885293243 0.0750062395282529 -0.0567282766036673 0.29825295473031 0.130160744700476 -0.319541420790132 -0.0565048478544556 -0.103876370670649 0.352283888401894 0.373172805237004 0.012862451135578 0.0569465631492149 -0.0946376304572698 -0.124027124169755 0.0978674485787868 0.0876681447209251 -0.147019973634094 0.145974306518968 -0.0245769053031117 0.0876324064054586 -0.225163214507724 0.106520491794808 0.170866686016882 0.337633750162439 0.082158787715045 0.0496487477089077 -0.118348074442955 0.157777206589527 0.148403997750328 -0.10043032288505
-0.101618943262042 0.0936577835490464 -0.00373992472501086 0.243612669924513 -0.347489040595162 -0.151004153033157 0.176459860942489 0.232864692935675 0.0159793978866647 -0.263188525053956 -0.113110225790547 -0.240397764193622 0.102368162335924 0.195093921470824 0.329279468979311 -0.227236808135334 0.16775411013891 0.121573778801541 0.0496109525119754 0.373804524957157 -0.214147328707979 0.324954361477308 0.432561400906372 -0.0954125605494726 0.270604354068357 -0.223917772780242 -0.0447909079072883 0.19126323685114 0.1817972112358 0.0305274633833847 -0.204495926650544 -0.24954600162251 0.346895373182124 0.00893175065462341 -0.138363073765325 -0.201766187835375 -0.0216471347654038 0.0723351218348569 -0.370220409003173 -0.217011021928602 0.233490756231798 -0.118434977684881 0.18121614222174 -0.0924228833390762 -0.119384742701668 0.072217879591312 -0.108806715543934 0.0591672238016223 -0.0501981921704331 -0.252644436440406 0.0867356060864129 0.1534693254698 0.124242325393104 -0.00350312624627203 0.0134486623533028 0.0296468610058815 0.0449215198803603 -0.121981555552116 0.163495337064176 0.433127300419623 -0.0321112621119745 -0.00848540737656629 0.0953727084710746 -0.258115998249354 -0.418428825465724 0.154978305135074 -0.169705062209127 0.0931512764881176 0.0484956085371991 -0.0803165932523265 -0.230917340408023 -0.139817546071759 -0.0405303350612719 -0.209763342974021 -0.0644343830149162
-0.0416155971446124 -0.0307812311342156 0.0644932612468719 0.0607227404100587 0.00275493561312329 -0.0484704117392442 0.591563223298541 -0.0940519334599114 -0.315839291262054 -0.162943835721185 0.0682025898600804 -0.206832801105763 -0.166066438896302 0.0714807446960414 0.291530808990216 0.488482094424569 0.254867153974279 0.144082232680707 -0.0828126189109547 0.250610437781011 0.243552763251824 -0.144048808356889 -0.404970907145825 0.184703584746836 0.119192938504992 -0.0712100076731185 -0.312968398956302 0.00105466597153819 -0.0335942736487449 -0.0589399383996623 0.17381805380998 -0.0234427922849608 0.0622900840869229 0.0588486642846219 -0.0249646274593963 0.346125328183402 -0.119492214758251 -0.146410108279514 -0.13473164953763 0.277453769349142 0.0594202202219035 0.149784679434179 -0.0569398782844513 0.137368828686842 0.329573603028906 -0.126483297749986 0.0484089624054564 0.0100082709917347 -0.134707481180408 0.0762439679502385 -0.21310294714377 0.0749951837903748 -0.455968197765683 -0.0403981804271006 -0.0694763137077158 -0.0639818690924619 -0.340768437516167 -0.321192582386724 -0.0314666868826604 -0.204739667104229 -0.192478082466819 0.105142381212788 0.0980775075984715 -0.166733382711556 0.194842981932009 -0.179737758668267 -0.0638643697387338 0.00825400821167493 0.298655075056855 0.0578176524499392 0.0233605170263328 0.0657258474651932 -0.0550943413893511 0.0798849052547125 -0.232073307791747
0.116583527255567 0.119325350249346 -0.059278038290587 0.582825847942426 -0.22884348967023 0.121226937164387 -0.254046972489831 -0.0431315187848341 0.217365576871252 0.0537841078956996 0.183210288802737 -0.290575387549398 0.00325732891112076 0.127174924142828 0.0798499382697956 0.0733468504057986 0.0852901326363915 -0.338521037404705 -0.46542445319406 -0.0409859343059247 -0.00896311809697535 0.117306006870394 0.385381168066489 -0.00718905783280823 -0.0979201561663453 0.165751993142233 -0.152868201861448 0.0474957070346852 0.262444962404105 0.0135036839325103 0.204705471449862 -0.0482341274808718 -0.0395152640579485 -0.108682017105076 -0.371552753972581 0.233355516275428 0.0444880321114639 -0.112882426168221 0.11387872812817 -0.0111213009748621 0.231911585486506 -0.0309254699469978 -0.169887610439208 -0.0589965026399691 -0.136894460398814 -0.137930357326978 -0.236345964816374 -0.0626430963684738 -0.0529202176801051 -0.0408123849322562 0.102070685853947 -0.0430096485579913 -0.186221820378706 0.235464848218505 0.124486580067156 0.0112256877092465 0.173712381524679 0.17937703308122 0.0202075748495963 0.0256115166803593 0.0234908718892216 -0.409877854992438 -0.0474468560998748 0.0211506550016202 -0.0786818867074606 -0.135515321376062 -0.31430074392571 -0.0717154862933145 0.0707904038541155 0.0251698013856 0.076519075846276 0.0417858040858992 0.0377756565583318 0.259839407807428 -0.118280968685136
0.0751116547033701 -0.119417652805119 0.177053785465711 -0.561615800488484 0.0336508378890517 0.0146138857036224 0.0154548931129109 -0.140919520317008 -0.0288765588969764 0.0328512252192604 -0.00949713594750797 -0.139723957965069 0.131951774236735 0.152295617483434 -0.27456050845745 0.038983817309248 -0.0871102156233537 -0.249250582021999 0.362661883837088 -0.023064583205455 -0.125322445272781 -0.217749956595155 0.17909369765932 0.234051513541385 0.123349381726807 0.416358060050129 0.0824135839066087 -0.124499435576317 -0.0715169972318744 -0.194263455579048 0.29529978716593 0.194247000527322 -0.366133128420642 -0.081879566056076 0.109221177159273 0.127870150078234 -0.212531648316671 0.0591199155279112 0.0825269694974054 0.467392117426187 -0.0615935726005999 -0.0924660778498559 0.0718977774132123 -0.0849456049908866 -0.194789760124084 -0.336227614570449 0.133586480781601 0.199093270370697 0.345649674344459 0.123376635406227 0.418539639954688 -0.163109671789357 0.154841008297239 -0.00144161679727319 0.038125326407501 -0.106069777643636 -0.0270983848698779 -0.329918130674411 -0.299085477503553 -0.133735861798047 0.036760071334642 -0.111197326027445 0.207968456785013 -0.129701288803075 0.0264170428843645 0.180806822810065 0.0812308770638306 -0.300109547363289 -0.286840605028051 -0.101756754320244 0.0575690269027726 0.193121886365584 0.142270120109424 -0.2252493464191 0.196442978602141
-0.0437791793363467 0.0336611222963802 0.0501925357464024 0.555656757772165 0.187757796613219 0.228795924286335 0.191249867121612 -0.144011527380323 -0.0226148974950161 -0.440509190889841 0.0719504850007709 0.0847653707524545 -0.114852404391996 -0.120012862879257 -0.0493476716843657 0.143512219404524 -0.0113745545053266 0.00941794601107849 0.19009801350082 -0.606364542325725 -0.738469040011289 -0.0590934331790403 -0.414902045082596 0.0421586138515575 -0.51484848660284 0.209938435008789 -0.088537434250367 -0.405243958160397 0.0812411614711591 0.149894722592594 0.0131930948311895 -0.092293299806737 0.435255401406074 0.0347664389740113 -0.0183234714270142 0.138956998288546 0.109235832439716 0.0608435821961686 -0.115321630476359 0.357858037173944 -0.200499920183053 -0.082013777571713 -0.0763442409216914 0.188227794028131 0.219907625252675 -0.264814232742409 0.183603153162686 0.170256049331752 -0.214053483491107 0.0103021479311467 -0.10633023025923 0.0104949805685562 0.0712606583792114 0.094737132098173 0.0364713365988942 0.225117963115479 -0.10009016611266 0.259030796281224 -0.121497931297493 -0.0826488397242482 0.13975044031394 0.0974748413290211 0.0311087895076285 0.0525484363551797 0.305048633982803 -0.218264691181946 0.201475653328345 -0.287088202134485 0.288809554811094 -0.262584573233589 0.27081184198621 -0.369953014412632 0.100781278285135 0.0191287405208362 0.029335500574011
0.0436884194416726 0.0380787894643395 0.038434887068089 0.304732902677818 0.0518925482778043 0.0186014075350671 -0.0277342183529627 0.114851375951263 0.146496497301073 -0.0805778171984705 0.0139600545077127 0.129181412012619 -0.221409662943003 -0.0843560513407801 -0.0484015062101432 -0.398306868307137 0.320625140212374 0.00293337008027285 0.560784049045791 -0.151098512470396 0.291632881732952 -0.147594357783391 -0.160976428599242 -0.279968564051144 -0.445802832452006 0.085377807208867 -0.108160340543338 -0.183179692690935 -0.079666618709165 0.00446343278057118 0.0237158432995326 -0.249005813127581 0.059632336123054 0.0517315973031132 -0.21071002266861 -0.02578763715586 -0.00388082110541137 0.0432425903839819 0.193588284237931 -0.0873670686963831 -0.121112266022674 -0.111168529686926 -0.134371181060766 0.0794005096695399 -0.197654996005805 0.542931603474422 0.0317582498304236 0.0927694678660468 0.202659645722039 -0.0411893084608459 0.276278518701677 0.0685422324121043 0.081019789603413 0.0160830132904994 -0.202394050902781 -0.126399736940441 -0.18631335160393 0.211322202014839 0.212211031918205 0.20123834062924 0.00944982767379685 -0.145252084014324 0.0843737919434217 0.250161009180755 0.0500845494694531 -0.00898600090328127 0.204551205339934 0.0524124250682602 -0.258241982239128 -0.262846825620466 -0.128274327286245 -0.276882727632226 -0.278805140472107 0.323126308074666 -0.0541420052707315
-0.0466349021412893 0.0312484003371129 0.0505599461982132 0.54959564231311 0.176188866809383 0.213509695453612 0.167788820013644 -0.126527006481132 -0.0062536909862807 -0.384031596714806 0.0504172500465302 0.0953665378266775 -0.125561043522802 -0.0953251430871803 -0.00862296132458504 0.0939927981177725 -0.00303030061934401 0.0779493797954878 0.153271864849092 -0.526749859873569 -0.565024310187334 0.0398891022643396 -0.347016214968234 -0.0497549342145745 -0.480294934860529 0.242689901476963 -0.201702167399755 -0.404130671067086 0.0990450132179006 0.140021948667413 0.00727493263400125 -0.0504833273636159 0.342064787059925 -0.0267420301559452 -0.00489152123562021 0.0668445338723513 0.186310009171548 0.0352017265141902 -0.137416908291103 0.203377754463752 -0.214996563643131 -0.0246805207069464 -0.0198921006547944 0.191289462089827 0.217626800817396 -0.160487662140955 0.21291731359149 0.152856631903204 -0.171146421896217 0.0016943561073712 -0.0805333371367747 0.0331103922839387 0.0755826805590156 0.0544785625005569 -0.066968718090843 0.109272856306099 -0.167049371126724 0.220143395290681 -0.0788058138157691 -0.0493101335976167 0.133243238687012 0.156876035397367 0.0409517386515574 -0.0446474404250557 0.170067073347091 -0.127438719190804 0.239421002607597 -0.325640845666486 0.305781140894776 -0.211718923027536 0.205618212600267 -0.407532495901173 0.114838006221736 0.0153574483534734 0.0673075893123173
0.0121394573003841 -0.235664879941044 -0.118976194620543 0.330120990608966 0.0969292535202439 0.298919898545564 0.250382638158684 -0.0294272889094179 -0.0759230944415891 -0.237934391528262 -0.0492281154491718 0.181827036017053 -0.419856815423287 -0.0936109894957017 0.0283919062016206 -0.486990341141569 0.117018557685562 0.0210683797429922 0.0725950602300849 -0.030936525684876 0.47740193107902 -0.00153057692066476 0.252765792446882 -0.225999079713348 -0.423283837055328 0.220016125749991 -0.390233351444078 -0.0576872975870504 -0.193589055568481 0.0680532088436339 -0.0234883007873894 -0.266626088203508 -0.186276584847731 0.0593137766060535 0.0836685387108695 0.208162832083522 0.206774694204357 -0.0278031238820637 0.17155959796064 0.13661318185838 0.102490032562767 -0.0632699309951462 -0.107344272821821 0.0262985150899034 0.231514093143259 -0.196548393777258 0.0823336226396295 0.0362702764356219 0.197892308704911 0.180290031341808 -0.31546442461493 -0.0441419618048597 -0.36021625177437 0.0503591431451242 0.439789282376845 0.168026904043298 -0.0128051155647216 0.01498823813038 -0.0378574175965935 0.062261287746403 0.182425074303206 -0.153044579447132 -0.0524620473336202 0.187865782890168 -0.0826048738829189 -0.147023316066476 -0.188693677680113 -0.0239500706764393 -0.0403295320081829 0.175404680750585 0.224723298984247 -0.0936791236942531 -0.0788055567055859 0.0299988448466995 -0.113347538489653
-0.117363856661617 -0.0440501734694528 -0.0706307384303405 -0.175296951583819 0.164705554696558 0.19583542723921 -0.242918986650205 -0.069428234103455 0.156411694406485 -0.00586751149109534 0.0380733901504921 -0.276569567429073 0.209718605802142 -0.0407738184047743 0.00317813897469127 0.269014127585187 0.154759504369161 0.121036161408443 0.147378899449859 -0.0267618276400526 0.76407592870835 -0.118391268953735 0.0854045466679211 -0.0615079549095901 0.165984934968224 0.367904103362611 -0.325292461368232 -0.196727342464774 -0.261936655571893 0.0175907074048582 0.0797571214936558 -0.0532570320201137 0.351714646456261 0.158377301757145 0.189041547757999 0.280983120834101 -0.0605178235940382 -0.147341875583476 0.00372912609731593 0.131504145407762 -0.0516662913165772 0.0284063043718805 0.0595567457291894 -0.166623339553141 -0.249608479397031 0.070614540488798 0.0248646115981266 -0.161994070704397 -0.303104109667166 0.00869623772680064 0.0112629686858123 -0.467012108575398 -0.158241290470226 -0.29769991072622 -0.0252831869763968 -0.27940240742771 -0.237736159577005 0.254038487853785 0.0725986597726499 -0.0805749889864552 0.00432613594273564 0.0395021514386046 0.0546940208340891 0.395996476200789 0.0660999427817676 0.0515757885320863 -0.186180682749392 -0.174011400667756 0.198765454887101 -0.0381623502738836 -0.00237672653361751 -0.044719174166172 -0.00944108592756762 0.264221079549737 -0.432925726035984
0.00833011282590587 0.144470469057358 0.0769415078772944 -0.205812073678409 0.023573661368216 -0.247179816606405 -0.0765972373419726 0.283825473909517 0.0725315540148314 0.249229756097159 -0.025144347477462 0.358781062731677 0.0027675340121007 -0.277750217390386 -0.151424785292893 0.56182920194055 0.103331811302605 -0.11847971485676 0.0870040291176869 -0.0760933013828759 -0.443320176522904 0.105717279582451 0.0291604085392432 -0.0411003483374543 0.0713316207897781 -0.135508122290932 0.170628087766861 -0.0270752449533888 -0.162018753281986 -0.021202334148446 0.234583217400268 -0.241423119604274 -0.205609727964221 -0.248037021957236 0.182886844192255 -0.108345202765068 -0.124836764136692 -0.10670638245727 -0.166651107452928 -0.0506399074651924 -0.151464637371291 0.115950007764131 0.218499689889403 0.209557654827451 -0.216249461565926 -0.164649247566434 0.0774084199700085 0.230882373423106 -0.266894511234782 -0.00110994466092891 0.312357505160988 -0.114630775414067 -0.0152468909746919 -0.0534123265707741 0.118014859645511 0.273381144047054 0.13253721412391 0.19415161264935 -0.0481055723892655 -0.289372369002146 -0.300621967958431 0.0769235101644695 -0.095468610569413 -0.0440108356114212 0.114276734691783 0.155782545788164 -0.0470789314276975 0.185037827985012 -0.0369300211657455 -0.370633585067596 -0.077207102696553 0.155206361867584 0.190059961193704 -0.386055568077056 0.413147525192353
0.149650210808359 -0.165520593977342 0.0326059421044756 0.102379475183985 -0.0992321894312794 -0.255189827254211 -0.0934942614725232 0.078861349615343 -0.0582411129216904 0.260939068061028 -0.213461101628985 0.388273400517448 0.0101447964990206 0.18051191742992 -0.219861088309513 0.327161395290005 0.0886667606725229 0.0267309744180671 -0.196573847685396 -0.297518905157238 0.455317451891972 -0.126543975753224 0.172925110143682 -0.0794614447829613 -0.0669116396301698 0.543102838856442 0.00281715627746074 -0.179096782981518 0.171738803758339 0.0615917728293174 0.0864124185861146 -0.00288220515381354 0.0769805886251427 0.238609048649012 -0.200084687237165 0.230819895648585 -0.256650213094858 -0.117943897234945 0.29570550703504 0.0610310155197306 -0.128609341854971 -0.147365529720332 0.024261688218493 -0.00344013425138493 -0.202783572830348 -0.0676706288910135 0.050979292907033 -0.140987654515559 -0.258566455290342 -0.111848071901157 0.177376201635459 0.433570558375482 0.167574904341211 0.071834528308142 -0.0552750898481496 -0.0193591112449947 -0.270908515415098 -0.0725456950749081 -0.0280499496579478 -0.0288680742609304 -0.00649923121124876 -0.299606382734741 0.0238150878302527 -0.0878283243650666 -0.0555337426924615 -0.128318293127574 0.0625783046023042 -0.0959144396271037 0.0461042267231384 -0.0620869670421849 0.00998461685487911 -0.126048010209807 -0.226995124563114 0.374659416316339 -0.231939610496476
-0.0851916594362211 0.0655882935171744 0.395245971575991 0.21125586758757 0.0277812695164906 0.0502419009015792 0.202000929432648 -0.231765032682075 -0.18661905561177 -0.234512254989702 0.220650159461793 -0.134252653266305 -0.138833585400604 0.189153133577513 -0.132568067345896 0.0408072427285919 0.136827611751179 0.116894630577254 0.397042400426097 0.527515276888993 0.61328363446616 0.254328508140448 -0.23074661924637 -0.0309954039168317 -0.126142369647046 -0.131766397794639 -0.480225515111062 -0.269432188743091 0.228628545557064 -0.01089144447107 -0.16009993998467 -0.0596495625053292 -0.234825929413221 0.155126657710788 0.0492926501051582 0.183114643814582 0.012381140872604 0.0963998636530091 0.18239422108122 0.431183033214169 0.155596655125701 -0.138867781054971 0.131978256585606 0.0944594531003034 0.240669015436911 -0.130647197167114 -0.166027358148454 0.214007974988678 0.00510800800988524 0.0744405971251851 -0.0794796996059694 -0.167099250502267 -0.334162505578885 0.246513644121701 -0.0202831652434608 -0.0977869730914412 -0.166472930095961 0.0615462643268887 -0.0388192667919919 -0.173183762987994 -0.0604656302268461 -0.193284380001374 0.26375468167739 0.0213663704453356 -0.209082258098691 -0.202425675455316 -0.388568048787409 -0.0361538055226266 -0.192571927683692 -0.0155991319256932 0.0306189946086084 -0.166576545499796 -0.127250514536692 -0.167708344526298 -0.176163927121612
0.15214803623827 0.116252369339589 -0.0402382578931424 0.292739741071682 -0.00104823821695788 0.24711939571335 0.241179122040405 -0.195831570586461 -0.205727484428132 -0.276026550722128 -0.1168678911182 -0.0698637787538172 -0.169804306739847 0.0361144676645951 0.0416089122798489 -0.237614546460345 0.075305001561146 -0.30428167430628 0.0602910524124447 -0.22086278958331 -0.19139050639183 0.253403425701249 0.228331583295453 0.0233564032634014 -0.0180362793523657 0.371126722398998 0.260220702209132 -0.260861935006064 -0.0241436746443984 -0.0188934847031966 -0.14773114040086 0.124113256081132 -0.14188162662259 0.164190820109766 0.0994209083057574 -0.0240344028165331 -0.122081314303202 0.15403033988957 0.316037780323494 -0.135863191453949 -0.0299566787766527 -0.137000646904481 -0.0665509140431225 -0.0105214629174271 0.26334973313883 0.336624335583146 -0.0578443919089934 0.163382208583562 0.178073484452332 -0.18129456082762 -0.106339743336009 0.384101787794823 0.34284948733909 -0.208354379170016 -0.290153469738746 -0.235389514934823 0.176722627549733 -0.0336732064749912 -0.0865553718479809 0.285818077829415 0.132704078632815 -0.181812637846793 -0.0832849303175163 -0.220979517606488 -0.0847129202750792 0.0286667569874749 -0.0789796202996208 -0.19516642654249 -0.233429821118377 0.168936559871505 -0.0748784557671962 0.0175382569274828 -0.306036194196523 0.149342449919054 -0.059100375153987
0.0244077268025578 -0.0953588245211812 0.139221821777255 -0.140499402277639 0.295487991820042 -0.0717355408876051 0.0624839451650652 -0.37650983830492 -0.231097060426088 0.382015081547869 0.144451700013983 0.234391670313775 0.143086959161491 0.0327087861777606 -0.318055581041347 -0.151459495167626 -0.243150128704913 0.00694917403187085 -0.726555068341582 -0.401810251663592 -0.127934684734221 -0.0508823623679619 -0.227845902159365 0.114364409264258 0.477578822885071 -0.0740366770273581 0.592454110083373 0.094797552991228 0.18758424723955 -0.0162701895038782 -0.00381782911052428 0.0512070925293594 0.179704848564816 -0.0103414857891782 0.0575358596891382 -0.0815304104272733 -0.0430500148567557 -0.103742159155012 -0.195266699513943 -0.379560450628738 -0.0567079648991935 -0.215733184318035 -0.173293549036226 0.191277892131583 0.0641960418750781 0.105042365351518 0.0530611140605057 0.131601847277383 0.20550559834002 -0.128662563662896 0.00107214946399665 0.375380096159884 0.245276429920082 0.137647793235627 0.230510334987997 0.119446192035456 0.0676657437975324 -0.0326774187354087 -0.161977872762855 -0.0992139346082713 -0.215462704405295 0.00719137182445715 -0.208860372010578 -0.0278627734445691 0.0830663866617855 -0.188562551486674 -0.157831199728002 0.214066339000267 -0.0460890572223289 -0.180801166386035 -0.0148596830387737 0.032147000427441 0.193285922662473 0.202300462796091 0.0989326560678367
0.126609024629577 -0.152034136427107 -0.140139705131324 -0.234886350306276 0.20020038681961 -0.0548344029941231 -0.395828069030784 -0.243891634473298 0.177701446017223 -0.0565814666890529 0.15337573736311 0.0490195990905864 0.204849967372828 -0.17655833414266 -0.165825783764815 -0.05714865175322 -0.260351828402571 0.0823629332005158 -0.0994399344593152 -0.0234049970880285 0.0289359513492985 -0.213334860529027 0.155049524655824 0.0584817680531775 0.3761272583523 -0.313261247454981 0.128852825198473 -0.0354218128310202 -0.163266251890933 0.0396571888790818 0.0337742507769937 -0.148627426499539 0.0261157097496393 0.0840207796618708 -0.0257045905666823 -0.0802955102173031 0.00440686854026441 0.146433248196003 -0.306941479151615 -0.283478118051997 0.0939362338774657 0.349798918481144 -0.165963080602651 -0.0485915106355374 -0.219705022428303 0.33545062759678 -0.157884935756293 -0.172795783721526 0.23304595561484 0.122119623720501 0.0523170371902883 0.107538905230513 0.164472098650201 -0.279879861037936 0.0172137838762685 0.463727011764491 0.263728456438702 -0.202226672173509 0.0767162793568001 0.0459088229838968 0.120878809976317 0.307790456976583 0.128997064011255 0.0455095308693676 0.0164349971313175 0.0281124274324685 0.0760251671843246 -0.0541774864760149 0.164165623311811 0.192698168783649 0.00687975428240344 -0.0886780735205843 -0.21384085336959 -0.139380458760297 -0.115060149420032
0.158783792956805 0.0104967803398387 -0.347167395755963 -0.421944807221156 -0.272242917265971 0.232073307791747 0.0620887668134674 0.336878103333977 0.100587674317176 0.172610921499796 0.0761310965798082 -0.260384481395839 -0.244330778666225 -0.196710373192682 0.239922367464862 0.282780321014758 -0.201746390351268 0.185512710493406 0.472384168743443 -0.0676287199311498 0.380489132610502 -0.132085214421822 -0.0302186740533463 -0.252499426297074 -0.272652750898012 -0.277717307286935 -0.675565748137404 -0.000293105608862393 0.0938467595337077 0.0996013996543727 0.0573677096293171 -0.121659910712917 -0.18195481977811 -0.102352992835114 0.0773940217997486 0.115432702075507 0.0178269916632306 0.247294487748117 0.0272732197944625 0.291047956066143 0.282163513685231 0.306561213190643 0.131244464122717 -0.0666696989477667 -0.0985354208347732 -0.129319737291187 -0.116454457943594 -0.140875297365496 -0.233250101100311 -0.182144824203504 -0.00215561177605465 0.0735641085106133 0.114715364664344 -0.0271127830401378 -0.0776717007976182 0.290050111445095 -0.0785376478946783 -0.0114763701378788 0.308447630604874 -0.00213684273268013 0.324372778242881 -0.157552235179216 0.261486198530905 -0.329267641910883 -0.296819822569083 0.210379121862815 0.0385963522631465 0.204338575218418 0.243265314066992 0.0521725412673228 0.0102754084720926 -0.23791665092562 -0.180195671904569 -0.0644662646776345 -0.0977424930297454
-0.0235847171060942 -0.122846731318626 0.0399770339469983 0.231444159173425 0.161858573637844 0.066963832997362 0.0899060317556078 -0.215262158462389 0.161238938096302 -0.0987390520998776 0.174936483106955 0.122446667873547 -0.0128884192640825 -0.0010569799631871 -0.0693369599884145 0.354849590920173 0.133524260117263 -0.231656532184759 0.249946579287956 -0.0025189084649341 -0.106993831642102 0.111847814790973 -0.179396059234778 -0.23560857281092 -0.350379987495204 0.0310475972840238 0.262734468470402 0.197434138358426 0.190308329630688 -0.163713623609723 -0.216920776254294 0.0463885905857716 -0.117861364866133 0.016668967398041 0.037110769624544 0.131407214868691 -0.0781751225363485 0.2273445373021 0.196458662323317 -0.110522154686329 -0.0774647271001321 -0.128502641128938 -0.0223037941733289 0.0713452476294883 -0.0978209116356253 0.169875012040231 -0.100893121214833 0.111825446205034 -0.301032830031205 -0.104699380367113 0.0467716847587584 0.0208241250689402 -0.158350819408275 0.418029019130828 -0.337549932242711 -0.338508696115911 0.0375990218624648 0.195094692801374 -0.193925355688123 0.184816970337633 0.0175418564700478 -0.050358886034941 -0.128209021299709 0.28772326428702 0.183584384119311 -0.205438749692384 -0.0225189953966778 0.0276401160259069 -0.32236629037309 -0.0888793907940398 -0.0749666445600382 -0.0971699086517309 -0.279661317382205 0.335159578869383 0.124409447012193
0.114458768701498 -0.193989633233926 -0.051899490252751 -0.133960061877809 0.0448734402760996 0.215732927207852 0.0480338386481492 0.00207796450072444 -0.0222369455256936 -0.0815100987227995 -0.0149825817063493 -0.391366950241862 -0.362721019179227 0.296460382532952 0.112339409461276 0.102570765160295 -0.00705098966442305 -0.32460880539107 -0.30850573750628 0.0655247873019209 0.159014163680963 0.369377858932785 -0.446421953773182 -0.109997649912575 0.64157938145926 -0.00200211699667672 -0.160053145931325 0.119770407976487 -0.0292347133821916 -0.0231723123722211 -0.102839445301753 0.387733469132701 -0.0654301707544987 -0.143641288716497 0.0613359481970208 0.35215713308157 0.00906853327209253 -0.215177569212112 0.248136009377772 -0.00274156588359623 0.0912157510288929 -0.0310668805477648 -0.0733877309249294 -0.0162768743686417 0.168472218880623 0.424425149158609 0.10609008934811 0.0124814138440569 -0.202521063333288 0.0232463601049864 -0.274457150163799 0.0646292725337913 0.270859921590471 0.111299141659998 -0.103581465290504 -0.475667722893251 0.0146434533746919 -0.147304851717094 -0.0799252715534769 -0.173532661506614 0.0182309117610577 -0.144705210654631 -0.146709384532773 -0.25301133267185 -0.0699828207686446 0.00689595222394584 -0.0580619071239912 0.0874711983205842 0.229479837373681 0.105955106501923 -0.177386743152971 0.214177924819782 -0.0443124258563296 0.435914374805648 -0.0702972665227137
-0.00972853511239934 0.0409566237450385 0.0221194461719654 0.0805598194856456 -0.0334564625905429 -0.105979274859145 -0.325450584130908 -0.183971334945046 -0.0200733633339593 -0.196849212691617 0.0767327344085257 0.07025535756285 0.354056148894779 0.125695512148622 -0.0907254419095064 -0.331756468484381 -0.0356652961745226 0.0226619486585441 0.174780931446111 -0.0145786616085223 -0.452217988633344 0.134516191204098 0.166993321106784 -0.09438154871479 0.250774731188084 0.0661966162106555 0.124649587923313 -0.110724243290334 -0.258746175308408 0.122435869245852 0.108324376840227 -0.0512518297012384 -0.240560257829412 -0.0788263826304261 -0.0789693358922923 -0.202079090928345 -0.112104153643636 -0.173843250607934 0.0742585631154706 -0.0601609546597391 0.215704387977515 -0.154920969564218 -0.0566210616572677 0.0507358095635307 0.00281921315892644 0.207950716182372 0.16580135829741 0.160354993286417 0.187409155204782 0.0423061950967215 0.218006295447818 0.180823020751608 0.154386180383136 -0.427001650304582 -0.0335937594283785 0.156907145729536 0.158395042359787 -0.28853393269469 -0.200948834562942 -0.0562809048848774 0.127867321866219 -0.166065153345386 0.0744236278530931 -0.214161983988422 -0.0590633512876044 0.390829847069131 -0.0865728553404393 -0.0860869170941675 -0.00463955325607183 0.0143269507391572 -0.0520013058853032 0.253635853306874 0.0836947639495572 0.132232024336437 0.154013884837844
0.0741423493126585 5.16791468257378e-05 -0.105241625743508 -0.273379344275771 -0.215207651103548 -0.0331494730317871 -0.10003257343162 0.149659209664772 0.201172263312154 0.420223711654731 0.0421303317314041 0.133242467356462 -0.0209115425312325 0.0456206024685155 -0.194752222037335 -0.0669576623529649 0.407748468455071 0.0249443157549225 -0.0226742899473383 0.186324407341808 0.221485767557234 -0.0203857522065627 0.114618691235456 -0.220738862475001 -0.310979137468786 0.297275678923919 0.26302320320615 0.0707155847908006 -0.214711171339765 -0.131739915445768 0.194247257637505 0.119575775567795 -0.27323921922592 0.0322117921936106 -0.0905626911635328 -0.0165599526803588 -0.188411113588762 -0.16772608512894 0.234489886403762 0.240176649436059 -0.0654386553905447 -0.181661199948881 0.0166941641959958 -0.202992089188933 -0.214977023269206 -0.286576809980075 0.259282250040406 -0.111274459082409 0.0555841362883712 -0.0343200956959542 0.113689495033325 -0.313313955042539 -0.210081645380838 0.031469772204859 -0.196557906854037 -0.407999407993887 -0.139860740582539 0.0792878954092928 -0.0506933863833006 -0.0387513897036238 -0.0239924938566694 -0.111840872816027 -0.239781471084461 0.179506102393193 0.0193200304971463 0.122706092048409 0.240667215665629 0.0700003042611031 -0.0358432164213057 0.0172222685123145 -0.119635939350667 0.42625320256125 0.203493968266564 0.179601490271164 0.165094562403758