4.7093166783 -0.1714108388 2.4734503915 2.9319145800 4.2738080902 4.8901396034 2.1416199353 1.3630283887 2.4602361408 6.8248021763 1.6047462163 0.0328459761 7.6636782504 4.4695053093 2.4968961786 1.2909513516 4.5245626056 2.2197842904 3.8187020927 1.2438954593 4.6594984183 8.4387446929 1.3452590349 2.7388850206 5.9629340802 4.6442150014 0.2481519879 1.4878607698 4.4056155364 3.7194677604 3.6127964417 1.4633877276 1.2371282523 8.2084139481 1.4659811573 1.2363400328 6.2041340348 4.4222894423 3.6641240705 4.5096563608 4.6695992446 0.6261341182 0.5264251608 1.3317783366 3.0333140700 5.2824219134 1.2000533644 4.3049366869 9.2131053042 4.5582193485 1.8483897838 1.9617521464 5.7665328980 1.5023652499 3.1528622047 0.0844226914 3.9006729324 7.8478197488 2.5354450624 3.4562658777 6.5617783094 3.3783160805 0.9248080321 7.7369821524 0.1078766082 3.4468786242 6.6651272698 5.7992586091 0.9946189504 1.8509480315 3.3327198797 1.4938328913 3.2596472496 2.5104332674 3.9694584669
4.7722420222 -0.1902752136 2.4365080631 2.8262206485 4.2914413221 4.8826577291 2.2196732900 1.4138050866 2.4240649177 6.9694586494 1.5863969014 0.0746752187 7.4989421475 4.4286678837 2.5309620263 1.3213341099 4.4625852206 2.1386604108 3.8199341443 1.1811004452 4.6187387200 8.4597235567 1.3965482379 2.7832925218 5.9356508801 4.7005973043 0.3127004352 1.2983233503 4.5214677456 3.6689737680 3.8113607077 1.4696487105 1.2230828686 8.4699147941 1.3569588496 1.2268067113 5.9075751529 4.4153391904 3.6937971858 4.5435666533 4.6946297832 0.8275892147 0.4900693356 1.2992958198 3.3349482209 5.0966522145 1.1825332003 4.0070426260 9.3734496636 4.6130218436 1.5219554223 2.1867434194 5.7628634309 1.5487977839 2.9470302713 0.0572006713 3.9816517369 7.7532067775 2.5750267277 3.4576463896 6.6526670749 3.4055603053 0.9580871099 7.6709060431 0.0781003509 3.3978677040 6.7438873136 5.8474368029 1.0031372348 2.0687998649 3.2988844574 1.4899123437 3.0947253767 2.4819810166 3.9830106157
4.7041935572 -0.1922666272 2.4602890403 2.9802254713 4.5600574877 4.7525189691 2.1364710298 1.7215228431 2.4368506249 6.7952981416 1.2797498640 0.1605475137 7.6411815842 4.1587546370 2.4646969649 1.3392477698 4.6683176533 2.3361319929 3.7850739389 1.3249356840 4.7454479873 8.4675064111 1.2181957880 2.6191280393 5.9274579324 4.5063491187 0.2128980862 1.3442558549 4.5023639625 3.8023442318 3.7089431516 1.6025543810 1.2784859189 8.4618672005 1.2832173338 1.1226493506 5.9816515454 4.2375205429 3.6610765547 4.4413734873 4.5926420736 0.7025353028 0.5348781718 1.1835193233 3.1301856030 5.3163924105 1.2503635238 4.2313785744 9.2047400841 4.8476441178 1.8870169628 1.9728882718 5.8094963511 1.5149299182 3.0961138497 0.1718708823 3.9818274684 7.9319995713 2.5611520403 3.2219857941 6.4134327093 3.2699345807 1.0025074382 7.7956418694 0.1194913830 3.4288593306 6.6155875440 5.7137403510 0.9654008830 1.8913363870 3.4215419292 1.6598181673 3.3934433702 2.5411379917 3.9237401714
4.7278809330 -0.2159193222 2.4662940930 2.9642835658 4.5699929738 4.7524742936 2.1272665620 1.7064116683 2.4189088315 6.8108686522 1.2762662779 0.1565937682 7.6000969012 4.1778944677 2.4918851421 1.2997122262 4.6415005363 2.2929150879 3.7519067860 1.3280287427 4.6788924639 8.4783241781 1.2490758760 2.6316009430 5.9739516102 4.5050405691 0.2307741314 1.3578117173 4.5466086019 3.9016172326 3.6827540715 1.6366920707 1.3347573923 8.3903984438 1.2054967998 1.1166517755 6.0869883652 4.2848947448 3.5898615233 4.4857863263 4.5987686841 0.7061231568 0.5707049909 1.1873032985 3.1329957889 5.3098831121 1.1873651112 4.2401985925 9.2782886968 4.8533070966 1.8077512545 2.0411964582 5.8195465685 1.5055005696 3.1548551261 0.1253592739 4.0065658465 7.9259781411 2.5544116212 3.2321216767 6.4195030857 3.2291649390 1.0763371621 7.6870602947 0.1480969697 3.4710820871 6.5692053187 5.7398557012 0.9451512559 1.8950383344 3.3701002764 1.6770907816 3.4216804565 2.6073037965 3.8977476178
4.6652272359 -0.1456320741 2.4718830804 2.8747544762 4.5305459496 4.8055370676 2.2038736435 1.7321208347 2.5052473329 6.8955993912 1.2910309310 0.1374393645 7.5691523946 4.1593257763 2.4025724852 1.3489422129 4.6942003271 2.1865988686 3.8315478413 1.3249071893 4.6627194567 8.5519287075 1.2055216707 2.7141453896 5.8309907507 4.5215409256 0.2511009892 1.3579282312 4.5180751628 3.6912999388 3.8306689451 1.5083895457 1.2165155519 8.4949204450 1.3905235180 1.2255824272 5.8619216778 4.2401526219 3.6740284132 4.4160957904 4.6259977433 0.9844731507 0.5937005283 1.1614925187 3.2958186640 5.3637364867 1.2516186669 4.0555800530 9.1890457408 4.7818977355 1.7114908582 2.1695724108 5.9154772649 1.5831375887 3.0464979655 0.2151817832 4.0392114232 7.8164325159 2.4303378139 3.3979365422 6.6913233152 3.2800093235 0.7587793943 7.6208118175 0.0295369219 3.3589355680 6.7114242404 5.6361263396 0.9286863998 1.8997634411 3.4786461945 1.4664764987 3.0454666575 2.5474389290 4.1755751949
4.6939820832 -0.1457814843 2.4901632150 2.7877601311 4.5235523215 4.8634579170 2.2551243792 1.7319293417 2.5008995441 6.9901595467 1.2975636815 0.0997746183 7.4785502670 4.1594864185 2.4085109937 1.3223190230 4.7027380502 2.0720278094 3.8844896292 1.3354995910 4.6438098876 8.5055591004 1.2102422593 2.8584130102 5.8687851316 4.4949154642 0.2667671966 1.3567496442 4.6012667516 3.6251361415 3.8882903808 1.5664431996 1.2732907351 8.4875580782 1.3380695649 1.2889967396 5.8325650396 4.3090701542 3.6596814780 4.5706264235 4.5493282425 0.9869761513 0.5847421505 1.1373099515 3.3992373643 5.1686791002 1.2744786823 4.0086630133 9.2520683789 4.7665532793 1.5120518501 2.2195412176 5.8774713817 1.6390907999 3.0720499404 0.0473243600 4.0001261390 7.7855310447 2.4533258974 3.4319839002 6.7218521946 3.2973164559 0.7443011269 7.5861431275 0.0766603421 3.2806142980 6.6721219139 5.7351848996 0.8912694643 1.9432014225 3.3926244539 1.4161681128 3.0028676943 2.5957772314 4.2522066501
4.7980204854 -0.2018956496 2.4320067850 2.7361159731 4.4774997451 4.8809817412 2.2624058729 1.6775397226 2.4823803938 7.0765496803 1.3558341292 0.0585798608 7.4448640002 4.2345144357 2.4397647568 1.0959608951 4.6328922992 2.0982752902 3.9787828677 1.2987132212 4.7251158442 8.5336161044 1.2687809199 2.8260459901 5.8630227771 4.5593324171 0.2126825669 1.1926846004 4.6144714292 3.6957464658 3.7980319613 1.6537907140 1.3584806605 8.5011556638 1.2643146671 1.2545707692 6.0160324068 4.3073060858 3.5940701569 4.4467752817 4.3884057951 0.6038195170 0.5989376831 1.2574768402 3.3918753828 5.3561314734 1.4278246833 4.2975163161 9.1181361274 4.6278410459 1.4722930180 2.0156533626 5.7694782323 1.5487843426 3.2047697106 -0.0198151890 4.1784191436 7.9272630751 2.5551901985 3.4059171552 6.6650317303 3.4444815533 0.8638746885 7.7615819885 0.1011011455 3.3937397612 6.5678559936 5.8265744520 0.8414110559 1.8902576287 3.3465010509 1.5992371441 3.1181880718 2.3876092711 3.9909251728
4.7527337089 -0.2380337401 2.4747192303 2.9363584093 4.5726132115 4.7956548025 2.1468672975 1.6558389786 2.4037499536 6.8335933619 1.2828792224 0.1345757947 7.5662350410 4.2474599090 2.4951248368 1.2774263916 4.6660969490 2.2544575722 3.8759196949 1.3628035334 4.6578083184 8.4983914479 1.2334669806 2.7253692807 5.9434391644 4.4928477460 0.2636516992 1.2915917970 4.6275776464 3.7545886366 3.6718844900 1.6622115277 1.2008320080 8.3705053772 1.1266429846 1.1910453887 6.1681317729 4.3237871624 3.7276027932 4.5098493480 4.6068084726 0.6943379635 0.5617971555 1.1614391271 3.2035543270 5.2493530631 1.0980060168 4.2440833439 9.1589760150 4.7905203744 1.6848069691 2.2256389284 5.7667393933 1.5832911425 3.1087684914 0.0537371675 3.9797801150 7.9172441199 2.5306601435 3.3307115829 6.5531932649 3.2571569059 1.0167349376 7.5528315383 0.1819462147 3.3973048347 6.6361059995 5.7342620267 0.9377990218 1.8759062772 3.3686990582 1.6232432275 3.2808578917 2.6762204392 3.8975585236
4.7036693891 -0.1536158305 2.4859510360 2.6952112146 4.3872096783 4.7388635471 2.2118978907 1.5677453535 2.3907124859 7.0599471629 1.4777061681 0.1351335062 7.5524872652 4.3220003769 2.4901262935 1.1303597692 4.5680688809 2.2838078850 3.9486419086 1.2661115692 4.8071500848 8.6401361897 1.3196989275 2.7095666466 5.8213862679 4.5850177178 0.1726657153 1.0492539696 4.5119731910 3.8970127365 3.7624846482 1.5320732249 1.4381612745 8.6778708161 1.3237697774 1.1220149859 5.9878956044 4.3392590445 3.5459315515 4.3823480552 4.5179219549 0.6442272726 0.6684278312 1.3162561305 3.3749419577 5.4048547131 1.3617451543 4.2586016326 9.1753917250 4.5223358207 1.6265377335 1.7201671957 5.8018060176 1.5800459719 3.4313442809 -0.0619540930 4.0406992175 7.9601794377 2.5714720507 3.3050337730 6.5851537280 3.4206272592 0.8294711650 7.9748380287 0.1332234011 3.3478397053 6.4176216707 5.8654921745 0.8928530315 1.7584134747 3.2863927632 1.5863878189 3.2253309985 2.4487248795 4.0814092616
4.7680625260 -0.1859636477 2.4422079073 2.7318226909 4.4210311361 4.7852658179 2.1766068250 1.6042283251 2.4560482112 7.0591371512 1.4299077157 0.1081522760 7.5527704486 4.2943325272 2.4483878913 1.0967201892 4.5571324306 2.2968345774 3.9725670585 1.2567507824 4.7784458594 8.6706444834 1.3326067832 2.6885240515 5.8206503207 4.5946666200 0.1516031551 1.0701888968 4.5656965271 3.7635601441 3.7950957678 1.5808428007 1.3343212773 8.5701061918 1.2922595183 1.2041925841 6.0179700211 4.3176417814 3.5820980540 4.3133834474 4.4683830743 0.5071186427 0.7052568682 1.3202612283 3.2632842870 5.4817737346 1.3950598940 4.3998937593 8.9988650709 4.5371348895 1.6446553069 1.7606560201 5.8106597148 1.5516939229 3.4079969980 -0.0114701237 4.1902278565 7.9780888966 2.5457479518 3.3565219064 6.6441243163 3.4118746682 0.8716926825 7.9051986599 0.0745410338 3.4049832562 6.4252767740 5.8226253944 0.8828885168 1.7515608187 3.3735747984 1.5927670892 3.2219055331 2.4464095924 4.0458351700
4.7620091441 -0.1810691517 2.4389613404 2.7714826828 4.3139148231 4.8535937926 2.2163386278 1.4458254352 2.4171068189 7.0163912205 1.5628942293 0.0904094977 7.4870371248 4.4106134758 2.5243942268 1.2861348085 4.5321836641 2.1053136655 3.7840216219 1.1825798540 4.6077856994 8.5538370277 1.3228474363 2.8014694602 5.8888619806 4.6977069741 0.3238873203 1.2232707271 4.5120177020 3.6405222904 3.9271097665 1.4804204885 1.1833094881 8.6117356676 1.3607548849 1.2940843601 5.8423180097 4.3864382596 3.7546041974 4.4169422801 4.6665134963 0.9252052846 0.6207968989 1.3317580146 3.4314124480 5.3760405330 1.2089426323 3.9021586320 9.1386604406 4.5826729784 1.4317821900 2.2684656406 5.6611440514 1.6298240115 2.8636603250 0.0283366333 4.0620874012 7.6996279171 2.5792118812 3.3661117465 6.6765341837 3.4705413468 0.9004092057 7.6386810719 0.1739336893 3.3408969897 6.7744784772 5.8605248195 0.9261889339 2.1713348936 3.2906797610 1.5829120009 3.0004130164 2.4183482191 4.0719253826
4.7001108776 -0.1468850217 2.4794720426 2.7046377204 4.3506435942 4.7619043677 2.2221562388 1.5171629857 2.3766800335 7.0444287491 1.5251621922 0.1275528244 7.5299299504 4.3625645669 2.5129652329 1.1777273235 4.5291132806 2.2053242936 3.9295351552 1.1974364875 4.6831699696 8.6648792244 1.3453992958 2.7447832782 5.8086810205 4.6630010765 0.2498281485 1.0974386849 4.4683148800 3.6857471767 3.8865440013 1.4955551299 1.2543872479 8.7287550975 1.3762149738 1.2283434413 5.9224221035 4.3561574058 3.6514901808 4.3800954346 4.5694804551 0.8612533062 0.6408838026 1.3471573314 3.4729333290 5.3730926504 1.3064206417 4.1254088393 9.1080541145 4.5035014792 1.5588615410 2.0419649138 5.7819963425 1.6460771765 3.1528599025 0.0150453262 4.0909131060 7.8511313155 2.5752629002 3.2465298567 6.6437523122 3.4086926201 0.8308135598 7.7571584414 0.0764342852 3.3480277094 6.5960675837 5.8840896704 0.8461890635 1.9284353047 3.3165023133 1.6923608127 3.0642107452 2.4052196021 4.1308390189
4.7949190785 -0.1998370112 2.4272893223 2.7445933491 4.4482566433 4.8336810417 2.2120506180 1.6400784928 2.4778907311 7.0613580195 1.3940433243 0.0788068306 7.5043148266 4.2674728477 2.4390556703 1.0665511795 4.6013988089 2.1804126983 3.9515094266 1.2856006573 4.7326915269 8.6161251845 1.2987723390 2.7449087150 5.8415210024 4.5779653535 0.1767102062 1.1247188972 4.5942707623 3.7677202675 3.7903224763 1.6191702821 1.3707896498 8.5175383193 1.2767111867 1.2178769790 6.0333224315 4.3069498354 3.5895088405 4.3292062324 4.4266851157 0.5177516152 0.6668286189 1.3005673772 3.3108137230 5.5662401339 1.4189883192 4.3851760640 9.0360030695 4.5723961849 1.5831303679 1.8739426898 5.7830806529 1.5524369041 3.2904551383 -0.0364968705 4.2157028246 7.9558025015 2.5553611578 3.3908441912 6.6597451285 3.4401233876 0.8725347903 7.8322389676 0.0858592748 3.4182698238 6.4955704516 5.8199000906 0.8619148706 1.8268166803 3.3548688336 1.5971025863 3.1675084727 2.4078003265 4.0115689697
4.7279524674 -0.1781858221 2.4596864718 2.9034175403 4.2769674192 4.8886997513 2.1794136850 1.3730745076 2.4446599016 6.8595094556 1.6006048981 0.0425773851 7.6104767034 4.4610056597 2.5101453888 1.3921943837 4.5415166207 2.2317811685 3.7236265184 1.2506855881 4.6906474581 8.3879149638 1.3238557262 2.7204602686 6.0057680820 4.6431545580 0.2420425163 1.4456138892 4.4413135629 3.7267405791 3.6359001642 1.4676859413 1.2485302021 8.2682129998 1.4308598542 1.2481934298 6.1318138480 4.4173013302 3.6859362821 4.4723658413 4.6791476913 0.6885106951 0.5295799927 1.3143224651 3.1313693075 5.4145227405 1.1894590954 4.1873063511 9.1435973740 4.5887673000 1.7198951968 1.9854988419 5.7485758211 1.5207667783 3.0894796706 0.0516253378 3.8946846896 7.8054518065 2.5973800134 3.5028300043 6.5695939922 3.4021673457 0.9257312931 7.7561639592 0.1360197988 3.4181291578 6.6839721013 5.8207270156 1.0126152426 1.9284297128 3.2530819719 1.4407895907 3.2303990369 2.4987807437 3.9696347412
4.6727063104 -0.1576135467 2.4587610606 2.9624366554 4.5422349885 4.7757737353 2.1604098952 1.7260575567 2.4791721129 6.8106838806 1.2871269761 0.1521785819 7.6524173735 4.1614372957 2.4182627983 1.2775075169 4.7230640626 2.2481872512 3.9225407982 1.3163682507 4.6937086198 8.5097492467 1.2177231856 2.6632015627 5.8104097076 4.5338865933 0.2730688069 1.3499626101 4.4626841439 3.8242784237 3.7450155238 1.5242582180 1.3488970272 8.5061179171 1.3829152203 1.0801750583 5.8977479600 4.2050961289 3.6366312875 4.3964122603 4.6142943802 0.7814623894 0.5962045080 1.1869768978 3.1920375149 5.3077237439 1.2740920324 4.1998810957 9.2120437722 4.7891427459 1.9194870900 2.0582278432 5.8785771225 1.5285063055 2.9793166362 0.1876179297 3.9682907441 7.9027552503 2.4795779257 3.2931020093 6.5583530100 3.2783993164 0.8632022692 7.7397930016 0.0113746512 3.4179628403 6.7067785874 5.6420842178 0.9606589597 1.9117613245 3.4356560074 1.5494298769 3.1654052607 2.5751223612 3.9839404563
4.7464798317 -0.2324439710 2.4724612711 2.9468157955 4.5738140794 4.7768018047 2.1354473305 1.6758811883 2.4073156141 6.8260635307 1.2788425782 0.1423899654 7.5713437968 4.2213729237 2.4991821193 1.2810423208 4.6541809783 2.2675976836 3.8508723066 1.3501375831 4.6611053287 8.4990385584 1.2489446329 2.6979261086 5.9520093018 4.4960567712 0.2534076634 1.3252320967 4.6004668489 3.8410466674 3.6693922589 1.6573456869 1.2646321915 8.3587115752 1.1438397546 1.1357113942 6.1615739166 4.3181791005 3.6498893695 4.5279423854 4.6071992298 0.6953345005 0.5697480783 1.1777366141 3.1705984563 5.2302794078 1.1248285609 4.2588552652 9.2045300996 4.8190186577 1.7198130151 2.1686753746 5.7982060524 1.5437982542 3.1253635929 0.0438008302 3.9867769216 7.9222545796 2.5256404037 3.2894289785 6.4997352710 3.2357571836 1.0615785803 7.5836587178 0.1751358820 3.4425796252 6.5994077101 5.7443938366 0.9347271802 1.8938456543 3.3448894275 1.6464118308 3.3367274488 2.6843544291 3.8823987654
4.7777938312 -0.1909805042 2.4506349268 2.7273359277 4.5033703158 4.9101974542 2.2890103374 1.7052974690 2.4824370125 7.0794674529 1.3265833174 0.0570870226 7.4153287030 4.2031026320 2.4355359498 1.1964846538 4.6302928817 2.0956644603 3.8910774393 1.2668055169 4.7597289839 8.5127165575 1.2770874919 2.8501556486 5.9166853566 4.5780637433 0.2093609290 1.2556893970 4.6258560677 3.5595329128 3.8300007551 1.6641961789 1.3052124343 8.4967696406 1.2637752464 1.3453652851 5.9609833035 4.3160648151 3.6341088070 4.4677976857 4.3730270232 0.7511460339 0.5635728818 1.2059596922 3.4346025763 5.2962345428 1.4178545929 4.1207889436 9.1071010363 4.6841203579 1.3711895472 2.1590582672 5.8019242083 1.5475018708 3.1868551195 0.0507687587 4.1259569876 7.8642360473 2.5714603336 3.4216765554 6.7080999669 3.3496283312 0.8559578848 7.6351447861 0.0196350654 3.3678949173 6.6144511133 5.8278344295 0.8253571001 1.9200180066 3.3725051468 1.5803120115 3.0839875707 2.4312703314 4.0329089722
4.7516344398 -0.1751600127 2.4439872826 2.7568341397 4.3212726785 4.8388008164 2.2146747789 1.4578524116 2.4121141987 7.0242579341 1.5549511169 0.0951028615 7.4934451225 4.4036979515 2.5208592662 1.2489912850 4.5537865208 2.0776181064 3.8199385564 1.1916534308 4.5897459988 8.5750290630 1.3066446227 2.8207966640 5.8609537015 4.6894061677 0.3342513346 1.1967474066 4.4993285436 3.6587288761 3.9472307050 1.4826733730 1.1894255166 8.6500772065 1.3699850399 1.2795562660 5.8433909974 4.3781663317 3.7437039005 4.4106426318 4.6492726787 0.9280549196 0.6451086811 1.3437728418 3.4494714371 5.3905279341 1.2260150328 3.9406577365 9.1316687670 4.5611252992 1.4576303518 2.2501146842 5.6394171197 1.6583617663 2.8704535797 0.0173241774 4.0827443184 7.7204307830 2.5562801806 3.3236376424 6.6688143803 3.4876433408 0.8744921499 7.6570127974 0.2041641873 3.3245896001 6.7589562846 5.8609494410 0.8956854951 2.1563286311 3.3033301008 1.6241990009 2.9899611406 2.3965516630 4.1013510836
4.6901983000 -0.1428362670 2.4875669349 2.6943006035 4.3592325129 4.7465265887 2.2267992810 1.5322386810 2.3699956337 7.0499250947 1.5155686072 0.1344344274 7.5378649289 4.3512264345 2.5104379270 1.1874401662 4.5411504397 2.2512833724 3.8992680383 1.2127766344 4.7390701414 8.6580440828 1.3399402241 2.7106076849 5.8255288707 4.6442177050 0.2088210830 1.0815105995 4.4727597116 3.7542181507 3.8430023423 1.5014818530 1.3199702748 8.7280989471 1.3659472217 1.2049349847 5.9451379316 4.3509043164 3.6299459505 4.3535609729 4.5522787979 0.8296191622 0.6609270887 1.3379032771 3.4740148292 5.4497252995 1.3276270186 4.1296695227 9.0747587266 4.5021998726 1.5602985092 1.9535237803 5.8111501139 1.6237764679 3.2424559760 -0.0083579975 4.0633521372 7.8707595233 2.6051572209 3.2604471046 6.6266784196 3.3965881443 0.8257286751 7.8117494283 0.0653372021 3.3537307321 6.5442897841 5.8898434909 0.8559523994 1.8860891437 3.2757632353 1.6623715101 3.1082433015 2.4180362593 4.1206775599
4.7695548705 -0.1856737469 2.4362276752 2.7881379421 4.3061106797 4.8657546694 2.2182954282 1.4347912957 2.4202432049 7.0046299204 1.5712705600 0.0858473119 7.4850239444 4.4165159194 2.5276677460 1.3087578660 4.5011936805 2.1336396603 3.7754927356 1.1733956716 4.6233698553 8.5315402612 1.3509600574 2.7874954153 5.9070807092 4.7046960136 0.3179063211 1.2478291085 4.5212730657 3.6236618631 3.8959725642 1.4774677631 1.1820517459 8.5689147630 1.3539183014 1.2885742979 5.8514756840 4.3965691973 3.7444603011 4.4511409953 4.6804717654 0.9036043947 0.5745556087 1.3187158792 3.4038621673 5.3094989927 1.1952299744 3.9011872262 9.1921216712 4.6006680084 1.4345372597 2.2656545049 5.7000831278 1.5977530293 2.8796102247 0.0421491964 4.0381334029 7.7012852094 2.5900300570 3.4044778807 6.6788370449 3.4438420765 0.9269501819 7.6324607701 0.1302130496 3.3622196736 6.7757424527 5.8593698576 0.9568600907 2.1564103045 3.2889711841 1.5454796789 3.0214415303 2.4456174992 4.0382777264
4.7418956193 -0.1826254775 2.4516795078 2.8844708441 4.2792202048 4.8884652265 2.1979811320 1.3818461501 2.4363441226 6.8912135509 1.5982611303 0.0526342818 7.5722570236 4.4532215942 2.5202874465 1.4010643112 4.5250356968 2.2085041864 3.7222486442 1.2409067581 4.6832882145 8.3780946983 1.3385971358 2.7318341924 6.0082953325 4.6528920641 0.2550464782 1.4093463298 4.4656095648 3.7354638583 3.6674714478 1.4677289191 1.2577644838 8.3112797098 1.4087833928 1.2308380360 6.0760277043 4.4182633215 3.6835898579 4.4875425528 4.6854405428 0.7263342849 0.5133861232 1.3041848049 3.1931315986 5.3441740188 1.1848876204 4.1213295332 9.2215986360 4.6036152753 1.6509337118 2.0171698689 5.7525669647 1.5261510246 3.0546006285 0.0456017784 3.9047517326 7.7937213513 2.6018590043 3.5087154165 6.5825290406 3.4073925494 0.9346830160 7.7523428882 0.1287985740 3.4107548378 6.6939175002 5.8284126042 1.0191087144 1.9621245150 3.2467876992 1.4340965651 3.2070092410 2.4939801476 3.9669789621
4.7618263062 -0.1811696250 2.4628119846 2.7289184880 4.5126320333 4.9138367126 2.2917690237 1.7144078305 2.4840026996 7.0732020209 1.3166877055 0.0625910603 7.4151995421 4.1897224867 2.4304187821 1.2246452790 4.6342543301 2.0749009403 3.8370788580 1.2566323058 4.7500358139 8.5162285718 1.2781167986 2.8584424402 5.9349132062 4.5794508430 0.2141367139 1.2851517445 4.6290444535 3.5514847043 3.8494921460 1.6568982459 1.3221678676 8.4927903198 1.2704429094 1.3666685773 5.9251151863 4.3227544394 3.6438260718 4.4722668718 4.3864466404 0.8257073744 0.5594216613 1.1822530899 3.4404773944 5.3121952688 1.3993144358 4.0315534976 9.1403355583 4.7065682247 1.3658320798 2.2121211443 5.8281835298 1.5581444393 3.1788588200 0.0677716875 4.0957941285 7.8288099048 2.5726122527 3.4305334023 6.7268546916 3.3005648804 0.8404085864 7.5794491947 -0.0139432397 3.3493482615 6.6279960090 5.8234232227 0.8259642791 1.9322225124 3.3773850465 1.5509818202 3.0649637745 2.4765269307 4.0772788817
4.7473207746 -0.1755316067 2.4565841273 2.7189613578 4.4089182300 4.7649757265 2.1798264712 1.5901117718 2.4357485963 7.0610312584 1.4464768944 0.1205321894 7.5582226879 4.3042594418 2.4620326304 1.1042208635 4.5518210858 2.3088577549 3.9997707865 1.2602627705 4.7910730826 8.6699985207 1.3366027399 2.6943714511 5.8103700183 4.5903462948 0.1583923565 1.0535569384 4.5489827984 3.8039273118 3.7879333831 1.5635658742 1.3566528362 8.6061825354 1.3006671450 1.1702591218 6.0074330718 4.3259001025 3.5604390408 4.3534291279 4.4883700121 0.5332024213 0.6902215408 1.3197368681 3.2801022415 5.3735186991 1.3789078424 4.3794351534 9.0749090364 4.5311209480 1.6514732792 1.7191399640 5.8098897984 1.5576469561 3.4432234332 -0.0229055647 4.1418642233 7.9864674616 2.5396125626 3.3351612979 6.6219922807 3.4134484624 0.8606255821 7.9463875656 0.0955556165 3.3839051839 6.4047999316 5.8320177659 0.8914763586 1.7301902771 3.3614770143 1.5881156886 3.2398457757 2.4530862646 4.0594437313
4.6663067672 -0.1508218688 2.4612322183 2.9383340545 4.5375601443 4.7838732888 2.1722585035 1.7274249645 2.4921837148 6.8329523671 1.2888153668 0.1486381571 7.6316667564 4.1615747529 2.4091968010 1.2746474675 4.7161692836 2.2139494865 3.8896777158 1.3143581260 4.6698230239 8.5326193668 1.2172725183 2.6714401820 5.8066726913 4.5400098484 0.2776177745 1.3558092218 4.4690455514 3.8148740941 3.7704734808 1.5055437892 1.3380839594 8.5028417274 1.3969196305 1.1130868282 5.8852175374 4.2100648906 3.6298756339 4.3789701481 4.6237829347 0.8521821139 0.6112409935 1.1823890214 3.2242273431 5.3700284914 1.2662320071 4.1493597918 9.2357376575 4.7800972170 1.8747050513 2.1061883061 5.9072681874 1.5368964408 2.9906580629 0.2119211338 3.9954093774 7.8726429348 2.4591990994 3.3324753799 6.6160150050 3.2691683485 0.8228075486 7.6881639146 -0.0047445603 3.4118767711 6.7169177630 5.6263039004 0.9496654529 1.9071256001 3.4547779202 1.5171122674 3.1043749686 2.5715701141 4.0398361663
4.7587899719 -0.2462247740 2.4772086714 2.9016266647 4.5666444179 4.8332831086 2.1740977173 1.6137511755 2.3994979032 6.8618737347 1.2943121581 0.1251253682 7.5680825168 4.3003941260 2.4821197976 1.2417178009 4.6864045634 2.1673294773 3.8517160799 1.3755189316 4.5959584165 8.4749986041 1.2207355540 2.7783123160 5.9402918087 4.5047639196 0.3289006359 1.2312404246 4.6747623668 3.6697683397 3.6827602852 1.6628197569 1.1819270004 8.4173260022 1.1298619269 1.2933263150 6.1455755992 4.3258136756 3.7802198029 4.4342090031 4.5889087750 0.7206806407 0.5710847469 1.1138170397 3.2874407293 5.3727328128 1.0745857513 4.1588487820 9.1521736335 4.7268332823 1.6392129806 2.3036472198 5.7148212160 1.6657641335 3.0940332342 0.1743237566 3.9772473520 7.9137633350 2.5553361369 3.4076624792 6.6642135448 3.2927469921 0.8996167730 7.5102434939 0.1422795316 3.3079910030 6.7118121589 5.6896226626 0.9759176972 1.8254407321 3.4150221349 1.5601571639 3.1820664063 2.5773463453 3.9593977806
4.6810642812 -0.1443584851 2.4860083098 2.8135596119 4.5252258101 4.8421450540 2.2390954300 1.7334666956 2.5041280362 6.9602715925 1.2948300495 0.1133695637 7.5046931484 4.1578267109 2.4057594478 1.3600638746 4.7034999207 2.1273242419 3.8731223893 1.3429967034 4.6561601746 8.5176168827 1.1976086214 2.8155265582 5.8562079224 4.4925633879 0.2540204138 1.3581504839 4.5795276252 3.6079720078 3.8761364306 1.5451281861 1.2051855321 8.4902414484 1.3583012454 1.2792679186 5.8377676503 4.2867995923 3.6824768150 4.5287618556 4.5863272805 1.0099089367 0.5836099634 1.1412609690 3.3692493267 5.2083292702 1.2576686363 4.0231245064 9.2114945601 4.7779283635 1.5604223910 2.1990228049 5.8831254379 1.6351271126 3.0615513864 0.0967220077 4.0117804893 7.7914210030 2.4295818505 3.4255930783 6.7149641690 3.3033249736 0.7357324959 7.6054043006 0.0879538481 3.2913252654 6.6862167724 5.6969235949 0.9067226445 1.9267466174 3.4253384863 1.4206720381 3.0122395854 2.5773979605 4.2532205529
4.6900749523 -0.1458712074 2.4929968836 2.6888096896 4.3773896135 4.7346038636 2.2243768949 1.5573408059 2.3754111430 7.0575546516 1.4918066107 0.1380425784 7.5485351250 4.3309958580 2.4998283945 1.1612978485 4.5684713933 2.2800765855 3.9091211210 1.2556373184 4.8023423893 8.6374110213 1.3205771248 2.7029514129 5.8335518657 4.5979310552 0.1748102413 1.0578717039 4.4950609004 3.8886432761 3.7705052652 1.5193961820 1.4352734277 8.7036410452 1.3381494135 1.1338302359 5.9772487787 4.3431750269 3.5669097613 4.3621207591 4.5282104068 0.7152916800 0.6720398063 1.3202495078 3.4242250302 5.4640211280 1.3546940771 4.1951506389 9.1312070277 4.5140033578 1.5955198129 1.7774954954 5.8107233230 1.5914052995 3.3859385243 -0.0613947876 4.0231923885 7.9283444471 2.6001030410 3.2925111253 6.5888912721 3.4116883301 0.8218898087 7.9367884953 0.1120856186 3.3478989975 6.4503233583 5.8811494744 0.8837158538 1.7999039258 3.2541199215 1.6011689569 3.1940412483 2.4413531716 4.0938624927
4.7732144962 -0.1888746357 2.4354430328 2.8066553637 4.2983563093 4.8755141038 2.2196946406 1.4242816942 2.4222842479 6.9887736725 1.5793761904 0.0805635641 7.4887881422 4.4222691894 2.5299821753 1.3186151702 4.4742606420 2.1436257874 3.7924361197 1.1718572230 4.6257290850 8.5006084818 1.3792313743 2.7846982209 5.9196239623 4.7063234023 0.3168856092 1.2716848573 4.5249235572 3.6329740855 3.8569452558 1.4735540692 1.1961548837 8.5216751927 1.3520610300 1.2600508078 5.8725648375 4.4070090572 3.7192607633 4.5026152743 4.6900295394 0.8675824981 0.5235974794 1.3073686110 3.3703462898 5.2028491498 1.1863900242 3.9407695614 9.2815132642 4.6110501545 1.4679416574 2.2368132658 5.7378312797 1.5697062255 2.9099973343 0.0529848005 4.0110891720 7.7228983161 2.5858706074 3.4347470452 6.6708681379 3.4197935877 0.9475589495 7.6444767816 0.0944580290 3.3823171187 6.7639268920 5.8549896626 0.9833980952 2.1177320682 3.2952296274 1.5150490840 3.0539381065 2.4682584236 4.0069389175
4.7263785857 -0.1604794368 2.4604727187 2.7306787548 4.3350390694 4.8017500192 2.2148031427 1.4858294694 2.3959405487 7.0335777612 1.5407406588 0.1091193895 7.5118320097 4.3851179170 2.5157898992 1.1612494090 4.5443942832 2.0879959540 3.9435300587 1.1944084510 4.5874831825 8.6349862972 1.3280906416 2.8189590815 5.7986931921 4.6796607900 0.3270667326 1.1415288853 4.4754528884 3.6588322201 3.9452699659 1.4877028037 1.1974545926 8.7064222465 1.3827008518 1.2468933791 5.8731482548 4.3666088381 3.6928439198 4.4347518460 4.6102766062 0.8955443381 0.6304168696 1.3554348944 3.4609678653 5.2890701770 1.2625272081 4.0801191293 9.1939266987 4.5231804912 1.5448248215 2.1775247992 5.6876274131 1.6770420414 2.9694824751 0.0158015449 4.1072450658 7.7988107535 2.5241621233 3.2549399554 6.6588081781 3.4631537764 0.8434879529 7.6918408972 0.1604997844 3.3270980985 6.6926418467 5.8688106270 0.8526717047 2.0494723343 3.3407055149 1.6921907521 2.9998345347 2.3892070186 4.1327496104
4.6924158413 -0.1794760815 2.4584840586 2.9823736057 4.5540439160 4.7590956646 2.1434516640 1.7243896738 2.4492801236 6.7928607237 1.2823373973 0.1586097529 7.6566310648 4.1585572773 2.4473674448 1.3326312102 4.6950491510 2.3295727172 3.8509419964 1.3228131417 4.7556427374 8.4739669923 1.2108408786 2.6375726835 5.8808820946 4.5112155707 0.2260833448 1.3405459519 4.4845043404 3.7801953344 3.7195493325 1.5792774156 1.2780799257 8.4884346408 1.3225587581 1.0965465759 5.9422317434 4.2189226501 3.6767843350 4.4304589144 4.5959678130 0.7075630841 0.5393176970 1.1846593157 3.1426056051 5.2883797126 1.2691694548 4.2340327523 9.1688398927 4.8279236403 1.9183665621 1.9797303657 5.8186189568 1.5224701284 3.0418420852 0.1691820283 3.9619754691 7.9323191046 2.5381399747 3.2349711757 6.4453754649 3.2864636536 0.9531913931 7.8094169448 0.0895793527 3.4151326906 6.6521447487 5.6911859777 0.9703214209 1.9004671488 3.4248162817 1.6271697259 3.3280875091 2.5486591947 3.9305690087