-28924.7279658431
-28924.4733391226
-28924.1421226001
-28923.9427749613
-28924.9273106247
-28924.2237358932
-28924.9749944688
-28924.9679887656
-28924.0928883882
-28924.1196631517
-28923.8975187796
-28925.5036233575
-28924.904240009
-28924.2178574209
-28924.4885362646
-28924.6103373496
-28924.7047518234
-28923.9469383009
-28925.1095093861
-28924.3756856794
-28924.954364849
-28924.2007733066
-28924.241199334
-28924.6604646386
-28924.9599668537
-28924.5668595669
-28924.2748078249
-28925.0130688897
-28924.398818201
-28924.3064149195
-28923.9994931162
-28924.1957099509
-28924.4764386337
-28925.0366358409
-28924.0286792153
-28925.1034000254
-28925.4911156513
-28924.8435966139
-28925.0434596361
-28924.2324704708
-28924.6048403807
-28924.2314237855
-28924.2281488971
-28924.7052692476
-28924.3657865912
-28922.0349754761
-28924.9661524063
-28924.259007679
-28924.4782484619
-28924.5493055122