0.502157013739098 -0.178060628943171 -0.367026072086939 -1.80752495428352 0.213749322144366 -0.0857267057274866 2.51122421288842 0.62642067927741 -1.03861921078352 2.09714209218009 -0.280664304206918 0.54654477287911 -3.58027447073662 -0.526008354105184 0.863970691081768 1.78102949279328 0.941901044723699 0.127044826390122 -0.719256738680908 0.321405212508241 0.668474392174216 -2.11245660313297 -0.983338207401161 -0.856495469615045 1.70628756253337 -0.139876681413898 -0.407547922512165 -0.762880109246228 0.665440749122491 0.0936356720732901 0.368994250539432 0.0979376396588038 0.191115398495792 1.11364936155882 -0.662823624567569 0.388663950885748 -1.32668520294477 -0.121503844831707 0.543435282323336 -0.821882011200045 0.178537054112664 1.16645542231758 0.141776468557656 -0.325299146232996 1.8447822767125 -0.114166948643551 -0.12747522883682 -1.50731461972842 0.812363792217513 0.49762338987851 -1.96022783429717 0.351298642179823 -0.438040676020816 0.38708992234412 -1.20145326045648 -0.714241547447163 -0.196785192255997 -0.811346150112358 1.22050795324455 0.945220594299157 0.107139098895617 0.528473526541827 -0.0148797376330643 0.467580579190481 0.692003316370553 -0.602502490263689 0.362193171973092 0.42045973880292 0.371336781418682 1.44655099879923 -1.66113284371684 -1.10950551673598 -0.511460545718647 -0.245994538661794 0.00886078824405673
-0.512304638450134 0.230212087175471 0.211742320054208 0.00542271087413749 0.362243051348635 -0.763778709336556 -0.596043625351204 -0.0693536721503233 0.136021314216624 -0.677827032198759 -0.403313317794653 -0.0460047250822351 1.63801066783034 0.266304700474493 -0.406316878954943 2.09612727828695 2.73986638528519 1.6727534526675 -5.78322845904659 1.18053529017066 2.61828849272072 -0.0789971037920793 -2.89760296846577 -1.23577104216078 1.51108154102266 -1.00423458043158 -1.37238550957008 0.412827680124437 -0.605154324693344 0.181828578678152 -0.31905059745038 0.107181264965664 -0.167578760993959 -0.209092285395836 0.520046226066667 1.01418731562375 0.959086032259447 -0.273414568370871 0.762182055098806 -2.68047290452234 -0.330587388481313 0.38254652829657 1.86077915809162 0.304342352309518 -0.22854575607807 8.05860987174718 0.225315680846369 -1.65061883699472 -4.87352917921935 -0.170418028747176 -0.49806433384272 -0.765103083890285 -1.19083203878796 0.537199846160063 0.0751450790271877 -0.454765950548981 -0.00351392487396696 -0.500672202431046 0.710213916427137 -0.146735609771461 -0.448268261998831 0.757002313347804 -0.804771842727611 0.410071201850214 1.5451185584069 -0.459655157792952 -0.0839099651729062 -0.0232900688361325 -0.548372054951202 0.362376748643906 -1.02256525094373 0.100177069354586 0.138961626271844 -0.502849925682857 0.715186684480652
0.0343596906641689 0.0337202576385191 0.097872590782451 -1.19149512595047 -0.137570917290847 0.942504996544065 0.255382917001803 -0.723636096431569 0.628730557163392 1.10259028124829 0.0896653766241208 -0.582734830937569 -1.22177653488852 1.40606462957928 -0.447034133119411 -2.94448263950148 0.921701697399965 -3.64582419772632 3.73057902696126 -0.37665947643155 -3.77575097216007 1.15931727230104 1.14227395247624 1.73352581534292 -1.75242032848684 0.575530089383585 2.48803210303209 0.333721047394309 0.168642682932093 2.51602883088211 -0.149921204941465 -0.339384413399933 2.48037124801309 -0.616194893070677 -0.0270369355360901 -1.28398742903901 0.784497419230379 0.354454412568575 -1.79247629526009 0.473938399800963 0.336737721173942 0.540654635691891 1.47737285334239 0.188502130593619 0.679346553381545 -1.27853695026509 -0.699501420643583 0.282420623868443 0.867321093879212 -0.748262881110224 -0.504576163452946 2.00487501761204 0.910785313241123 -0.0257025336852166 -0.736900925003875 -0.74786564587716 0.0442442916577783 -0.233415165837933 -1.22954460485392 0.849422368474865 1.67129563792868 -0.463925757936114 -0.341744684881825 -2.34504258863004 -0.973119877389742 0.730526649341667 0.402138067147188 -0.45661457276628 -0.342956445175306 0.499628335087202 -1.09158030898276 -1.08713076015208 -2.32683018880217 1.88662490214889 -0.183762047255911
-0.135849564614238 0.193913785729878 0.00231579142019612 0.0390681494493417 -0.383202673484128 1.59605568524389 1.14444164843091 -0.980174723706913 0.362396803238196 -0.118771792024889 0.393369581458905 -0.686205224628925 0.82169997719033 1.57541642239668 -1.26951006884268 1.30894871406603 1.40179042989356 1.04202180694816 5.28995691612913 0.931444116462258 2.18081243066224 0.413007914362869 -1.19233330514774 1.99171997508797 -2.70011740807071 -0.407045529214168 -0.0302148174005981 -0.943595657941253 0.175394139233073 -3.28702796549383 0.236851186326387 -0.239085473818505 -2.68989059342324 0.759114987723263 0.261289252130564 0.554394089662408 -0.560858868109106 -0.270446488415865 2.68392280896069 0.138649751619607 0.0399448951740968 -0.377615154982551 -0.923028128835159 -0.250215516539596 0.602309657626279 -1.72321672543682 0.0455000177925888 0.287430415788341 -3.33715802346571 -0.676126762557174 -0.254551165559111 1.10975979870718 -0.646800003729392 0.913864464795278 -1.79446015743376 -0.963794233934437 -0.950968549555058 0.097078120316324 -0.467621202599429 0.846893946933152 1.34825314777374 0.953789562485267 -1.65189076107107 0.232526078824384 0.0902886117082282 -1.41867614117605 1.48062606849058 -0.328239715398399 0.211849020780242 -0.0878296099159826 0.534082128078427 -0.838661021756501 -2.0950957522319 0.208863457332777 0.179224309632392
0.444735310971307 -0.0691826938784869 0.108147999254544 0.239900513099289 0.0819615842045209 1.02545234119102 0.228113810970272 -0.236912121439808 -0.899068030861574 0.00453413808095466 0.122373134361149 -0.932135228634733 -0.0677906993465738 0.0356200447822772 0.622019981381542 -2.72194683395601 1.50143219584669 -1.04048583071365 4.26169950283926 0.508796112890015 0.302642853998483 -2.21093417417652 0.0111382702469542 2.52548380075958 -0.087070620655139 -0.455809046562275 1.29629915016215 0.0112670824487437 0.239458797804529 0.617322064113881 -0.308527591871853 0.648204853770466 2.05078461192649 0.0677665309893518 -0.432551887829593 -1.41052060616454 -0.0536051592081836 0.301296367968998 -0.779785618012825 1.47569186696455 -0.767695525867617 -2.10019656115665 0.294926720290088 0.0161670883204099 0.0616249400429518 -2.93330271740485 0.352784739038792 1.26610284469474 1.66111767421603 -0.132896911270225 0.327122057431974 -0.686824603060284 -0.819066397583683 0.179374461979388 -1.09684515420441 -2.75816620257535 -1.63282758364696 0.638967399108002 0.437003493541737 -0.752335506412312 -0.993504601155572 0.295870828882845 0.731541720344991 1.11438881044574 0.594325615106977 -0.347596255541561 -0.357309878263334 0.946868156353183 -0.00310254858082676 0.758944780781976 -1.68942319139609 -0.0877136532233537 0.315608406317529 1.26840218106321 -1.12815089011238
0.247594278221743 -0.339097221325285 -0.46105229452853 0.944852412516796 0.148987123645854 -0.38822634935392 -0.477535885484474 -0.262263185504573 -0.259059078401378 -0.505289901321544 0.100613642445681 0.458052332910805 1.03165795257304 0.538819126093937 0.258856475577006 -1.80366058822984 -1.62936379525872 1.78147249363896 -5.3400826032279 -1.48341879930063 3.58834181695529 1.87354416446776 1.42211319010523 -2.79910045773445 1.25119431072116 2.12758522342338 -1.76046710589085 -0.373617091633595 -0.447149061371307 -0.415705514405136 -0.692061937492326 0.256341937985187 -0.640636558417419 0.0295463309242453 -0.0320498127781867 0.366254227316935 0.802319011579762 -0.498699138885072 0.306547586350933 -2.98965972690396 -0.499406191888907 -0.265812077363457 -0.319844296585957 0.427905135488391 -0.612315100405998 5.65646208298488 0.62054005516697 -1.35248903804217 -0.453300422504669 -0.250237885125536 0.917379675220161 0.172625833890423 0.426650694904497 -1.22170120160484 0.728043993412566 1.94260704500087 1.06540597811135 0.195149200160215 0.95366974913989 -0.114408117995405 0.0913720740202862 -0.774256206412654 0.776044921957264 -0.683225060495308 -2.00042572589154 1.31757167539061 0.120900921452073 -0.188398772299968 -0.241242628255659 -0.441667472265214 0.835741021405755 1.43439791465913 0.934682162109638 -1.39680840587345 -1.73810983279941
-0.614843007727345 0.333304786007688 0.352390332017744 0.0154692912831708 -0.191992401330731 -1.14228655087522 -1.62384723916771 -0.64095357527332 -0.268353611524514 -0.879984541732984 0.607217376803442 1.22107153876615 1.95187201045294 0.0968600908809597 -0.334109026660777 2.88381723466228 -1.41383141399377 3.30563734344458 -5.30235759737566 -1.78533403148063 1.95038334249214 2.63740617750368 1.75081827493525 -2.43580531151611 1.61561637087252 1.71940635252161 -1.80797515421433 -0.122060488378362 -0.161845203908317 -1.52251703064141 0.483535037389374 -0.447369919018687 -1.0394527619975 0.184881504993619 0.211559257603761 1.18828767641489 -0.70240548016297 0.146095148305078 0.819104449890799 -2.47391803952463 0.354135595941391 1.22814489701651 0.633587882744645 -0.154246826663835 -0.781694146902812 4.00343386646328 -0.293620600559368 -1.79053279938518 -2.11511075155427 0.039871361661698 0.031283624432213 0.0825606509314063 0.88422428865416 0.00526381678091209 1.36023473942163 1.10528505307854 -0.216500401104741 -0.71943851558044 0.423066064730147 0.0532868568013663 0.886350075648962 -2.13221346383139 0.114228140867156 -1.35557487446109 -2.27699066533732 0.146191050403417 -0.495096253887713 -0.0984122650570143 0.0423085090883704 -0.684486443054149 0.762413454263697 -0.341227122083018 0.350358390239815 1.16255326106696 1.22287233848937
-0.213658562249692 0.111207096214407 -0.0731301065213504 -0.988585826240531 -0.366071421976671 0.207058543846624 0.587050939583159 -0.258978860024215 0.264679764116589 0.88298218935906 0.317661174020298 0.414307349228825 1.12593460033308 0.160410014865624 -0.604688955261729 -1.19078293074297 -0.0493906090849622 -2.52372131045365 -4.62798304071708 -0.166217876794214 -2.22249076269156 -1.39256223119769 0.35900937657437 -0.547178292370545 1.03819420765067 0.738697868074348 1.80210764272323 0.0154312389760554 -0.122239437065878 1.16389100535021 0.106975319708911 -0.225949200337805 2.2453396304533 0.727130480931612 0.870375819965961 0.583423629118396 -0.959659130857828 -0.32441828674531 -1.61766528192254 -1.57108077337716 -0.36595289418221 0.677167030358452 0.682558116680054 -0.444183809628316 0.543385917168159 3.49528567123496 0.418638113154859 -1.67228242681185 1.9563662964555 -0.274382588210667 0.692651748252615 -0.876029672894807 -0.0966004095959149 0.325129453512076 0.460056506788947 2.69588126069209 0.325144108792519 0.0670396805014097 0.58354164269249 0.0143135810096301 0.128233189656931 0.120288227885477 -0.992208251611814 0.593536543954698 -1.0998317460926 -0.320905647422259 0.211735120969078 -0.682398451256279 0.672362926585124 -0.529214003869479 0.47341878012069 -0.322706190035297 0.271045812252933 -2.37251378326557 0.966014894586844
0.725446409231569 -0.282111320318038 -0.642817624101611 1.08137612003142 0.160744000993618 1.51493793666067 -1.24618631857254 0.0304027649445266 1.56685645306698 -0.276003667915822 -0.272856125052933 -0.699128353767742 -0.0340704417080547 0.048005813638179 -0.815327758409588 1.43817177792833 -1.20424701970727 1.07461669331476 0.687985969757856 -1.36839721640808 -1.76880184670005 1.67891612664892 1.43348903016148 -1.37318563646024 0.0578014545083968 1.65686070091257 -0.363145508091711 0.420486221151791 0.12707670805284 -3.07511003918449 1.30914771734783 0.163484281326298 -2.67040035598481 -0.577975721446303 0.114368008806823 1.87672050367117 -0.0755142892502811 -0.125482882027105 1.37718832779249 -1.30116496037945 -0.167605500453013 0.475551509090439 0.590921219171059 0.325130224842625 -0.270312791120594 -0.0804724020233533 -0.0823968717446998 0.599684048435312 -4.38618376891477 -0.21006981831241 -0.719549844289771 2.73124779483372 0.716747343292753 -0.0321693690133805 -1.79401278571497 1.24853116344344 1.91122597580922 -0.720468498974389 0.284775496036488 0.0158374730655313 1.21362408519921 -0.703886177708091 0.523850685447664 -2.64960117060364 -2.20435909546122 0.97751980395506 1.18281919992814 -0.179601490271164 -0.461842651231725 1.07394152197364 0.725132991918233 0.867603143750196 -1.05023082087777 -0.23373501090585 0.110199224296214
-0.462725824711061 0.221729765121103 0.440925709386645 -0.841344223628508 0.242629994804274 0.795283191416149 3.76268386131865 0.686523527035743 -1.55231764353685 0.127631551828213 -0.165091991301926 -0.608831514533651 -3.2537841330248 -0.53920839091132 1.47660255123348 -0.857705430137243 1.86307335225643 -5.22799490463599 1.04156569348314 1.89296215394471 -1.51205136063374 -2.62878835838276 -1.38195695036054 3.10082388571777 0.167653322947091 -1.15348524201523 1.75495054979984 0.535541742588525 -0.107897059715728 2.80858422395243 -0.601281474003612 0.0892791971289354 2.55165813163099 0.391405259659161 0.0402706537762272 -1.38932881353361 -0.0272719342435464 0.104815594169925 -0.829683248379082 1.87466182243419 -0.0562600789600372 1.48329847173489 -1.63042103233209 -0.46737797636611 2.09883619117728 -1.77560421081731 -0.18945858047517 -1.24528694715167 4.3424953494731 0.513057199956398 -1.15920722914263 0.820031846321647 -0.816741350196892 0.374710581242798 -1.44553618490609 -1.4203478715873 -1.68549223380495 -0.249417960751271 0.113095827620287 -0.106028897124505 -0.625223060044005 0.792388902083724 -0.509793443290697 0.0858501186154286 1.27304044876837 -0.594155665275874 0.84506743619161 0.41037099232384 -0.130682164152031 0.991860895754293 -1.24120917964591 -0.133696781050199 -0.587345073632755 -0.704202423233443 -0.201122898156977
-0.288013284573684 0.13281335046068 0.233372742657703 0.496270476094445 -0.110369174127317 -0.650930735932886 0.0724482503154705 0.245533282993111 -0.4590555768457 -0.963149915815306 0.107137042014152 0.0324408773668531 1.08685950890879 -0.250539732480627 -0.0646557548826622 -1.99169452117983 -1.28758208651051 0.0864736108097192 3.75667211101478 -0.0151710434706442 -0.336813825788173 -0.151529943357827 1.63360457062063 0.734264260075029 -1.32906372924967 -0.179928020203844 0.601194827871869 -0.139219764895789 -0.243291025085314 0.0953778506747389 -0.780524038459011 -0.049584984383471 0.344219113285063 -0.317371925064184 0.169589362626682 -1.4197428913262 0.724862512005493 0.13171446153763 -1.49102257585897 1.9767039690578 -0.232574929759195 -1.32856339283314 -1.5537489759268 -0.0727868644267615 -0.672476826396287 -3.68813836323872 0.238044434686677 2.65891138744795 3.29245967522438 -0.251712154916077 2.02659542877966 -1.49937608571154 1.21951447949662 -0.250336101215523 1.61139744987618 0.198393159341809 -0.233604656042961 1.59134645512817 -0.858267215887563 -0.291057726253105 -0.383800968880464 -0.679985986407195 0.0442059822404796 0.858118349091483 -0.955803249440188 0.355343499582124 -1.01022267659861 -0.0517459954733731 0.0118831184477211 -2.12065996063855 0.775245566397656 0.273111435464864 0.749375653983168 0.387753266616808 -0.299133814217997
0.292285684488128 -0.220580996822509 -0.121899023183304 0.604914955112773 0.106142025605119 0.975569623215392 0.023651051533363 -0.168787693075425 0.661390235296159 -0.0979872619241638 -0.327390223353064 -0.548861592740038 -0.236834474164478 0.0358853824913526 -0.259282250040406 -1.01576185838574 1.87979168480965 -2.52582138643013 0.409835688922391 1.59538848431845 -0.519808399147195 -1.8479372757707 -1.19820518751195 1.18001901292277 0.383311431091627 -1.04808215107667 0.489892086669307 0.277009225842367 0.368776221104068 2.90692244127668 -0.547445429850903 0.103961988361659 1.78598014937104 -0.539598427059254 -0.312016062837682 -0.94439012840738 -0.178907549886674 0.0102090740448237 -0.18816608758416 0.643174750146094 0.207052887422593 -0.947011366725233 0.382952248165679 -0.201164807116841 -0.454952612541993 -0.581291671479197 -0.181123068335417 0.0751677047233104 1.70916591103443 0.408739113990989 0.198384931815946 -0.871749302564683 -1.1419499936454 -0.167353018253098 -0.470283321436413 -1.31239141941924 -0.916869054396301 -0.083076671069114 -0.302963727507132 0.709179819270256 -0.477590392843315 0.920675827768947 0.0338912359103555 1.05201336577799 1.76446259813797 -0.305437384579821 -0.0812840988717556 -0.150995668397111 0.585303361667863 0.834931381438818 -1.04762500917091 -1.30466885795627 0.416501527532362 0.212190977323914 -0.397179697263933
-0.611589021248606 0.302493472982036 0.512369687326487 -1.46810223146629 0.140348735710276 -0.0559088664497687 0.838594944439415 0.101084411191143 -1.06216793246397 1.07960360242835 -0.235203881382544 0.629420898005318 -0.515250606929385 -0.377645236873987 0.53416800287962 1.8449491412214 -0.590562807575661 1.48119325355475 2.06055762710058 -0.775865201939199 1.58381286964985 -1.21275633833087 0.0277373036751613 0.855883033158632 -0.158469861423102 -0.175638393907125 0.443196249414596 0.244679677184845 -0.149477175655057 -1.76920293858587 0.267124881958941 -0.0480199546982557 -1.17988505851732 0.717626917229524 0.0495271345922481 0.604296862232329 -0.619653539255253 0.203854436743428 -0.0160097368882838 2.2357213956095 0.0404696570580337 1.31774779586611 -0.441245297344379 -0.419028663523159 0.562434439311833 -6.1299801076363 -0.21790165160325 -1.35686453914008 0.926574706702394 0.348371956964314 -0.680200416299994 0.525048304681068 0.31403669176755 -0.135173879052756 0.68696189989812 0.975146162743641 -1.09285377572021 -0.0496595463366026 -0.245193383330904 -0.394953637297678 -0.275114838012456 -0.321012091038109 -0.186359888547092 0.211149166861537 0.253144515746754 -0.787074434596719 0.0109834899166602 0.163273450976063 0.0188307498184927 -0.263921031965928 0.26047344151923 -4.70511635279105e-05 0.0961669218270184 0.37558706985737 0.173348056395067
0.248137809149055 -0.0435122989661719 -0.016290501208352 -0.569124189168842 0.0937873670813856 0.0914574346011128 -0.571864212391339 0.58922943416552 0.124100914792337 1.90850857828285 -0.0203528421031115 0.693368571443412 -0.961362228711429 -0.532812003773357 0.195697616181008 -4.31890009084949 -2.70432578754953 -2.68966253669073 4.46076346264907 -1.44659547886092 -2.36345399173971 2.09314428594132 2.77360489774672 2.18921607700055 -2.22116150304435 1.121779185552 1.71398004210491 -0.659010423440343 0.230288706010068 0.0979301834634906 1.01552223169499 -0.127634637150412 0.0938305615921653 0.540645893945662 -0.120311882022333 -1.27888841988554 -0.8369579239029 0.199031049706359 -0.773269674639667 1.78888086645804 0.0449408031441013 0.152325442264687 -0.823776141919772 -0.00307323801994052 0.315008054039727 -6.27086337541747 0.0554033878295727 -0.0222482583737549 4.73989564727423 -0.137444676190889 0.282040872127838 1.10476671894919 0.843437100519859 -0.305666469753063 -0.00272896748461881 0.682279923461818 0.746060475280825 0.571045830678173 -1.52336343736455 -1.06423175590462 0.49227729783897 -0.487510989262574 0.456815375819369 -0.887214480084923 -1.34931398438968 0.520483570488311 -0.00701370868785722 -0.222131371227281 -0.220335199487358 -0.39813100494182 1.95625625329708 1.20041787774868 -0.435480115706202 0.128344518366262 -0.138686518375806
0.265241035646542 -0.314432384339514 0.16836474682404 -2.33490087745322 0.242504782145049 -0.0602398874859854 0.637319322833609 0.181723420613218 -0.535768770880302 2.22609056236672 -0.137666048058636 -0.039097460010228 -2.91145066582342 -0.242394224766268 0.94786831496588 3.63367959822227 -1.86763294424552 1.3699607034322 -6.04801003879573 0.13292133673763 1.32176308559735 0.248315986506021 -0.639907908158194 -0.236744485600354 3.07206868282727 -0.815708281480743 -2.22298929933681 -0.0480410377332791 0.908977828653138 -2.19281099158222 0.683776818948482 0.57321841172632 -2.85900275954988 -0.464187496102624 -0.828198437071029 2.08059242390706 0.347418849515145 0.558899945623209 1.1642663862177 0.250588326305254 -0.0666779264736295 1.47238491578806 -1.08409814554109 -0.328268511738919 0.30056026151446 1.72285625695996 -0.371161689383915 -1.4403546433838 -1.12293978091902 0.551659722863941 -2.27933525309804 0.0802610574527526 -0.41229571915537 0.424028942366278 2.12631252801648 0.657962185223385 1.06032702355217 -0.655258157426538 0.518893858225508 0.38434244292631 -0.249640618169933 0.0323850844570959 0.203572386872444 -0.364129982983232 1.42018229262931 -0.627368644522914 -0.84688571940729 0.545167176517456 -0.225692861485142 -0.503171827632239 0.666248075097778 0.422800984131254 1.33878532238712 -0.966399274310747 1.39857269595065
-0.214532736872615 0.1675980442577 -0.0659454195616568 -0.44700122301596 -0.51768158371166 0.915077253529492 1.14016333498225 -0.69082420907034 0.355702939618255 0.130912020655823 0.443256156087285 0.0197185512811259 1.55112876604968 0.552921362532966 -1.19234564643654 -0.0121322582152542 0.363486436194651 -0.469392177541398 -4.09416856433938 0.145993332672526 0.213390653438785 -1.30637221292005 -1.21276919384003 -0.83424643991074 0.875222604029703 0.29753741709043 0.0428648955248426 -0.65486220774439 -0.0189276803575639 -2.172839700991 0.405983407047317 -0.248792411675514 -0.763942488523263 1.27465432938839 0.71918886159254 2.13411942161955 -1.49490211141346 -0.54696257692683 1.79665896372059 -2.23063781306702 -0.252081879359537 0.385956066436152 -0.0429903652942503 -0.566735378456614 0.672817497389044 4.10085420043346 0.144284835505078 -1.55050270275356 0.461331259077315 -0.513621299698366 0.6054245474959 -0.566722008727087 -0.916610144441805 0.89040033236511 0.172852347961833 2.78070730944779 0.257343639258983 -0.164676758356038 1.04805695427871 0.500277538299814 0.473258600476549 0.749362284253641 -1.70488939735706 1.00238030179025 -0.462390553032151 -1.31854946541737 0.842613062382662 -0.658717574941663 0.424921886032575 -0.864771846412659 1.68611161223631 -0.308814783946502 -0.337584127897078 -2.49239012063755 1.16679455064923
-0.339153785565592 0.28088619029503 0.159666709325957 1.13087780071553 -0.702619652945586 -1.87406455547859 -1.70549154940614 -0.777587840166723 0.343443668972494 -1.36368978606364 0.786444257537665 0.906610872306483 2.4180852776891 0.431393349344037 -0.50251645377523 -2.60123360293768 0.916263559914835 -2.83999588925589 1.19996330694476 1.22437386195933 -3.71798782706897 0.819172069868984 -0.678036319887894 0.231924183885483 -1.42199491942096 -1.309815946714 1.17355731979827 -0.0773940217997486 -0.110069126543508 3.88170530733144 0.122978628842614 -0.602939063354784 2.6293681418459 -0.104810451966261 0.340554264733551 -1.69441421427261 -0.317230514463417 0.098124044541633 -0.81020586644981 0.36380242460982 1.12393196911604 -0.265234607891962 0.633749090829519 0.147286339783902 -0.67211687213979 0.531333105999518 -0.797280937539711 0.801464634440947 2.23752296666327 -0.336323002448421 2.35912194226276 -1.06797528017219 0.359932402132103 0.626843882638978 -0.308303906012458 -1.32118201658328 -0.249104800548118 -0.000297219371793795 -0.548323204016391 0.00274079455304659 -0.350519341214506 0.4212840340503 -0.639107009937487 0.7761454520389 0.924920716893787 -0.329758722360819 -0.41073351768217 -0.252612554777687 0.498092873073057 0.00446240433983833 -0.646327435212647 -1.03847574330129 -0.169264375355101 1.02772185277824 1.01844248915591
-0.18027100518825 0.114839034662469 0.238710350061198 0.347602940406325 -0.114961676219861 -0.660311658077582 0.239512790943004 0.323736944759796 -0.539441075627128 -0.677825746647843 0.167725056688207 0.335348811964228 0.611404416137059 -0.395564788203174 0.129707202337289 -1.59636344613319 -2.58010274542017 2.51445197412847 3.22607022637632 -0.78334505138922 1.18841443173522 0.938339554465837 2.79040781955022 -1.42212938804678 -0.947675225218288 0.334447126551701 -0.776677670118151 -0.0966330625891829 -0.028456440857607 -0.921356655534094 -0.974130320409768 0.00221320445709428 -0.178187127153312 -0.435183924775141 -0.07080917289749 -0.304215339879011 0.685239518780779 0.136958995054801 -0.946281430915092 1.45990015951163 -0.130022162311724 -1.13471568442034 -1.79164197271556 -0.26024049969324 -0.67588559320532 -3.68915034891984 0.0920953249656633 1.93972998205072 2.7457858330333 0.0563973757978727 1.32703924366705 -0.840350235660208 2.27118074652726 -0.840728701849897 2.00422272907723 0.488352253782046 -0.334082544311906 1.17332823462503 -0.049634606648831 0.195407081673977 0.0892408877116367 -1.41652901403604 0.467303928633345 -0.032845825905413 -2.51577326336 0.855031741342015 -0.891803125524718 0.145953994814495 0.346677086636576 -2.02379472755392 0.50232516379892 -0.169195212715817 0.657021676173193 0.918806122516624 -0.634613238155297
0.575537288468715 -0.348531365277906 -0.281692487829585 1.12299197428621 0.0714306082103149 1.47915591246297 -0.67620646671397 -0.386935399124009 1.34218097657681 -0.285913979927753 -0.370016006407519 -0.834482467058929 -0.443090577129296 0.18409011984969 -0.393163121981785 -2.00296648872205 0.596860978623637 -3.32768994096891 3.0953281555516 1.04010145098975 -2.0903386996221 -0.71551861372718 -0.626150456474853 3.00759470484414 -0.963107492635076 -0.707137078864632 2.17798627552837 0.223352387487358 0.320952698585787 0.868857070113724 0.0638929089690704 0.131551710791656 0.322237221061117 -0.522769537127255 -0.20918304529051 -1.00355169578497 -0.314727546829842 0.0686934131998333 -0.623302961195773 1.48842190635577 0.269792657219955 -1.27214904776317 -0.624025440810601 -0.035616188129529 -1.15872180511672 -3.12945156195739 -0.363417273555367 1.25878960264344 3.09818207858526 0.376757949631721 0.717486277959306 -0.293136976304745 -1.52502334070737 0.251076064322809 -0.787100402725224 -0.60305964803071 -0.0851302101024333 0.428429383151962 -1.45432986739232 0.208328411041511 -0.262164198084036 1.075299063741 0.0853569812840268 0.672205318042815 1.88945105728276 -0.457003323363297 0.131610589023612 -0.419563452704241 0.310953683560648 0.0537301147572249 1.02473089001693 -0.289982234356726 0.0664976922351975 -0.000748704853515166 -0.212795700474831
-0.395637036164657 0.142908781804524 0.198426583665626 0.460521619110379 0.0123091500213045 -0.593888270685333 -0.137894104791145 0.129720829176999 -0.270883575727326 -1.01270019032404 -0.0669455781743539 -0.178445779997624 1.42877337229117 -0.0368914546382636 -0.237187486446029 -1.75101007913192 0.5564694830613 -2.51558145916332 3.49389496225396 1.04872441231433 -1.81399230383205 -1.18441842526773 0.0217674623311473 1.53306883256046 -0.778474613188624 -0.735428969204983 0.680376022555129 -0.0497829592245447 -0.39711619104868 1.85438379939439 -0.559029529155548 -0.0680866331674515 1.08834869108996 -0.313071243029587 0.352793995005388 -1.63054675921168 0.845368769326335 0.0218877898968908 -1.06672186802903 1.22400773705844 -0.311783635232058 -1.02175689652771 -0.334197472563802 0.120084596620373 -0.422674228810931 -2.84175246602759 0.34524086915315 2.87331248390676 2.54573714122178 -0.539387853819203 2.171565462923 -1.84428425428762 -0.0843794483674524 0.285121052122725 1.02290489349575 -0.210923424120676 -0.218949118489658 1.41390880415892 -1.06119425620014 -0.573686352259767 -0.727775056160926 0.187813075302609 -0.420308558015191 1.29207868650471 0.56437973495802 -0.086810682259911 -0.926710975099497 -0.228514131525534 -0.292842070924601 -1.68299286571394 0.56447897948874 0.496086128093082 0.81253477048935 -0.327928097856345 0.163586354069033
-0.029792642479763 0.0453110418079275 0.115239355217731 -0.10312252361347 0.143657743768223 -0.0122646699596087 -1.45963790712475 0.382061875601214 0.538524477823975 -0.311869510033251 -0.0907930618876914 -0.261622981148374 1.4354705783435 -0.217092782966863 -0.814598593929998 -4.42212880096863 -1.77318968908676 -1.37992603702334 4.57974582791401 -1.332762002125 -2.11724450896475 2.83074943573701 2.00019689782849 1.31925651842121 -2.60472104546277 0.970853708234906 1.17927519316274 -0.285910894605555 -0.0124611021395831 -0.908330682321992 0.864790872566217 -0.0587656176954442 -0.526753202305951 0.472234016396447 0.0481127714743955 -0.163180634199924 -0.398053100556306 0.0674101762754191 -0.257163919240917 1.16092266828502 -0.0495919263584177 -0.207431610722465 -0.20562566879558 0.222672073942577 -0.37729093904152 -3.57485793050688 0.138175897551946 1.3778820110668 1.67718551800572 -0.481547318562958 1.46024391582658 1.21828574993104 0.575806997050905 -0.178834530594641 0.0659107096869231 0.665774992360667 0.739357098584105 0.360793721245865 -1.25409759891 -1.15340116698532 0.535480293254737 -0.531081138019969 0.269833280628903 -1.11572372651698 -1.15612602070701 0.443905873520263 0.139734242372398 -0.171894098309 -0.385805914089156 -0.287621962874835 1.70332282501074 1.2437931369872 -0.542238434420481 0.166045612971462 0.0565385292884564