10.380155 0.000000 0.000000 0.000000 6.214109 0.000000 0.000000 0.000000 4.952241