5.344888 6.125964 2.550160 10.142028 3.098014 5.178280 2.866838 4.733804 4.996570 2.341378 1.791554 2.419150 7.323518 1.530914 0.040447 8.150118 4.600364 2.455550 1.141208 4.764594 2.243350 4.043808 1.542394 4.652630 9.268868 1.483744 2.758390 6.265508 4.529924 0.287592 1.390358 4.536634 3.722760 3.963668 1.534204 1.238280 8.981428 1.313314 1.280120 6.403708 4.604664 3.661130 4.735458 4.522944 0.621772 0.423546 1.393014 3.122300 5.499468 1.693974 4.059260 10.080028 4.873274 1.706490 2.097348 5.910334 1.698430 3.449048 0.287315 3.792630 8.731808 2.802564 3.533410 7.235268 3.406164 0.912366 8.403288 0.379106 3.590300 6.971638 5.735054 0.884434 1.806208 3.509874 1.534670 3.220238 2.736344 4.060550