-0.507165005887714 0.375043796040242 -0.349781692098869 0.56638776548891 -0.00550112948001734 -0.243755623186379 0.298852278567379 0.0834854762604221 -0.356944267582806 -0.375480369131337 -0.993617215415819 0.524845701856697 0.303316739788683 -0.595491352677664 -0.546033894945066 -0.174380868001032 0.189872270759959 0.820559950637965 1.36299276035696 0.884436918775677 -0.631052262117802 0.490216816830704 -0.306534216621406 -1.78381219630619 0.202946837796688 -0.770560247528973 3.02072917855355 -0.381997083835044 -1.11505266893879 -3.18659867104951 -1.19165659114553 0.381278203762782 1.2870706943561 0.251302835504402 -0.334309058383316 -0.503276471476806 0.0364929338542841 0.97996157936503 -0.62485770647366 0.579409110717714 -0.6982927456723 1.13144807110189 1.27445121234366 -0.132876856675934 0.576811269426533 -0.828117704473501 0.344957790841433 -0.526778141993723 0.532000821145321 -0.370000579796526 1.52984749907499 -0.595381052409065 -0.264848428396776 0.851722219063702 -0.846767705833195 -0.424325904627888 -0.859716545990332 0.148706873546152 0.941629536370226 2.30817504523881 -0.311484873199165 -0.169333795104568 -1.56633657627652 -1.28960888608477 -0.261647920836145 -0.162980088257018 0.684700615836765 0.425779862713956 -1.14067652690794 0.398795377655241 2.40470012155105 1.59888158326758 -0.0749692156618703 -0.552441594931091 -0.864188977627316 -0.553563366660448 -0.0163118413535586 -0.303301056067507