-7.98303706923167 -0.727724408159231 2.10541636990725 -0.727724408159231 -1.45744258182027 1.06865830896808 2.10541636990725 1.06865830896808 -0.448597237906375