-1.97787e-05 -4.24e-08 -3.185e-07 2.9840684676 4.6420368024 4.8977083554 2.3244183267 1.5828926078 2.4513821435 7.4222916973 1.5766940553 0.0492193196 8.0819429399 4.6358383578 2.4955498535 1.1249396718 4.6388286911 2.2030218152 4.0750629713 1.5475174717 4.6753068008 9.2814245249 1.5799039135 2.7439306235 6.3312979731 4.6712124018 0.2716130943 1.3408834175 4.6880990914 3.7317521789 3.8308111444 1.544145908 1.2492780173 9.0654762086 1.5306309285 1.2151632283 6.5755498046 4.6745847312 3.6976587597 4.8148460151 4.6739066837 0.573083505 0.395161351 1.5235347572 3.0808290405 5.5915159046 1.5448236417 4.3738466232 10.0111974294 4.6951960886 1.8660993306 1.8381042578 5.8476746079 1.4608592154 3.3238041673 0.3498551814 3.9670221138 8.5573799127 2.7991974248 3.4205620909 7.0625667084 3.4517458169 0.9714255801 8.5682585286 0.3710590747 3.4860687619 7.0825586891 5.8688771107 0.9799092711 1.8489840166 3.4195298567 1.5263651966 3.3437956507 2.7669828377 3.9755053994