0.000166350288538569 -7.61046142309373e-05 0.000133697295270565 0.029571270612017 -0.00246954330975727 0.00504553023536457 0.0727231011013248 -0.00651722892407364 -0.0467878827003008 -0.0295152205920766 0.00250219630302527 -0.00483649965641271 -0.0727182160078438 0.00650231653344731 0.0466138191062659 -0.0154993731746067 0.00408830902326396 -0.0111693805791229 -0.0418480247502366 -1.82548230080964e-05 -0.0493096193772502 0.0153592481247558 -0.0041399881700897 0.00924079709484499 0.0418840201758864 3.5738315466555e-05 0.0501454845828745 0.010255353877802 0.00163187833285054 0.0156960624647644 -0.0148522268434605 0.000693683274307665 0.0242891990080968 -0.010136826083341 -0.00158277028785692 -0.0144544773900306 0.0149476147214324 -0.000693169053941239 -0.024851756088966 -0.0219759786897328 0.00149123906263323 -0.0116167522979129 -0.0160580736027278 -0.000813239509501536 0.0214864409008959 0.0219551527648925 -0.00149175328299966 0.0115743291176828 0.0162557913336183 0.000797298678142353 -0.0213455445204954 -0.00271791174674067 0.0137926757784413 0.00341468034324688 -0.0117324518803585 0.0217690049922466 0.0134759160327234 0.00402068904507904 0.0110140860284625 -0.00260401193557747 0.0139744526779726 0.0205042800010237 -0.0201895771367714 0.00252456488896477 -0.0139965641537289 -0.00328586814145736 0.0116542903846619 -0.0219201857799756 -0.0135893016235201 -0.00419063887618259 -0.010724579962165 0.00282975467643816 -0.0140472148598218 -0.0203793244519824 0.0200952176995324