1.6223796319 0.3454173054 -0.3519719994 3.178939362 3.8920066635 4.9632391331 2.1612629204 1.5691088528 2.1325570538 7.4812346828 1.6082655578 0.3028894316 8.1125734447 4.7817978195 2.894710951 1.0961452095 4.5968958218 2.3622439016 4.3415056231 1.6859711892 4.0711906014 9.2786456225 1.5867581649 3.0488490187 6.2466767678 4.5949308359 0.5747901331 1.6511727502 4.4984246276 3.8136059796 3.50042096 1.8655152571 0.476749204 8.9722247112 1.5428256926 1.5390830921 6.5989782757 4.6728878405 4.0198588761 4.7024605637 4.7862993927 0.736669791 0.4067629331 1.674877337 3.2742848116 5.7913792966 1.2796069546 4.2950246558 9.9707390497 4.507159262 2.3023427614 1.5708576033 5.9173941905 1.6872990798 3.5389074798 0.6694640276 3.2091683149 8.4987496584 2.7418432294 3.7873686847 6.7428661842 3.2434890931 1.1910564787 8.6668953644 0.3270961542 3.7923224214 7.0515985347 5.6979648978 1.3634635635 1.7597631631 3.441817596 1.5016574393 4.1412761663 3.0969502365 3.4243816413