-0.371164003375563 0.117127058182878 -0.0858881709225441 -0.0346540818239474 0.012243329814402 -0.0024476889441842 0.126419277314366 0.000209030578951865 -0.0725186985056708 0.0451074105428231 0.0147303566166178 -0.0258729977366865 0.0430533572891374 -0.00212681543553484 -0.00974473305394173 0.0775711707159821 0.0383587824538581 -0.0943746067398432 -0.139983125029748 -0.115122112974186 0.0735682222735447 0.156932085417307 -0.000187176213378792 0.00415747166254816 0.031897860659908 0.0101213994723482 0.00511829241721374 0.0209791625094174 -0.0187399899238187 0.0336058436069895 -0.0163390950329792 0.0430723834426952 0.0264306697240747 -0.0255408113799758 0.00231296320818078 -0.0608929473513455 0.0337187149774198 0.00277319043613138 -0.00600917920204549 0.0325956576971471 -0.012341288794206 0.0112285159212618 -0.0825485667527953 0.0184633393666819 -0.0480749762774632 0.0252075965825323 -0.0181077559832988 0.113146221216197 -0.0501747951437607 0.0134656316253949 -0.0191714208112494 0.0240315746045177 -0.0838899105786156 0.00608219849407788 0.0415965709910547 -0.0607391954617843 0.142631359916838 -0.0197370632143172 0.00345633219292733 -0.0115851277453777 0.0535627360279535 0.00804806295492161 0.00413278908495975 0.00578035113898625 0.000433230658713275 -0.0150476305827021 0.0259922968616972 0.00603617577128282 -0.00667869411913117 0.0206302639907979 0.0398906449254389 -0.0229128881973596 -0.0249353168985101 -0.0194879234467842 0.0611184329820229