-8.70375313245914 0.699337372901905 -0.687348732223587 0.699337372901905 3.12703711026137 2.77736842381042 -0.687348732223587 2.77736842381042 4.52571185606518