5.2508508938 6.5750687780 2.4491156793 2.8018687776 5.0128694061 4.9859316427 2.1321359994 1.7596206845 2.4138675420 7.7479710431 1.6881125985 -0.0378980774 8.4334691439 4.9193690042 2.5626537768 1.1101464549 4.9434175484 2.1855299050 3.9226858931 1.9196163243 4.7024484578 9.4619822087 1.6890293159 2.7552134140 6.6580041585 4.7845573504 0.2518785690 1.4280547551 5.0534830076 3.6719171892 3.7879797611 1.5821738520 1.2715900360 9.1807016806 1.6786265082 1.2554396637 6.8184311876 5.0625442519 3.6902465983 5.0540808432 4.9060271046 0.4142971123 0.2581167744 1.7260020333 2.9493136866 5.5403294136 1.7944686231 4.5346502035 10.2714675253 4.9252207770 1.9918737853 1.7896177486 6.1553969535 1.3816305179 3.2765580236 0.7019625144 3.8670360106 8.7154497365 2.9638189084 3.5000891905 7.1934722081 3.4869095193 0.9345493460 8.7324233004 0.5027924889 3.5361295410 7.3139665083 5.9935062555 1.0813227556 1.8519777555 3.6574977377 1.4656990867 3.3109388368 3.1988028612 4.0450124877
5.2442927120 6.5788707591 2.4487554764 2.7966788304 5.0295755846 4.9824754203 2.1518690749 1.7640878958 2.4166576374 7.7550681900 1.6646948720 -0.0334801227 8.4172708128 4.9210823012 2.5484114359 1.1083160023 4.9251304429 2.1687182181 3.9477368528 1.8989324082 4.6774207856 9.4591828625 1.7209769634 2.7837344477 6.6346016143 4.7967388028 0.2667354425 1.4049299469 5.0395275075 3.6878271733 3.8292336714 1.5669400370 1.2465688157 9.1911558791 1.6923208897 1.2553595512 6.7691671349 5.0621568693 3.6975275169 5.0900737120 4.8938264680 0.4038673970 0.2352002711 1.7004735571 2.9774492982 5.4958152232 1.8321509172 4.5361131786 10.3132469955 4.9315771850 1.9714279052 1.7814059095 6.1210153436 1.4120504761 3.2766843498 0.7168099143 3.9100581892 8.7330654030 2.9309343354 3.4526965191 7.2163145533 3.5290109186 0.9531521253 8.7603615659 0.5093237273 3.5268938516 7.2904142890 5.9734736132 1.0691476506 1.8003172394 3.7122641183 1.4957109764 3.3323804207 3.1638327447 4.0291021839
5.3327106242 6.5752776984 2.4896911508 2.8892855912 4.8375145056 4.9768812104 2.1064366760 1.5037293645 2.2213033343 7.6580288616 1.8786599398 -0.0560097215 8.4923883914 5.1708389914 2.6898723034 1.1083311224 4.8957156978 2.2575430256 4.0372081929 1.9121315254 4.6200345757 9.4469452601 1.7613128300 2.6899356951 6.5112533854 4.7576553635 0.3769923310 1.3694870708 4.9213823735 3.7782272633 3.9261170806 1.5916653521 1.1894793877 9.1364440956 1.6706400331 1.1659648541 6.7024042180 5.1101691365 3.8394860203 4.9633807635 5.1108874180 0.6167783209 0.2445293877 1.9076612311 2.9106336508 5.5686886404 1.5170146521 4.3562843715 10.3029413725 4.8097694075 1.9965319942 1.7037534396 6.2252037794 1.4876001244 3.1520879293 0.9038312444 3.7822334318 8.5953705593 2.8502292403 3.3639106440 6.7807773177 3.3246544274 0.9631250749 8.9017432007 0.4399453983 3.4283798012 7.3632580030 5.8057585011 1.2033335645 1.9626302910 3.8190143192 1.5745602727 3.7202066787 3.3624927954 4.1031546653
5.3293403520 6.5793912997 2.4872307931 2.8912401186 4.8317482965 4.9868178458 2.1138406772 1.5007474733 2.2194058704 7.6568354194 1.8827155488 -0.0618541044 8.4826384181 5.1734504700 2.6877314581 1.0931893959 4.8878020054 2.2658398595 4.0437781753 1.9171117784 4.6091519062 9.4511668965 1.7685108477 2.6808573282 6.5118063712 4.7505924925 0.3913974954 1.3754718482 4.9068749930 3.7905890225 3.9189748408 1.5915985706 1.1865372094 9.1106884377 1.6749710832 1.1572747654 6.7094011404 5.1151635938 3.8405462748 4.9460853036 5.1335745980 0.6012083735 0.2530736746 1.9153941714 2.8955335364 5.5983149617 1.5022837052 4.3681800861 10.3097083918 4.8071307270 2.0151439769 1.6813976767 6.2210104156 1.4857545837 3.1507428117 0.8976827516 3.7504864768 8.5998480357 2.8854814298 3.3860114182 6.7606018639 3.3188208809 0.9617421285 8.9258520940 0.4541916336 3.4258980590 7.3608361138 5.8035694291 1.2405662031 1.9662537818 3.7791714902 1.5542647011 3.7442947959 3.3701699062 4.0979873456
5.2898970842 6.5861650854 2.4708165895 2.8702650995 4.7220843668 5.0716036469 2.1042630833 1.5363136945 2.1514181982 7.6759911366 1.9868453349 -0.1177289832 8.4730819297 5.1348347502 2.8225604843 1.0850022467 4.8353612493 2.2677184031 4.0997985076 1.9546493127 4.5422865135 9.4778561562 1.8153944235 2.6852268363 6.4436339411 4.7465577196 0.3955172668 1.5584606485 4.8597445873 3.7317566749 3.8094441427 1.5104860485 1.0410612287 8.9795721623 1.7988508516 1.2301407691 6.7741049153 5.1596811311 3.9049676521 4.9398917512 5.1503588375 0.5360852087 0.2215007260 1.9668334032 2.7062540021 5.6122359376 1.5470283014 4.3975799044 10.3261289396 4.6766370150 2.1251778604 1.7051274826 6.0541060809 1.5545532866 3.2849799971 0.9701864330 3.6141522712 8.6782864884 3.0636232754 3.4424787788 6.6849283401 3.3119916586 0.9033379353 8.9080660944 0.5994490632 3.4499813472 7.2584854216 5.6821709863 1.3634478545 1.9060880742 3.6105012367 1.5100010733 3.8817646588 3.3815670725 4.0454917115
5.3154357133 6.5389401737 2.4761826946 2.8211909372 4.9321320871 4.9548956359 2.0646105231 1.6977535153 2.3646331282 7.7356611052 1.7942172585 -0.0080587438 8.4991966588 4.9674691294 2.6376322796 1.1400604477 4.9903671234 2.1780135178 3.9151054652 1.9301000571 4.7068979909 9.4253671339 1.6871034837 2.7449372339 6.6280332937 4.7449747748 0.2589372134 1.4523213164 5.0938794990 3.6764612740 3.8323502955 1.5973253453 1.2873700247 9.1202858514 1.6025400779 1.2345243096 6.7016036895 5.0842022739 3.6805095918 5.0384098921 4.9890905581 0.4697362759 0.2303040603 1.7881157292 2.9612466740 5.5169833699 1.7134015229 4.4955161082 10.3274820409 4.8426590472 1.9847800262 1.8294894746 6.1907325649 1.3612635968 3.1563193946 0.8027278528 3.8301663976 8.6783065776 2.9807365297 3.4175173041 7.1790269606 3.4191158693 0.9008425751 8.7485972282 0.4525924169 3.4469894396 7.4247901697 5.8503791278 1.1079631793 1.9234945580 3.6956838268 1.5289994892 3.3384678517 3.2666451559 4.0945027469
5.2501981128 6.5690527781 2.4580587880 2.7795729274 5.0562515280 4.9585540095 2.1746147055 1.7617413344 2.4122385846 7.7851057256 1.6302905165 0.0008114725 8.3970514256 4.9336960821 2.5262930323 1.0698904075 4.9634739785 2.1899262125 3.9642204144 1.9066761710 4.6921155613 9.4890699130 1.7081276531 2.7782012121 6.6015949152 4.7672598167 0.2625067193 1.3654910089 4.9911930419 3.7058232532 3.8843229827 1.5553354570 1.2741071083 9.1729253323 1.6919039271 1.2616450449 6.6684192496 5.0940767548 3.6787505587 5.0174256805 4.9105261607 0.4402974804 0.2781780926 1.7028364475 3.0371794114 5.5559277919 1.8416762530 4.4656203343 10.2733025486 4.9101893635 1.9446267602 1.8680521768 6.1256878893 1.4473875011 3.2488421723 0.6751684282 3.9050181898 8.6859958317 3.0051482847 3.4146044851 7.3021894841 3.5800178529 1.0134773700 8.7548581008 0.5077419973 3.4886073360 7.2847093025 6.0093631155 1.0603187662 1.8199297681 3.6384028275 1.5278194770 3.3252743723 3.1343392063 3.9521257653
5.2708252994 6.5621970191 2.4548522307 2.8134115061 4.9860837913 4.9868815782 2.0976334488 1.7436341599 2.4013925200 7.7440764346 1.7281304818 -0.0355307801 8.4628505898 4.9240715419 2.5893225833 1.0943101454 4.9755391437 2.1393745851 3.9346440359 1.9292812491 4.7219969664 9.4532991919 1.6713739097 2.7715514296 6.6376781079 4.7689022217 0.2534324765 1.4428446129 5.0601457257 3.6636065571 3.7763648265 1.5995525047 1.2794627001 9.1479812303 1.6484853187 1.2388739957 6.8204620424 5.0847375163 3.6983469874 5.1088472321 4.9405677827 0.4311077837 0.2500026339 1.7677956679 2.9301885867 5.4475650404 1.7374318526 4.5184678898 10.3384234676 4.8947575760 2.0220232624 1.7899039026 6.1186450416 1.3845921343 3.2943604910 0.7664508721 3.8472543504 8.7277748730 2.9329176508 3.4865848559 7.1812543726 3.4649389869 0.9212577690 8.7223985401 0.5322923526 3.4964685673 7.3280563990 5.9415787869 1.0577663135 1.8730372973 3.6937877094 1.5012801105 3.3004346502 3.2004343655 4.0610226350
5.3102322847 6.5900507048 2.4735655816 2.8787815839 4.7903275237 5.0430386138 2.1237121961 1.5168613983 2.1922510578 7.6597001276 1.9226592901 -0.0908802368 8.4547477316 5.1596463630 2.7228640777 1.0930089905 4.8355436695 2.2617881003 4.0945621209 1.9268417760 4.5873378363 9.4756871965 1.8223851645 2.6732662822 6.4704821366 4.7437942271 0.3987463896 1.4619373338 4.8815492787 3.7548463939 3.8636009727 1.5229267433 1.1046917031 9.0114798028 1.7305752268 1.2061356706 6.7333886633 5.1419797026 3.9068057947 5.0132069882 5.2219267376 0.5448740379 0.2603788572 1.9545475786 2.7715809715 5.5629560282 1.5043112257 4.4116033048 10.2808029045 4.7479486179 2.0902743782 1.6154150918 6.1204819441 1.5504244443 3.2650045143 0.9424548333 3.7095793092 8.6660703905 3.0111352854 3.4071788525 6.7182798442 3.3013428110 0.9449079033 8.9778833735 0.5295890772 3.4253378819 7.2615604043 5.7184114574 1.3337439721 1.9151971171 3.6636842611 1.5363367293 3.8627879775 3.3571970839 4.0068144279
5.2768703487 6.5404554129 2.4814575396 2.7622662811 5.0725866045 4.9297232867 2.1838659858 1.7609458816 2.4068090205 7.8105979614 1.6087063868 0.0362261900 8.3745377006 4.9460628050 2.5135448237 1.0772376158 4.9236319351 2.1684197852 3.9983827962 1.8975451681 4.6752771976 9.4877376791 1.7316013393 2.7979249406 6.5590406884 4.7984162571 0.2683167362 1.2924776859 4.9733874189 3.7262290779 3.9340303540 1.6061859076 1.2564214063 9.2295611537 1.6535808077 1.2490672751 6.6033372130 5.0994373197 3.6860179652 5.0372618642 4.8911232822 0.5412269278 0.2576950529 1.7470898878 3.0491845835 5.5120774630 1.8037314014 4.3958006163 10.3161190274 4.9204458615 1.9260588620 1.9016780714 6.0824848949 1.5068457349 3.2952696043 0.6992328448 3.9252582878 8.7168902001 2.9399369362 3.4010733835 7.3051271278 3.6204429778 0.9923762792 8.7162454486 0.5360866093 3.4653867957 7.2446113462 6.0182602558 1.0012215595 1.8183736265 3.6936313053 1.5826584230 3.3090848705 3.0966221984 3.9442284057
5.3221390282 6.5854504053 2.4812402211 2.8892185463 4.8200306385 5.0098093645 2.1219464511 1.5012119427 2.2123871320 7.6567525089 1.8935279679 -0.0725985095 8.4663217666 5.1733910288 2.6906775646 1.0715525454 4.8933732218 2.2675322029 4.0701066536 1.9285887908 4.5917695669 9.4774011547 1.7690682408 2.6638885748 6.4946843690 4.7408922168 0.4105956615 1.3964126208 4.8897905135 3.7911435356 3.9041579154 1.5766722211 1.1572096296 9.0649293547 1.6910348598 1.1689006721 6.7161846699 5.1231701194 3.8611623477 4.9795925394 5.1761754635 0.5710533804 0.2362758250 1.9287865857 2.8522327332 5.5845195041 1.4945994489 4.3929149191 10.3302431713 4.7938700035 2.0519263357 1.6254917102 6.1580798817 1.5175777374 3.1845191722 0.9084138727 3.7199187984 8.6067932657 2.9712756476 3.4250113834 6.7308570974 3.3234857645 0.9531111821 8.9718773012 0.5046050219 3.4140153896 7.3292865298 5.7762502426 1.2958368656 1.9686680388 3.6952793466 1.5194781087 3.8013665344 3.3433357079 4.0723652991
5.2631279268 6.5671182601 2.4522550799 2.8095039407 4.9955675613 4.9876003761 2.1086593250 1.7498003880 2.4064537108 7.7451836581 1.7142256913 -0.0373882895 8.4530930421 4.9216155678 2.5799610033 1.0950093710 4.9707670717 2.1576666837 3.9279465787 1.9297343231 4.7217322792 9.4559026483 1.6663699454 2.7635991866 6.6491438441 4.7722068279 0.2481386385 1.4416621773 5.0587807001 3.6692961460 3.7722458301 1.5954211928 1.2818531799 9.1567358598 1.6595818847 1.2374164795 6.8301664876 5.0758462376 3.6938858391 5.0798303040 4.9283563046 0.4263355555 0.2666895587 1.7560532112 2.9334408428 5.4915800509 1.7537298988 4.5236033992 10.3083948843 4.9062961425 2.0149153754 1.7902477284 6.1358244070 1.3811351011 3.2881288606 0.7330825514 3.8447357169 8.7169393331 2.9555557029 3.5047862981 7.1837827494 3.4660786020 0.9252272041 8.7229502236 0.5267348028 3.5119822135 7.3260257478 5.9714754847 1.0704009242 1.8765907784 3.6612180188 1.4787442163 3.2985240737 3.2075451881 4.0540064303
5.2977990461 6.5896870482 2.4709184413 2.8735461224 4.7483309840 5.0628284750 2.1166486806 1.5333206646 2.1689777977 7.6652942467 1.9620895330 -0.1080889061 8.4612762037 5.1424900192 2.7791670393 1.0668659545 4.7861646964 2.2618049224 4.0867497601 1.9592237544 4.5674821944 9.4704913109 1.8508222854 2.6979898826 6.4631214070 4.7269664554 0.3961304984 1.5407032506 4.8720350324 3.7473839952 3.8071172310 1.4915660095 1.0957653706 8.9789570775 1.7744223400 1.2165759991 6.7815201683 5.1611252899 3.8777149335 4.9193176480 5.2096023311 0.5384564504 0.2638348065 1.9723738249 2.7114947087 5.6534540645 1.5172771306 4.4065932285 10.3134225214 4.6965490631 2.1171611896 1.6823135737 6.1271597274 1.5406237165 3.2738393745 0.9393131738 3.6419497402 8.7012845756 3.0181100117 3.3986291317 6.7083101583 3.2983313260 0.9188328129 8.9337620321 0.5561367159 3.4469160861 7.2557390595 5.6977878662 1.3714587669 1.8843628494 3.6506827556 1.5424669397 3.8805371617 3.3899325522 4.0082261953
5.2563747413 6.5714996423 2.4503434237 2.8054332297 5.0043686101 4.9870253106 2.1204818568 1.7552493877 2.4106707901 7.7463015523 1.7008722256 -0.0381310077 8.4431269458 4.9200572177 2.5709953914 1.1024495113 4.9584206508 2.1761863601 3.9223236858 1.9267625454 4.7148313982 9.4594081661 1.6736483469 2.7556934030 6.6572580801 4.7774389283 0.2474212004 1.4368717874 5.0568920531 3.6707852164 3.7757291486 1.5894300718 1.2799459103 9.1685838552 1.6696915022 1.2452356616 6.8299309960 5.0679590188 3.6903883804 5.0580937459 4.9165252362 0.4206685416 0.2689025222 1.7415588753 2.9398253984 5.5278213150 1.7733041120 4.5294108910 10.2805506406 4.9167293925 2.0040484463 1.7914918164 6.1519442536 1.3780319061 3.2806974747 0.7097504256 3.8508949851 8.7123356054 2.9672079454 3.5096913482 7.1877241066 3.4725587178 0.9294128103 8.7250745394 0.5132405464 3.5271987337 7.3221856575 5.9900194351 1.0794534631 1.8699326979 3.6480061983 1.4658495450 3.3020862163 3.2082122472 4.0490454755
5.3369930107 6.5329117999 2.4883021757 2.8301530508 4.9059735316 4.9433128702 2.0586918998 1.6573050335 2.3262752723 7.7178680450 1.8257896584 0.0021871543 8.5099908367 5.0156227455 2.6629942512 1.1493724515 4.9938530959 2.1709525223 3.9531313269 1.9178154478 4.6804445592 9.4214150901 1.6904541152 2.7349086815 6.5880006059 4.7550884821 0.2795297979 1.4211023712 5.1291047206 3.7019706070 3.8846370581 1.5754976073 1.2568952825 9.1499137223 1.6006057109 1.2088052024 6.6262346404 5.0587085493 3.6915099625 5.0925238212 4.9918770504 0.5128930038 0.1764539385 1.7811839627 2.9835570472 5.4517501881 1.7284141026 4.4684146230 10.4190956359 4.8449174400 1.9468375512 1.7852655807 6.1756205947 1.4406461015 3.1079872739 0.8510425515 3.8786336206 8.6232845498 2.9510121075 3.3860532645 7.1243525809 3.4247716995 0.8801368204 8.8019060706 0.4569689494 3.4389091581 7.4345933719 5.7818908487 1.1285625911 1.9493297576 3.7160659812 1.5301431984 3.4261408072 3.2559842426 4.1014643993
5.3465583641 6.5370547129 2.4937192919 2.8418263127 4.8793352066 4.9388154712 2.0616666243 1.6084816404 2.2808598724 7.6943979152 1.8563072723 0.0020127322 8.5183195165 5.0690566636 2.6828600954 1.1695324287 4.9415873688 2.1944935502 3.9555156214 1.9203089262 4.6887584127 9.4217037886 1.7171597810 2.7155369007 6.5765788480 4.7499407007 0.2883319873 1.3967105190 5.1207189188 3.7105406965 3.9006664010 1.5401907366 1.2667288005 9.1839659605 1.6203493259 1.1923192004 6.6164077947 5.0594952637 3.7127332182 5.0478273016 5.0236118344 0.5949349161 0.1983249537 1.7980084934 2.9896586399 5.5032755870 1.6881626814 4.3881830229 10.3634290494 4.8401604037 1.9184648593 1.7973374787 6.2471409358 1.4845198038 3.0982768503 0.8741079548 3.8986504783 8.5784077838 2.8580346936 3.3505064666 7.0507784004 3.3766802825 0.8807562942 8.8062481982 0.4329216367 3.4624652959 7.4184338606 5.7788922057 1.1290351321 1.9706602801 3.7888636494 1.5579225792 3.5097074226 3.2953619845 4.0745082143
5.3258238185 6.5827819561 2.4843279641 2.8911795063 4.8261684904 4.9978884995 2.1190008602 1.4998732935 2.2166503020 7.6564346729 1.8875395770 -0.0671650053 8.4737963547 5.1743775809 2.6875686832 1.0773307703 4.8896699751 2.2691902787 4.0552238667 1.9239941768 4.5991727168 9.4636036649 1.7681338819 2.6709706407 6.5059740767 4.7436743570 0.4038896720 1.3843584699 4.8965660648 3.7958018890 3.9114486212 1.5866757601 1.1764546192 9.0862001343 1.6816893959 1.1580645756 6.7141027289 5.1193014332 3.8461547983 4.9526133433 5.1560132371 0.5855259809 0.2483268428 1.9221795174 2.8759261402 5.6029416298 1.4948920678 4.3808387367 10.3238615413 4.8022097665 2.0344303627 1.6537824926 6.1965434643 1.4966663509 3.1611244110 0.8988076193 3.7289009197 8.6008483367 2.9305369531 3.4095067766 6.7437631303 3.3203756242 0.9574622824 8.9505889036 0.4782164560 3.4202509399 7.3498124514 5.7937669167 1.2728242639 1.9709201736 3.7333529207 1.5330845772 3.7721245880 3.3607260470 4.0878730878
5.3415168759 6.5330653808 2.4908703469 2.8336647768 4.8969682233 4.9417923345 2.0588487641 1.6426236908 2.3111605317 7.7100628671 1.8365282557 0.0030443398 8.5126183337 5.0324497033 2.6703432855 1.1632232640 4.9716386999 2.1733839806 3.9576787537 1.9148051472 4.6768357899 9.4230468559 1.7076775609 2.7286511310 6.5788594151 4.7577701223 0.2857695816 1.4085110954 5.1335359284 3.7018859026 3.8958983363 1.5630455940 1.2512885399 9.1656004861 1.6051453739 1.2083947992 6.6136907886 5.0556616618 3.7008129097 5.1015034834 4.9976956207 0.5359469262 0.1632540918 1.7818060747 2.9866945133 5.4449837859 1.7231971409 4.4472596655 10.4137053538 4.8454575310 1.9343808605 1.7828046077 6.1912068270 1.4600662720 3.1085699065 0.8717377662 3.8977663153 8.6142348028 2.9103127970 3.3682012165 7.0997234068 3.4187986921 0.8766754847 8.8071499727 0.4485701117 3.4488600226 7.4258548995 5.7670969447 1.1256897019 1.9478976900 3.7522391082 1.5434757868 3.4588756380 3.2546975763 4.0960780096
5.3060987572 6.5905617778 2.4721029950 2.8762592038 4.7765128111 5.0511128206 2.1228756084 1.5237236623 2.1846224050 7.6608361897 1.9357380607 -0.0969081547 8.4549142513 5.1532600630 2.7397201013 1.0894788235 4.8009228059 2.2603252006 4.0896539568 1.9357514013 4.5848187683 9.4666559792 1.8460506038 2.6861386961 6.4713162714 4.7367780306 0.3956324162 1.4914886472 4.8795011991 3.7515263974 3.8409695213 1.5052832087 1.1050192792 8.9957966023 1.7453332334 1.2084408227 6.7508777120 5.1505049943 3.8977490875 4.9769680163 5.2296524187 0.5422422631 0.2778373203 1.9628121480 2.7465591130 5.6015787782 1.5044233049 4.4108898404 10.2779293928 4.7298762790 2.1006179316 1.6385308764 6.1377576728 1.5436143310 3.2724776000 0.9405744419 3.6897717441 8.6891103568 3.0033499069 3.3928922085 6.7178450786 3.2930562971 0.9383114469 8.9638007114 0.5297509139 3.4357194965 7.2546472498 5.7095285080 1.3493106649 1.8938280804 3.6692177505 1.5486977873 3.8715865852 3.3771560712 3.9953420399
5.2880384348 6.5518713257 2.4620421503 2.8180618402 4.9644066254 4.9785783828 2.0801891910 1.7293370206 2.3892695766 7.7417711679 1.7566154738 -0.0273759487 8.4802497385 4.9335561432 2.6086787281 1.1215514191 4.9626822967 2.1339866910 3.9259769426 1.9282734675 4.7145914075 9.4485714745 1.7024019707 2.7696518429 6.6282598829 4.7607511345 0.2633774848 1.4448715866 5.0660803533 3.6499099328 3.7954350657 1.6020998707 1.2776701028 9.1369620834 1.6260207568 1.2591620456 6.7818539217 5.0973223726 3.6988077356 5.1173456585 4.9653406665 0.4421654189 0.2110077361 1.7820016236 2.9336586411 5.4321148573 1.7150339887 4.5085491319 10.3398866338 4.8695313136 2.0191643608 1.8094409505 6.1302841725 1.3700206131 3.2735625461 0.8160620518 3.8520061518 8.7430344096 2.9020580103 3.4369313670 7.1817067161 3.4571851352 0.9138529634 8.7189789003 0.5004023160 3.4765953377 7.3482119162 5.8849727199 1.0497612726 1.8622934661 3.7596195286 1.5464098791 3.3116707154 3.2009302350 4.0777708899
5.297464744221 6.519289908689 2.500198473085 2.743239712297 5.079565259902 4.901445362641 2.189213629744 1.763619493591 2.409039446738 7.821350707157 1.595191605062 0.056005167388 8.357528606125 4.954881104434 2.506319605759 1.097944268918 4.905401629629 2.229370068343 3.989778309244 1.908216209094 4.653809118587 9.484282707047 1.707232872557 2.771026877828 6.557175288476 4.828663288596 0.260699927703 1.268807956956 4.991878642708 3.745807892843 3.949802172590 1.670775330222 1.245641693679 9.313419019009 1.620755859479 1.254589053328 6.597151955579 5.066103627571 3.668857487805 4.986050820152 4.843170577224 0.639562743579 0.264189837136 1.783023195922 3.028656191208 5.596176155813 1.769463924963 4.360834202592 10.282753272632 4.953856031820 1.885847922679 1.914669091050 6.104329899082 1.523158417323 3.290162443476 0.618578083467 3.913830234034 8.693606658674 3.005535806088 3.468784389456 7.266580772870 3.605652181255 0.935358994307 8.667557606987 0.508298447076 3.477243461251 7.256780666292 6.118301144275 1.000673879853 1.888620052065 3.607098966047 1.531617489118 3.280373090074 3.131227046487 3.979145119580
5.2441102645 6.5771350285 2.4514983199 2.7902193739 5.0446668908 4.9735170236 2.1656246957 1.7635331383 2.4153725358 7.7681970346 1.6451423513 -0.0203111866 8.4062618517 4.9267624125 2.5366656536 1.0802155047 4.9438387280 2.1616383848 3.9746802738 1.8936896737 4.6767921965 9.4629793329 1.7203506620 2.8010282944 6.6064272662 4.7881710702 0.2694854896 1.3851695757 5.0158660317 3.7060802075 3.8643527541 1.5557860726 1.2476648578 9.1805169503 1.6978255298 1.2458860867 6.7129538609 5.0752165074 3.6946413662 5.0898678523 4.8980563705 0.4091201595 0.2528714538 1.6924116384 3.0112643496 5.4780796364 1.8493122030 4.5133877031 10.3398628950 4.9228411421 1.9585192942 1.8045302540 6.0988105855 1.4406463618 3.2642341686 0.7073845075 3.9208904496 8.7208085072 2.9476781089 3.4203305153 7.2591814992 3.5603546837 0.9853537253 8.7756443192 0.5235794430 3.5011996177 7.2820672125 5.9770437197 1.0631373885 1.7900605063 3.7014276572 1.5175716654 3.3363950509 3.1439505325 3.9922241000
5.3417722058 6.5602078861 2.4936248155 2.8753431886 4.8547872624 4.9525945983 2.0799707476 1.5246255872 2.2305123600 7.6655434971 1.8711427606 -0.0314497275 8.5189889451 5.1517315392 2.6957969599 1.0955954617 4.9840002291 2.2250666662 4.0272849103 1.9277550231 4.6570391532 9.4723258386 1.6843808293 2.7008282560 6.5042703440 4.7494431672 0.3443903131 1.3743158700 4.9919960025 3.7503582040 3.9237559929 1.5672265248 1.2251046213 9.1878047426 1.6607928328 1.1851419504 6.6806484077 5.0908691784 3.7895281788 5.0391858606 5.0632780043 0.6501311331 0.2041363551 1.8756548489 2.9427022574 5.4760259174 1.5811510595 4.3306040461 10.3558015603 4.8165349053 1.9571169434 1.7411582225 6.1823631235 1.5367568273 3.1453045713 0.9014373732 3.8559791436 8.5270267828 2.8580609447 3.3583527054 6.8677869079 3.3619807326 0.9381134118 8.8480178658 0.4514912986 3.4247284657 7.3715182407 5.8070822434 1.1312586263 2.0158649857 3.8018838152 1.5660898679 3.6526626980 3.3035500443 4.0915489557
5.2939151640 6.5230803945 2.4968194519 2.7485005678 5.0787903335 4.9082176363 2.1880912266 1.7626766458 2.4080330816 7.8193188881 1.5976475343 0.0517196823 8.3607860073 4.9532031380 2.5079826072 1.0894323492 4.9056304305 2.1986377261 4.0045380042 1.8997992795 4.6557492982 9.4776707388 1.7176864399 2.7919931865 6.5485205028 4.8269818301 0.2652970521 1.2682858210 4.9870944374 3.7501029094 3.9504420002 1.6578854069 1.2419512058 9.2954154174 1.6261760917 1.2385307563 6.5948228636 5.0738990814 3.6769273941 5.0194982360 4.8529830858 0.6173779694 0.2610690063 1.7763526743 3.0349151146 5.5456007812 1.7776182180 4.3701831638 10.3180553711 4.9465451500 1.8987993929 1.9035872463 6.0829221455 1.5281019199 3.2992775395 0.6499078512 3.9224138790 8.7096791804 2.9684213155 3.4461124965 7.2737830204 3.6129637527 0.9469995263 8.6837645816 0.5283265026 3.4693413555 7.2475970648 6.0849619607 0.9944016035 1.8624203877 3.6491047373 1.5527206030 3.2872407736 3.1195895607 3.9708639034
5.2791942731 6.5570184633 2.4581269003 2.8163719421 4.9756424627 4.9840057891 2.0880759661 1.7369048064 2.3956391401 7.7428927530 1.7424052150 -0.0322508545 8.4719801878 4.9278031207 2.5989255581 1.1046703994 4.9707446959 2.1300875116 3.9349766409 1.9278976928 4.7181623743 9.4516441976 1.6868259567 2.7740620002 6.6292634753 4.7658312919 0.2599066297 1.4430609243 5.0621979619 3.6554407134 3.7850810863 1.6016588597 1.2769251074 9.1421398412 1.6370026830 1.2486838104 6.8034978767 5.0926204406 3.7006644244 5.1263117141 4.9529182059 0.4359249799 0.2268011852 1.7762674027 2.9301778258 5.4219468542 1.7246462288 4.5137105021 10.3502775471 4.8822995846 2.0235151121 1.7960581717 6.1149027774 1.3812695144 3.2918582618 0.7982148914 3.8522590057 8.7394654326 2.9100228590 3.4607484390 7.1805081097 3.4636521074 0.9174218817 8.7205177811 0.5224393248 3.4849592378 7.3336324957 5.9094764860 1.0484892085 1.8648646119 3.7334095200 1.5270599467 3.3057495301 3.1953059909 4.0695108009
5.2937525770 6.5882359111 2.4708726246 2.8721442167 4.7350712100 5.0674196604 2.1109249393 1.5353768514 2.1605723313 7.6699275170 1.9745156206 -0.1131620652 8.4668387070 5.1384775926 2.8006738498 1.0672108214 4.8076214358 2.2655578799 4.0915790254 1.9619786642 4.5549652757 9.4784580594 1.8329910163 2.6930022216 6.4536036656 4.7332179960 0.3959984658 1.5536704689 4.8662272992 3.7398672362 3.8043137648 1.4980949174 1.0724408476 8.9782114528 1.7876770483 1.2245263939 6.7830538562 5.1612228568 3.8859067158 4.9207896760 5.1824615843 0.5367875234 0.2387230962 1.9718512873 2.7048674424 5.6430032767 1.5311554869 4.4030329768 10.3273598987 4.6840513850 2.1222993301 1.6959074713 6.0940290384 1.5472372126 3.2782219445 0.9509909753 3.6256905732 8.6906465831 3.0427284757 3.4195676108 6.6976776967 3.3067776753 0.9099506437 8.9210363894 0.5794593847 3.4478490566 7.2568378285 5.6899036916 1.3704368960 1.8945788189 3.6289303257 1.5259715758 3.8825275028 3.3842124100 4.0267136870
5.2694215268 6.5480082110 2.4749956994 2.7657776811 5.0691136341 4.9365096089 2.1821517895 1.7608033732 2.4075893881 7.8061130751 1.6135248027 0.0295712700 8.3803844584 4.9431564639 2.5157106031 1.0760498961 4.9397187807 2.1829083728 3.9792846352 1.9050668911 4.6858984139 9.4993992543 1.7237740731 2.7811220298 6.5751365345 4.7819235644 0.2647946475 1.3113875211 4.9726703465 3.7129956712 3.9211072488 1.5879905233 1.2691100050 9.2080356633 1.6650114840 1.2650065847 6.6152158025 5.1043791431 3.6811898194 5.0115619910 4.9029408514 0.5149576443 0.2637212913 1.7352100242 3.0502635684 5.5486244874 1.8127034164 4.4054377965 10.2777545991 4.9130222009 1.9298838040 1.9083390307 6.1057252817 1.4869199518 3.2791696708 0.6897922526 3.9152878888 8.6993787026 2.9717445073 3.4028537848 7.3143411368 3.6135523681 1.0065999185 8.7211557368 0.5195150641 3.4721198220 7.2567196350 6.0179033054 1.0174415739 1.8249581024 3.6644935507 1.5704790145 3.3135818377 3.1014957034 3.9377887776
5.2965703028 6.5202515293 2.4993395017 2.7446727349 5.0793966607 4.9032584043 2.1889172379 1.7633469376 2.4087571460 7.8208305830 1.5958154893 0.0548696847 8.3583684445 4.9544541128 2.5067648912 1.0955260004 4.9054610494 2.2204039172 3.9939536423 1.9057664690 4.6543013803 9.4823632330 1.7100060487 2.7773570039 6.5546185680 4.8284086089 0.2619829072 1.2684930075 4.9906348400 3.7477726703 3.9501512574 1.6674523884 1.2443613319 9.3086408611 1.6220786767 1.2491876770 6.5964019169 5.0681461993 3.6711623768 4.9955426244 4.8457046621 0.6337411902 0.2633524560 1.7813260839 3.0303764147 5.5820736389 1.7716203871 4.3632828082 10.2929427378 4.9519561328 1.8894131003 1.9114014817 6.0980430077 1.5248171190 3.2928262415 0.6272905118 3.9162882937 8.6980606255 2.9952457729 3.4626948812 7.2683905984 3.6077178782 0.9383656443 8.6720500181 0.5141113557 3.4749521529 7.2541583038 6.1091486826 0.9988298355 1.8815137297 3.6187157181 1.5373924844 3.2821680712 3.1280791439 3.9769380102
5.2434140813 6.5787684198 2.4497024026 2.7939994356 5.0374841650 4.9789469764 2.1594388528 1.7642408035 2.4163802691 7.7608938771 1.6543483848 -0.0281822199 8.4112598247 4.9235420114 2.5423361598 1.0953937166 4.9304934873 2.1593657728 3.9658659349 1.8929182242 4.6733451634 9.4577951780 1.7257117540 2.7981261774 6.6175348198 4.7957644353 0.2703787417 1.3941494244 5.0285483149 3.6983882444 3.8492031930 1.5604790300 1.2419689310 9.1874909036 1.6963448992 1.2487741403 6.7399737430 5.0673037210 3.6986148107 5.1026729800 4.8938896086 0.4034451663 0.2393395934 1.6938756506 2.9945493188 5.4714621292 1.8440747827 4.5286443948 10.3383790856 4.9286233404 1.9645643344 1.7861116773 6.1022718964 1.4296405737 3.2730847866 0.7182953850 3.9213590524 8.7333161205 2.9279114559 3.4313531510 7.2357915457 3.5472015419 0.9681665252 8.7722009539 0.5193930783 3.5136499380 7.2832028712 5.9692278443 1.0641137311 1.7865318480 3.7209233733 1.5104975518 3.3373420247 3.1507920933 4.0129408749
5.3019373579 6.5904613294 2.4712550996 2.8746917133 4.7622259735 5.0575653369 2.1206728593 1.5294539576 2.1769055745 7.6624348878 1.9491285598 -0.1026582181 8.4571358704 5.1473736279 2.7586626968 1.0785437539 4.7823007565 2.2595147517 4.0861918427 1.9485881375 4.5780602570 9.4642777551 1.8573034357 2.6961025157 6.4693935592 4.7292773967 0.3954753755 1.5191741512 4.8764853266 3.7507408945 3.8201804494 1.4939584950 1.1054100429 8.9845057439 1.7600705240 1.2108485576 6.7692855379 5.1575014694 3.8837943173 4.9402195937 5.2261183418 0.5403393078 0.2798257423 1.9690343799 2.7258095514 5.6375995930 1.5081226056 4.4090667973 10.2915941922 4.7123219799 2.1097188527 1.6624757545 6.1423909568 1.5392917369 3.2731125554 0.9370448584 3.6646680871 8.7024286077 3.0026569658 3.3881685622 6.7150731519 3.2921737487 0.9289932972 8.9481972019 0.5380995786 3.4433527853 7.2542370904 5.7038929845 1.3636995481 1.8823908642 3.6664878479 1.5518604926 3.8769753826 3.3891722107 3.9961929403