-28926.46160086
-28926.6313233443
-28926.7049605767
-28926.7220621063
-28926.7463066206
-28926.6220106611
-28926.5862274376
-28926.6415989018
-28926.7738491529
-28926.6268289784
-28926.7827011476
-28926.5938500226
-28926.5594281839
-28926.4370289929
-28926.7229894698
-28926.7554158988
-28926.7710904642
-28926.6791265102
-28926.7238194166
-28926.5340014716
-28926.1376711342
-28926.5477574994
-28926.6792522268
-28926.6266439411
-28926.532128377
-28926.72135774
-28926.7102511473
-28926.3421833549
-28926.4345625544
-28926.5342410677
-28926.7140004659
-28926.4612831672
-28926.5600137725
-28926.630779389
-28926.7414409555
-28926.7435563674
-28926.3655139753
-28926.7036287162
-28926.7351437003
-28926.6877014932
-28926.5171795388
-28926.6909625038
-28926.7785285561
-28926.3617939089
-28926.695089108
-28926.644086021
-28926.6488801202
-28926.7366852244
-28926.7861889649
-28926.706725234