0.148017304034776 -0.106959635987735 0.070193651118879 0.183680543327833 -0.0209591079151268 -0.0702702699534763 -0.256957202653614 -0.343221525774199 -0.293145203830608 0.284730244644242 0.162116455151607 0.285311570768486 0.218716947994217 0.246252420175557 0.200594279620292 -0.648181456743793 0.309603855098781 -1.85661525867449 1.13401917293402 -0.433444831495891 -0.23090191379703 -0.364199145622517 0.330242346615442 1.5446498465429 -1.20481266211033 0.0386632009107818 0.432287835671434 -0.173861762541126 -0.156960624647644 0.328701742397632 0.496070187261723 -0.0352405501518554 -0.328609954062225 -0.269838165722384 -0.0916140147026893 -0.444594414590906 -0.709745461673324 0.238587194283439 0.240741520508577 1.26766530327813 0.181715193087355 0.0186425451643811 -0.287174334045861 0.0841277374980872 0.222932526558172 -1.88025576869035 -0.0527099015502372 -0.170465337020887 1.60680340512254 -0.228994927568142 0.0600270002542853 -0.204771291656764 -1.11787291053845 0.615206047306041 0.273614857203594 0.941966093600051 0.435765250899385 0.404961908289413 -0.863898700230469 -0.828718313861485 0.227145791130477 0.431057563444761 0.164809170100392 0.391503732859331 0.662129941293262 -0.662064892416909 -0.254603873146669 -0.847996178288585 -0.47155241730075 -0.568243586791339 1.21020040599955 0.853926167554201 0.185715827538144 -0.536789498307656 -0.116851436066474
0.163869175270567 -0.141084070834264 0.0782756526179847 -0.0769538491660886 -0.0943599514594001 -0.358600314272879 -0.382873572449616 -0.329126745530482 -0.261171495666652 0.383165135397379 0.239179576145561 0.560531566845876 0.349674991372835 0.260645448231799 0.157427279630175 -1.11384039442494 1.49567292774273 0.448133022042462 0.234264143662902 0.598514968432244 0.944477031649306 0.182498607815604 -1.29267441079922 -0.459228611999002 -0.233436248872957 -0.789454246452536 -0.494424682089162 0.076051135312829 -0.187621013995749 0.029923254452835 -0.143990701455483 0.0722127373876477 0.526251837448687 -0.411637517086345 -0.143716107779812 -0.182533831910704 -0.102483604808186 0.247051775735165 -0.208134549963369 -0.674139557951123 0.306814723831291 0.2762643776416 0.865592799227657 0.323162817720682 0.113303058427957 0.434421078861549 -0.378198023767894 -0.432082404635047 -0.216253061108491 -0.28701338307117 0.159761582983562 0.577685186939273 0.234752395900822 -0.038846006251046 -0.283659894951528 -0.556541988132966 -0.668129093198162 -0.604736777755806 1.01174116934066 0.33659425369171 0.395968194080635 -0.246285587389191 0.274499059123662 -0.22845936705651 0.172546643953993 -0.313290300905684 0.320831085469127 0.51758311051149 0.166857824040231 0.843140652478614 -1.38408607978772 -0.235477446617482 -0.354697638801894 0.35028279984595 -0.420380805976674
-0.0143542044185777 -0.06152235307985 -0.0607075709092492 -0.398809261605135 0.088298064669796 0.254507971048331 -0.386608354970963 0.466083940814001 0.0225727314249693 0.165092762632476 0.159954415620972 0.282935615565418 0.0558764705666839 -0.399831017473222 0.135811512307123 -1.46727073713378 2.1526429247691 -0.297162036222939 0.640446811102208 0.685654494616484 -0.00885693159130854 1.55484735062948 -1.80827494468796 -0.534510473643659 -0.671614221731609 -0.5401751252002 0.266828176807513 0.250310390197202 0.330873295005046 -0.0902850121656632 -0.195482157847475 -0.319605955446119 0.0225801876202824 -0.161158205498773 0.0996507648095495 0.255318896566183 -0.0390581221521964 -0.0655942070513883 -0.342111324003086 1.12082222145008 0.132415343897067 -0.124517690399325 -0.715684706905535 -0.102360963250794 -0.263464661390726 -1.03842689236648 0.414301949914978 0.130355891329534 1.06054762408936 -0.0744030590384361 0.182312460042958 -0.469611235417495 -1.23751039255022 0.812142163239584 0.296577624776497 0.0959283235769971 0.138500370603161 -0.851946676253647 1.58352490624465 0.774511773934767 0.263814845460262 0.527739476968755 -0.349804574905175 0.202403563979559 0.827396767519772 -0.229024495239211 -0.259677171281821 -0.277611892111817 0.179760641474573 0.845580628117302 -1.64214782778841 -0.831773297058418 0.213381911692555 -1.03542641652839 -0.325919553105088
-0.0148905362607592 -0.0736016465973623 -0.0450472467599513 -0.498353839909017 0.0460983131889245 0.280448074542836 -0.554907024477917 0.521247187732453 -0.212213345909854 0.196037515843215 0.190033735955017 0.131932748083177 0.224530466346838 -0.416552178238455 0.489186319216388 -0.0983330751205848 1.34169812365274 -0.678473150089172 0.668774953978392 0.26090718639831 0.123925565647386 1.1268257442281 -1.03902004555915 -0.110873110086414 -0.875834783375932 0.0198525056865797 -0.262394311698012 0.205601500438358 0.297468511561329 -0.50651323157327 -0.0272055998162776 -0.344059190751105 -0.505912365075102 0.0897944459360935 0.169142248018075 0.671669500420999 -0.162628875746749 -0.0606931727389892 0.322253933223026 1.6879419796306 -0.017609733558416 -0.00796707324720964 -0.941702041441892 -0.0671389250321298 -0.319349873703639 -1.77127473244219 0.520004574216986 0.0540556162491721 0.523321809800795 -0.161704050417734 0.0477828991093337 -0.37264033004757 -1.43642368579266 0.903880362160765 0.830861070128379 0.51533185374728 0.719955049938514 -0.246364777325621 0.694585473940558 0.0988089860697114 0.236413327684376 0.523474790359807 -0.205251059258639 0.0444890605521967 0.692832239601231 -0.224273099053442 -0.609452692736292 -0.539427191677234 -0.352458723326479 0.0738916668840262 -0.423393108883193 -0.06267240692936 0.265105024359622 -1.2130545861434 -0.350500315060948
0.03275275201909 -0.0567694142329814 -0.0333741873319149 -0.00854454271870519 -0.120759510851306 -0.130719959348963 0.00472671360818091 -0.0372984600582892 -0.225210779891619 0.0678161532547118 0.136439375374528 0.195799174703377 0.0136870034931409 -0.0183432689111216 -0.0805253667210951 0.969529847901544 -1.26533357102657 -0.290772591059922 -0.0301708515592688 -0.758530319166637 0.021353514936175 -1.73547213942983 1.25605754983663 0.0858267215887563 0.607546220727771 0.0947404745305548 0.313369490842113 -0.415133187137304 0.0302294726810413 0.424442118430701 0.139966412867839 0.056562183425312 0.330776878686341 -0.0364942194052001 -0.21204493873985 -0.509501109012384 -0.406869151628484 0.0941488639989825 -0.0555268007175147 0.113571481459231 0.235494415889574 0.177323236937717 1.28804591328102 -0.363213385180079 0.548302892311917 -0.156916658806314 -0.217553781525363 -0.234111677324257 -0.277746617847821 0.572932762312771 -0.0610287015280817 0.242036841611602 1.02676308890504 -0.687311312637106 -0.191092258579303 0.0822613746781468 -0.107116730309678 0.199187372697753 -0.844249311588627 -0.299041768772407 0.0396564175485322 -0.435080309371306 0.128530409028725 -0.23440889669605 -0.811547467385813 0.367928528830016 0.260799457231544 0.285793138141643 0.016857686272519 -0.193986290801544 0.61875776737694 0.401483464620729 -0.292487258871767 0.650543270886785 -0.297753132534145
-0.0673836939265482 0.0779380669474265 -0.0249366024494262 0.222103346217311 0.229282633863157 0.46994856397787 0.260412506405809 -0.237061245346072 -0.422111928840245 -0.369038216380761 -0.195143286626001 -0.325640074335936 -0.241176808048756 0.389807834090861 -0.109770621620798 -0.166726183626426 -0.515887468853202 -1.34824903401081 0.943766636213089 -0.282712958146756 -0.469127868273055 0.38194231936602 0.447104838419794 0.433799129328358 -0.810328508007202 0.536571725982475 0.614929396748904 -0.411572982430359 0.0880494391226294 -0.046540285593867 0.205288340235205 -0.132219425937459 -0.494639111981961 0.479335142546596 0.178312082702353 0.0978949593683905 -0.00108269098150837 -0.105456569856674 0.302696847136957 1.53821849242002 -0.214730454603506 0.0984657439751225 -1.01165606587002 -0.13500212945037 -0.0631400903526238 -1.74221433976422 0.170333439496899 -0.089189208564811 1.3487072043573 0.29371675976789 0.0137577087935244 -0.733303182210181 -0.990076293972615 0.948052148746877 0.764803293416659 0.788061480590073 0.790451062632851 0.243198208309174 -1.2444395119878 -0.229465953423788 -0.510678416541315 0.592094155826875 -0.104987343772311 0.290487455866739 0.638248776145923 0.125228857166091 -0.717894054709881 -0.524095968562449 -0.473198436693677 -0.519193134478767 1.12947449333555 0.332851757864867 0.623985588732203 -0.98217041294901 -0.0270796158265034
0.152974131256932 -0.139493587240911 0.10711287365693 0.0607682489124873 -0.16196707413516 0.00844941195091652 -0.212762276151013 0.0677629314467868 -0.0137577087935244 -0.118412609098941 0.201459712496986 -0.0467125494166195 -0.106181620573333 -0.0399968314311057 0.155713126038696 0.47489613523343 -1.06695429563466 -0.863906156425782 0.549112018058488 -0.362603262715316 -0.556356354580687 -0.421398962302196 0.757052192723348 0.509395693837267 -0.359590702698614 0.860189114507077 0.26386832437837 -0.292367188416207 0.164607852826937 -0.0769903588121048 0.0793357179033703 0.325228698042796 -0.44288925985584 0.495391930598408 -0.184574001214497 0.00560705887550095 0.110892136239972 -0.14411128613141 0.274523227480884 1.03545135621616 -0.238523173847819 0.304520529666484 -0.635413622155638 0.176716199795152 -0.261155554835293 -1.27121316669628 -0.201896799808447 0.0658942546351974 0.982486915584544 0.209092285395836 0.0626261270963818 -0.502336990867347 -0.593250894541149 0.30027615476201 0.577589027730751 0.704191110385381 0.35697177837241 0.67270514023898 -1.25195612819402 -0.0668813006285507 -0.512380228843999 0.0959568628073337 -0.480979362168241 -0.0763157016913548 0.306976189026348 0.0413895972935685 -0.352646670870407 -0.451155352246126 -0.437282715200706 -0.407538409435386 1.25270766125955 0.334516803411352 0.0769548776068214 -0.285457609352551 0.456045330820647
0.0683745965726497 -0.0261966994573512 0.0689770057319168 -0.234229690898351 -0.236808763146157 -0.533434210416731 0.363140880108413 -0.139263730737119 -0.171181645991317 -0.0189083970938229 0.0914885449332815 0.351770439366018 -0.155295064880792 0.315463139064014 0.0596981563299564 1.51696962132842 -1.31218830237451 1.23517120410335 -0.873032796599281 -0.127629237836564 -0.562276316549157 0.13009543871394 1.43310747864959 -0.746405002926329 0.418503644529039 0.0320521267698356 0.161897397275509 -0.0684517296276135 0.048690240945891 -0.175447618151181 0.325725177806579 -0.143472110215943 -0.0104232468274399 0.206408826413646 -0.0273536952818081 0.591776881860791 -0.514365633678767 -0.071443977939842 -0.151886298071759 -0.818513610689776 0.00984449180502823 0.00318610939037086 -0.461566772005138 -0.231737007672105 0.22966624225651 1.30345118412858 0.248862088535165 0.0267906239805724 -1.28769932875405 -0.0651429786798502 -0.397907319082425 0.460402834205734 0.95204506989217 -0.480351756211019 -0.618811246295049 -0.113667897777935 0.176139501654206 0.0605797871481925 -0.0181905454622933 -0.540953140614601 0.126266296755354 -0.0104340454551348 0.00946216896259106 -0.0941676330423571 -1.09186981504906 0.283713630979819 0.2512017912024 -0.156271312246451 0.237885797703635 -0.327279665974283 0.499656617207356 0.229839791630179 0.241201490626345 0.14046032152979 0.104291346506354
-0.00637196167055851 -0.053801591388158 0.0627004319393302 0.224091579264094 -0.39741958106487 -0.435586559322052 -0.194032827744706 0.0312543138713268 -0.0472023443156396 0.00765211327277417 0.329164283617231 0.0466703833465726 0.505612574601476 -0.0961388968170483 0.654103732703913 -1.12164574536691 0.014551665039285 -0.157481529878833 -0.673405765488234 0.998742192697796 -0.339192609203257 -0.0492515124758442 -0.247711777575471 0.510556546314472 0.374233127632573 -0.691701469015462 0.39963484240343 0.175189993747602 -0.0191220556560726 0.453686601999854 -0.267420558669635 0.171562683282838 0.662291406488319 0.122417357312661 0.0240994516928858 -0.35386820135085 0.44653945312691 0.0404097503853452 -1.03764476318915 -1.51775637848905 -0.417623299261719 0.173810340504483 -0.242916929768739 -0.0760259385148742 0.139045701301755 1.46226017388333 -0.059865792169411 -0.203186464487442 1.01924544425809 -0.0328530249905429 -0.0706150547091645 0.64098802803787 0.382840405235982 -0.368137045188601 -0.857042857195104 -0.552873540038888 -0.755807008106049 -0.1138507031182 -0.464185182110975 -0.000957221212100606 0.0228645514829156 0.225489487330221 -0.218293744632649 -0.404029112544717 0.0818325148925481 0.0650619889721382 0.696310683269914 0.448176987883791 0.209744316820463 0.129483773588077 0.240166365028731 -0.0457247320927166 -0.379164500946591 0.121032047645511 0.656390727783589
-0.0545104441632752 0.0622887985360068 -0.0371452223890945 -0.115867989615686 -0.152124896321781 -0.092965642935838 -0.033849584060675 0.0582459980151715 0.164237357052928 -0.242445646802911 0.109195209030769 -0.225629355269889 0.118263228082495 -0.0440807695812551 0.0506980143665984 0.0504851271348984 0.563623059688825 1.41099523156275 -0.52630094549368 0.384905257117362 0.0713298210184956 0.114136609641932 -0.779346988040264 -0.891041565162043 0.515273746845874 -0.247821563623703 -0.222822226289573 0.33066477864646 0.200903326060514 -0.0476108923967644 -0.237048389836911 0.0655782662200291 0.186023588427449 0.151663640653097 0.0284677537056684 0.221398092984759 0.352633558251063 -0.215836285501503 -0.27526396191872 -0.743565992283296 -0.136220574608614 0.000196432179974446 0.32856470266998 -0.0368037800657881 -0.158805390212194 1.08580072917432 0.0199823463291021 0.162649444561406 -0.807778746320283 0.105511077215515 -0.156127073433668 0.0495962972315323 0.600654125156573 -0.343404331114463 -0.465930188924439 -0.921071006120544 -0.340121291185021 -0.538055765959978 1.18357716074825 0.581497102515583 -0.165508766908914 -0.371711648065806 -0.151314742134478 -0.136383325354588 -0.48631979778375 0.237806093546839 0.446722515577357 0.809924587909375 0.488339655383069 0.674073480634038 -1.35756079351622 -0.792850157752408 -0.150632114598048 0.556040366165518 0.159930504373933
-0.0171320228380069 -0.0640011523562029 0.0108847596063065 -0.321397242092561 -0.369206109330399 0.0378959841240754 -0.397064254791671 0.531090136876382 -0.381367163886173 0.118773591796172 0.412800169334833 -0.108236702267752 0.414339488001727 -0.493497285658314 0.976349181290893 1.7076823852773 -0.972811859390253 -0.268056135042537 0.0243095107125706 -0.701942424723004 0.503905877205311 -0.756379849594247 1.09413572709371 0.609555793919761 -0.262923701565247 0.673591656150697 -0.976756186710918 0.312300426700315 0.191393077493662 -0.547716681094193 -0.100637810802903 -0.348659663259329 -0.321616042858475 0.196543251573594 0.165970536797964 0.36724538707322 -0.0456452850461039 0.0524288801199858 0.45973743305158 0.396275440749574 -0.223463716196689 0.158861440232135 0.406545707018003 0.0636519967274001 -0.188209796315306 -0.614215658880306 0.333401973656942 -0.141929963337034 -1.22803871051085 -0.29211213511446 -0.209324970111643 0.547231771288654 0.16507630758075 0.11003081712621 0.555026066492744 0.365202903777779 0.599432337565947 0.559899332905357 -0.882856462479469 -0.83664579214048 0.335408461526733 -0.361179129410501 0.115051150563619 -0.597328662046901 -0.519139912670842 0.270559616896478 -0.402792155453281 -0.306437286082335 -0.605266938953591 -0.641290389613329 0.979774146041468 0.752307481402342 -0.189489947917522 0.50678936791004 -0.386690630229591
0.0961260413078876 -0.0549621867551798 0.0697889596905023 -0.0403467583904581 -0.1688401435528 -0.319978508101594 0.197016848531072 -0.17737388764381 -0.208752899953995 0.00263897892049439 0.136345273047472 0.275693335924685 -0.0515750172015367 0.221986618194132 0.0979247841496432 0.924615269996131 -1.03893288520704 0.0312154902336617 0.147392269179386 -0.469768586849621 -0.910251038280408 0.123730933238694 1.68470624797487 0.00637247589092493 -0.459707351160144 0.264384087405894 0.627720371253549 -0.25563077121842 -0.0370997138866658 -0.29761506436576 0.538638891855504 -0.131771025777936 -0.304504074614759 0.219171004577771 -0.0699272849690707 0.657272358601825 -0.704264129677414 0.0711395594829182 0.0682792086946778 0.515828590621247 0.0269528605061796 -0.0633974576460196 -1.02550864832115 -0.194976165006913 0.221929539733459 -0.550785291130835 0.232122930057107 0.0476111495069476 0.154764646572825 -0.0783139620352833 -0.266335553696478 0.0637854369124875 -0.0750689744129568 0.0250700426345135 -0.0850049974432087 0.711084234397312 0.614846350159727 0.441536088961592 -0.778366369801491 -0.9420756225381 0.100112534698599 0.37838494287109 0.0153160536139761 0.111424097209039 -0.562331338128365 -0.0210519246912666 -0.128202336434945 -0.804364580197402 -0.253796804281565 -0.723509341111245 1.37154321660987 0.6830995907259 0.387753009506625 -0.456553380542675 0.145618466025402
0.00935032603289357 -0.0689093857537319 0.0296100942496821 -0.0633879445692408 0.157091750841082 -0.166176996275084 -0.420309843566107 -0.447750184979658 -0.118134930101072 0.438696821208375 -0.132279846830514 0.0884186493457228 0.351709504252597 0.215447534904486 0.247915151730393 1.64908491764168 2.41311019564393 0.200642616334736 0.585878002927343 -1.08095445933095 -0.265942432226346 0.240476182799502 -1.5568350694559 -0.943010732274444 -0.445180111588265 1.1744698038385 -0.107969821897577 -0.606626280492236 -0.096177206234347 -0.294734144762862 0.726923764344309 0.632098443453294 -0.969244455598178 0.340304867855834 -0.0777321216906732 0.15750055603239 -0.758182963309117 -0.249841935443388 1.01114030284249 1.58524008827687 -0.752783392351468 0.0151574166309339 -0.646224848249545 -0.273628998263671 0.544679952720268 -1.86377963392971 0.334692666776669 -0.0769937012444865 -0.559089435828237 0.232057109850204 -0.163256738814155 -0.442394065642973 -1.26821191952764 0.374205873953152 0.259017169441514 0.666680534425942 0.457645584600962 -0.672665802380948 0.649387817723427 0.742380457228502 -0.274159416571638 0.162164020535501 0.0905711757995789 0.121123321760552 0.374490237815785 -0.186364002310023 -0.0285675124567549 -0.126049552870906 -0.622157535329561 0.58410265711226 -0.421380707479188 -0.503177226946086 -0.111339507958762 -0.459155078486604 0.457295400531427
0.125156609204608 -0.082693319785944 0.069627751605628 0.125200317935755 -0.0742539351321728 -0.128252987141038 -0.0416433650443994 -0.266521187248758 -0.252331790457619 0.136412378805291 0.146859279769586 0.241282480334057 0.0762426823993224 0.215188882060174 0.154317531964218 0.035224352210313 -0.364402776887621 -1.25864073584736 0.820944073251685 -0.5725861777858 -0.751944698933829 -0.127765506233667 1.11138576350581 1.01855638896708 -1.01065076505366 0.258736662231629 0.709800483252531 -0.285295629937127 -0.107723253231876 -0.0253011846892217 0.621180002412987 -0.0896347805123185 -0.456896365527081 0.0191179418931412 -0.0832234809837284 0.168969212864773 -0.798099062142694 0.175178166679174 0.237756214171295 1.25575595959172 0.0944411982772953 -0.0499092003245021 -0.920984359988802 -0.0752805760937408 0.219905568371209 -1.6815414787297 0.112675709580918 -0.0402565127161505 1.32926298964166 -0.137585058350924 -0.0926553109447004 -0.220927581349479 -0.897492459658847 0.474836228560742 0.233240073803166 1.10133815465605 0.707227067428756 0.546825537199178 -1.06570422592388 -1.02786429181974 0.128011303568818 0.557653732565177 0.0673752092905022 0.370162302101767 0.215829086416373 -0.445355203623032 -0.310264885379821 -1.06682728320415 -0.508947293677744 -0.800404826265744 1.60857772249689 0.902952708619734 0.374840678995504 -0.713936100549506 0.0657482160511327
-0.145140755304993 0.118873607657442 -0.0829409168923778 0.00690880773310647 -0.103741130714279 0.151011095008104 0.273215565089065 -0.185321934737462 -0.208966301406062 -0.138853639994895 0.056655257311635 -0.256221867529626 -0.0861586508352838 0.0973457720170483 -0.137640337040314 0.740055924062077 -1.58900469557946 0.819217064151046 -1.08823196306678 0.217714475389871 0.710334243992881 -0.160145705597282 0.705325737623899 -0.202242613004868 0.803306828903665 -0.294471121045436 -0.37686516457812 0.114925680794212 -0.367857052199083 -0.16415431046375 -0.371292301356987 -0.16232317173891 0.454184367314554 -0.000137296837835542 0.183133155747773 0.0795606893136814 0.57619394787664 0.248752816707299 0.0892953950704778 -1.25769662725461 0.315773213944968 0.390850415883788 0.888805735008826 0.214808101878836 -0.123133409172908 1.58603995805684 -0.536182718275274 -0.535401360428491 -1.96622364376969 -0.122714833794638 -0.00461461356830021 0.783244007087218 1.27141216997808 -0.606481527459087 0.309006845253362 -0.262181938686678 -0.278781743445435 0.193692413862132 -0.693698443808474 -0.136332160428128 -0.0816558801966811 -0.668945675140045 0.199644514603505 -0.528846593417668 -0.424849380960909 0.365457185748976 -0.173162937063154 0.6536705020452 -0.14276197188991 -0.149995766894597 0.661875916432247 0.349898163011864 -0.127853695026509 0.665951627056534 -0.352915865232231
-0.115156308628553 0.103613089843039 -0.0544433384054567 0.287440443085486 0.341903064754684 0.166713585227448 0.0636625382449119 -0.344298560331676 0.267263978568059 0.0958396205637888 -0.557500237785799 -0.423520378423883 0.0544371677610596 0.172119069719311 -0.245051201399587 -2.07031418722295 2.4354440717087 -0.0151075372553907 0.918354894145086 0.353849946527842 -0.207207410642704 0.86422368750205 -1.82677119415809 0.145848065419011 -0.741405752523943 -0.230040594683268 0.473216434406502 0.16306827704986 -0.520603126723505 0.262204821492984 -0.0853274136129574 0.353660199212631 -0.0149057057615688 -0.249279378362519 0.0672821354041792 -0.121937332600603 0.458699993462317 0.134317702142658 -0.0986434071117225 0.319349616593456 -0.0491602383608037 -0.235753840064436 -0.0112992212216453 0.30262665605694 -0.246066272402911 -0.611389760856616 -0.224526095473723 0.200014239046964 0.849259360618708 -0.0981512982210535 0.43990806728149 -0.363290004014677 -1.0415770063312 0.181287618852673 0.0809102606653644 -0.293946359161499 -0.505198884316687 -0.478334212603349 1.28706632348298 0.614772816647328 -0.258522489449013 0.345210787261715 0.22989275632792 0.148547208122377 0.465177884528359 -0.51793766545414 0.00780715071325138 0.335555271441348 0.0346072877706027 0.679596207369445 -1.28956903400638 -0.559307465263601 -0.00687744029075453 -0.221682713957575 0.229351025171892
-0.0171299659565412 -0.0735265704238642 -0.0188258647250117 -0.469965019029595 -0.138007490381942 0.210261365398904 -0.547679143007444 0.547243341246898 -0.372837019337728 0.177708902212536 0.287952606570446 -0.0303204896858985 0.338183194623964 -0.473258086256183 0.809096436009247 1.38267454488188 0.251735037722383 -0.686988382246991 0.471448030566366 -0.313803235721193 0.353341639695631 0.186642966858809 0.179867342200606 0.384694940987494 -0.748564214244949 0.567312333707743 -0.793660311939711 0.22442582250227 0.250346642733035 -0.6993954912481 0.0166867080006826 -0.359979710405814 -0.649174159161177 0.227968029496391 0.186138773789529 0.711799257816826 -0.185607069930645 -0.0190701193990637 0.665939542877923 1.44900485838781 -0.161288303251479 0.0857161642099748 -0.517516004753671 -0.0126313090808699 -0.289501952534485 -1.63305255505727 0.502979509215196 -0.0412690126176418 -0.550627425478343 -0.242228902918462 -0.126854307744361 -0.0478674883596106 -0.991688889041724 0.708492820860712 0.922008172738354 0.60092280529803 0.892978376172183 0.350336535874242 -0.305855959958091 -0.56616048008695 0.278639561514118 0.110202823838779 -0.00504861555756312 -0.244326664903294 0.167475916920674 -0.0416914446486601 -0.673253813369956 -0.546563541922484 -0.655058897034548 -0.490191362922566 0.548748207149242 0.536608492738674 0.100053913576827 -0.563023735851756 -0.382142351088559
-0.13988490893976 0.12648046953797 -0.0811794550271881 0.0471030997849195 -0.0330643695611437 0.00408239548905007 0.239771186677133 -0.356679958314463 -0.059400165627613 -0.0223847838810408 -0.0591805935311494 -0.205348246907894 0.00866589872518155 0.222648676915905 -0.164656446651564 -0.510803372090356 -0.0217152689639552 0.82704684056042 -0.895389041249985 0.493298025266324 1.00290094991126 -0.440998728678678 -0.760508267806092 -0.0446253289492994 1.02763649219741 -0.613456155399096 -0.590119549619802 0.315844433465718 -0.493296225495042 0.160971029285394 -0.458328983467941 -0.0177580861341296 0.690144923966292 -0.281484228581183 0.15884344251931 -0.331937731163546 0.670848033385635 0.250463884976579 -0.124379879341123 -1.9942052021189 0.397813730975735 0.39316826418545 1.61549732885769 0.344720478142328 -0.0558564159723933 2.10301937385815 -0.633771973635825 -0.500835210287202 -1.35489430380612 -0.157523953059063 0.147137987208189 0.633400449421083 0.93489762044317 -0.479316116393038 -0.23526841603853 -0.911625292209679 -0.849284043196297 -0.284845944226688 0.381762085127588 0.2946187022906 0.0357632551543266 -0.85994048895991 0.26046058601007 -0.352915093901681 -0.084392303876613 -0.0383410418512164 0.217582834976066 1.02072074248936 0.194015858472614 0.430195215890266 -0.490671644744807 -0.115938437805886 -0.373924852522901 1.1619354252967 -0.333329725695459
-0.00283746798193454 -0.0622579453140213 0.0625806185939531 0.23614876130585 -0.116758876400518 -0.401051776623115 -0.337858207352383 -0.279941310371724 -0.0218068001891789 0.114411974648153 0.0770919173344737 0.06871475334504 0.508235869800795 0.123619090308997 0.51601936637719 -1.01569089597517 2.19447166625559 0.0894931128013683 0.198346879508831 0.538660746221078 -0.581501730498881 0.912555516852542 -1.70257103483503 -0.398956328629932 -0.378141973747954 -0.066447555749471 0.405586686034619 -0.13219628602097 -0.0685700003118913 0.179573979481561 0.130536125567966 0.447700819824481 0.00447705962028145 0.311206165760562 -0.00146784203596088 0.00726824776923772 0.0650972130672383 -0.10831974885693 -0.34703755511344 -0.0360956986212205 -0.797776131752579 0.051638266306607 -1.09608282251118 -0.144703667993532 0.302700703789705 -0.184352372236567 0.254161643631543 -0.078615809390375 1.17177194668605 0.0367040213147016 -0.0880430113680491 0.0587429919993215 -0.895742053531536 0.176245688159873 -0.48449508681349 -0.116848607854459 -0.375238685559117 -0.688802808809923 0.502513111342848 0.677557323616569 -0.165592584828641 0.524585506351286 -0.192837265392767 -0.107755134894595 0.580052914616478 -0.194724197027365 0.460749932953072 0.230086617406063 -0.083450252165322 0.703688974197567 -0.585477682372081 -0.651721349746265 -0.241591783884461 -0.56276636855836 0.873129212917985
0.0321102336712416 0.030293236006478 0.0552396086428662 -0.208048932272359 -0.040861750087433 -0.526421015949241 0.370209096155112 -0.341437181102703 -0.174356442533627 -0.0289416077733292 -0.156303965239719 0.330807474798143 -0.227957745089062 0.681403434847246 0.0115277921745213 -0.52614487961247 1.17878668381464 1.5439407366576 -0.233633195273298 0.210909540170783 0.26824845345958 -0.415910688331339 -1.4885286070818 -0.688820292302381 0.570018418386056 -0.26154584809341 -0.602451582447412 0.133201843947515 0.187194982422166 0.496497504386222 0.0255899194249694 -0.0770705771892671 0.259929396371552 -0.0813697165627654 0.0874004930202008 -0.582799879813922 -0.216289570754507 -0.331861369439132 -0.277070932286338 -1.48642493156276 -0.0867314923234815 0.123611891223867 1.15365544895652 -0.14125016401262 0.253038329241087 1.71946651630448 0.297329157842027 0.0160125651002991 -0.512911161372333 0.0726014879846652 -0.331245333440154 0.0772502972073327 0.765056032726757 -0.0806912027892673 -1.14787535492771 -1.23766105911758 -0.548990404941828 -1.0852942221134 1.730675748962 0.724976926037023 0.0599344405883288 -0.440308130726569 0.00769222246135534 0.302864997196778 -0.16266975626588 0.00398803605181104 0.691001357986574 0.761289882763058 0.911020826168946 1.06310869862434 -2.19674863403813 -1.0798509424246 -0.0276095199141046 0.960037597047517 -0.113833733846108
-0.182122969837931 0.195801745805209 -0.174900744791488 0.708786697800124 -0.0833908597129999 0.896747868568264 -0.146598312933625 -0.134808782592594 -0.139628570087098 -0.25725853578834 0.308579271018679 -0.561620685581965 0.415392097091799 -0.211194161143599 0.220242382711218 -0.663401865369614 0.0163005285054973 -2.4596779920274 1.14541609602529 -0.672035368211711 0.135041724418584 -0.526568082974038 0.760763578218022 1.73653888957998 -0.701383210074516 -0.0698660927454661 0.351958901130313 -0.044629699822414 -0.17625185880427 0.278416646985273 0.0494667136991932 -0.470873903527252 -0.181432371885822 -0.677083726659091 0.187448493062814 -0.76539644660933 -0.106283436205886 0.289440503200698 0.32661195082848 1.34502615786424 0.359089852061715 -0.824936994396977 -0.118660206205375 -0.240487495647563 0.243762565161326 -1.99838221415537 0.305579309400954 0.346977134220385 1.44388733730114 -0.269223158164139 0.505199655647237 -0.46303307138 -0.89087727175497 0.235044473068952 0.377470659059586 1.23458550710599 0.348316678274923 0.631144564673575 -1.45813818342607 -0.862907283364001 0.256459437338915 0.292717372485742 0.426054199279444 0.636592472345667 0.823712121484152 -0.324687481107133 -0.371599033805559 -1.29693986873872 -0.261308278284122 -1.00699388691782 1.64613972049297 0.818339547095741 0.254356018930052 -0.446070227042547 -0.312756025944968