5.4646255888 6.1101045075 2.4466197664 3.2320920883 4.8280470046 4.9296275168 2.3832586014 1.7196291201 2.4449467138 7.3440118276 1.4837951104 0.0023283140 8.2552544480 4.6838770647 2.5359203221 1.4270851606 4.6016244152 2.1849984127 4.2117173475 1.8521745478 4.6844516728 9.1591260236 1.6188738960 2.7077256498 6.3638752450 4.5477053377 0.2864715862 1.7304268592 4.6962269490 3.6885266699 3.8506975249 1.5985624841 1.2741181219 8.8563012003 1.5212988920 1.2026529652 6.7236681137 4.8031970873 3.6965575519 4.8882965534 4.5283586958 0.5940758860 0.5782975991 1.7231595027 3.0580582536 5.6795705661 1.6935884192 4.3033928728 9.9953350536 4.6752014518 1.9117035837 2.1973997320 5.7246242246 1.4602863145 3.4209023569 0.6503352738 3.9488271246 8.5398762241 2.8514403677 3.4183999039 7.0327421385 3.3826694967 0.9760438153 8.3899873574 0.4937565713 3.4320001767 7.1436903705 5.7521687883 1.0259015686 2.0380361641 3.3714974579 1.4718014702 3.5395751912 3.0184356596 3.9985107266
5.4733482086 6.2340319542 2.4928363925 3.2703663143 4.9490593756 4.6613441784 2.2396214500 1.6096470643 2.1915179291 7.2946750346 1.3947624983 0.2298558961 8.3591832024 4.7060988259 2.7780682348 1.4433235496 4.7086680088 2.0768764574 4.3444321450 1.9720908183 4.5280851090 9.1690833366 1.5728219782 2.8432696856 6.2430778530 4.3423521781 0.4557975979 1.7448157815 4.9469914504 3.5999863049 3.8671082842 1.6078633453 1.1505515016 8.7967884759 1.3826087287 1.3517230438 6.7745818440 4.7178389276 3.8041997151 4.7293745076 4.7160067877 0.7582273815 0.6040761089 1.6721721608 3.1441151972 5.8464106258 1.6042350614 4.1590780826 10.0023315729 4.5897470878 1.8293185946 2.1223268649 5.8887621908 1.2577949765 3.4049764175 0.9371862882 3.7564172747 8.4309896616 2.8682227879 3.4257580940 6.6670406174 2.9790004531 1.1010842343 8.5128567845 0.4416476891 3.7190536338 7.1118272463 5.4390500368 1.1801514263 2.1311616766 3.4478848047 1.3942840881 3.9490316432 3.3092534640 3.8661591016
5.4415318079 6.2118320853 2.4749620326 3.2330459438 5.0004892688 4.8536162852 2.3514827641 1.7170932360 2.2589904393 7.3431898485 1.3183054984 0.1298682839 8.2155854257 4.6406827376 2.7020358190 1.3823737897 4.6809572646 2.1326097432 4.3231565331 1.9314921966 4.5167234224 9.2329252492 1.6203629523 2.8099986992 6.3021441727 4.3683339321 0.3983663857 1.7124470326 4.7458692815 3.6733781165 3.9093117572 1.5910118477 1.1372572216 8.8186565229 1.5819522973 1.2953717424 6.6531156093 4.7639065125 3.7476596735 4.8620976361 4.7978319943 0.8794651965 0.6511525724 1.7375801080 3.0872567848 5.7846034459 1.5210907750 4.0615804915 9.9487730830 4.6308001769 1.8498209522 2.0442730134 5.9230438405 1.3351403227 3.3527135233 0.8124278854 3.7974208488 8.5402210945 2.8682575009 3.5775071212 6.7424019253 2.9690629494 1.0062819443 8.5483502892 0.3895738414 3.5876374990 7.3071271490 5.4797161020 1.0216659041 2.0565640219 3.4347179710 1.3846114179 3.8025483613 3.2640868493 3.8789883231
5.4909244320 6.1102854676 2.4232732333 3.1488708742 4.8751626959 4.8697066989 2.3850934267 1.6689886419 2.3198818367 7.4502306354 1.4046315883 0.0859355097 8.2195541505 4.6548653582 2.5889849605 1.4078651036 4.7777910131 2.1935137033 4.3258364671 1.9378455686 4.5873849940 9.2094339326 1.6315576634 2.7590292866 6.2133978277 4.3219831579 0.3551603963 1.5677760832 4.9059032481 3.7245105018 3.9573816323 1.6155903007 1.1749800923 9.0579954868 1.4694160982 1.2408136457 6.6616713250 4.7009145739 3.7889011592 4.7889376565 4.6512167738 0.6940574322 0.6437370367 1.6878355873 3.1514897082 5.7770321122 1.6797655517 4.2408963488 9.9708437218 4.6685239369 1.8297397600 2.1255855866 5.9002115878 1.4130137717 3.4390928545 0.8468527013 3.8484945225 8.5182597090 2.8231198502 3.4573713512 6.7895050732 3.1397568261 1.0674434600 8.4329957971 0.4998353349 3.4791687999 7.0521472783 5.5099981068 1.0036039247 2.0766499546 3.5239957213 1.5929421238 3.7555394510 3.1567357026 3.8947463999
5.4978718131 6.1582241362 2.4297696057 3.3328764843 5.0160362965 4.7763326110 2.3098483281 1.6693914466 2.2407168980 7.2820728670 1.3203424167 0.1246165733 8.3086612561 4.6632434328 2.7328121259 1.3713658963 4.7097649475 2.0809710791 4.3188361598 1.9405357028 4.4840734124 9.1790409895 1.5975901687 2.8822426872 6.2294999358 4.4275058989 0.4371010116 1.6998500258 4.7318076815 3.6050673918 3.9807084501 1.5679522938 1.1042255737 8.8931037510 1.4543120388 1.3570425546 6.5902542679 4.8271483552 3.8031744490 4.7363511369 4.7596039748 0.8685119333 0.6008431953 1.7154809126 3.1570459612 5.8140077768 1.5846904771 4.1316993622 9.9362916427 4.6310063377 1.7711787793 2.1134998556 5.8829272967 1.3113940029 3.3844277620 0.8157267085 3.8215200459 8.4215378538 2.8186639252 3.6011398385 6.6614696286 2.9980682740 0.9981538172 8.4780581999 0.4172559625 3.6531471869 7.2517457089 5.4392729560 1.1283344379 2.1569519725 3.5051472793 1.3898578740 3.8942444181 3.3215295763 3.8772629726
5.3990857562 6.1468836298 2.5115718772 3.1981781961 4.8417228680 4.8579485637 2.3430906253 1.6337158686 2.4762082857 7.3791569236 1.5064211075 0.0633022477 8.2421856638 4.6763141548 2.4859281866 1.3872169737 4.7568652471 2.2124406924 4.3251224618 1.8208251127 4.6095059239 9.1732565138 1.6082380194 2.6969680326 6.3105925125 4.4681683032 0.3401568153 1.5426296454 4.8309354797 3.7049102176 3.9551432629 1.5175599119 1.1986365441 9.0221782563 1.5182257565 1.2026954581 6.6334939501 4.7676053136 3.7448643430 4.8082850740 4.6364742868 0.8922354535 0.6100261946 1.5694020060 3.1524473124 5.7891600216 1.7331467395 4.0536572950 9.9671323487 4.6926579332 1.7549595426 2.2312543353 5.9327076127 1.4896315468 3.4208180549 0.6577137962 3.9511133651 8.4468490699 2.9056986584 3.3406127896 7.0317940076 3.1632547603 0.9763667433 8.4099575980 0.4546925766 3.5475167411 7.1931225578 5.6167902124 1.0264264661 2.1256743068 3.4747154298 1.5566327631 3.6264154738 3.0943793365 3.8864215820
5.4846656242 6.1640148000 2.4359840938 3.3229173213 5.0218154323 4.7917621104 2.3191610779 1.6767603918 2.2471819600 7.2889837731 1.3150583680 0.1209552458 8.2942148969 4.6594473814 2.7269645979 1.3728750167 4.7071950661 2.0947363396 4.3215492038 1.9212213836 4.4888871911 9.1718629038 1.6047958271 2.8718633058 6.2336328037 4.4271445823 0.4229624392 1.6966680115 4.7105152268 3.5789621343 3.9881860047 1.5804788249 1.0811501773 8.8907872500 1.4709692557 1.3768708634 6.5986263749 4.8233881558 3.8374199917 4.7763562397 4.7679924881 0.8939897853 0.6090942613 1.7254748594 3.1541419247 5.7846967190 1.5798881689 4.1211750685 9.9287759128 4.6383076205 1.7806403682 2.0945104635 5.8624699556 1.3171662308 3.3805508608 0.8403922069 3.8103383151 8.4534725144 2.7925522064 3.6047357704 6.6676745740 3.0248557599 0.9888853507 8.4990773514 0.4287320451 3.6231114505 7.2691107652 5.4208648403 1.0894017890 2.1411848782 3.5199668038 1.4024175847 3.8798294807 3.2903420399 3.8776854213
5.4048955433 6.1462703406 2.4877178295 3.2131660776 4.8397405681 4.8842027172 2.3510299331 1.6615375079 2.4826609265 7.3586370703 1.5149913217 0.0335107909 8.2449777773 4.6670799622 2.5064354906 1.4397219259 4.7234199883 2.1918042920 4.2743451944 1.8542475366 4.6166044828 9.1468669931 1.6329353381 2.7295429586 6.3217659636 4.4291018690 0.3366957949 1.5969913927 4.7706110789 3.7438142893 3.9795940665 1.4921429036 1.2095412908 9.0013989136 1.5193094767 1.1918852835 6.6621408622 4.8235610411 3.7404580403 4.9255637347 4.6493328732 0.7775255373 0.5677391900 1.5873742219 3.0809972850 5.7213648499 1.7211136405 4.1727552841 10.0146346480 4.6557632579 1.7899133780 2.2038304180 5.8308113057 1.4704478386 3.4016827003 0.6255035431 3.9741195353 8.4656323302 2.8514151545 3.3740549693 7.0468732538 3.2831713168 0.9597680191 8.4489457467 0.5297439912 3.5090992758 7.1259462678 5.6877601790 0.9799192726 2.0311443175 3.4621392609 1.4948376134 3.6200675194 3.0170764838 3.9323578621
5.4501771143 6.1980879333 2.4513670526 3.1590967337 4.9439263448 4.8844840602 2.3726603971 1.7142491578 2.2747933825 7.4096040170 1.3412010022 0.1082093226 8.2142922873 4.6325347621 2.6506277637 1.3666618857 4.7141052992 2.1773677306 4.2973410545 1.9429182466 4.5104975898 9.2226849748 1.6591612606 2.7829671543 6.2887043173 4.3514425944 0.3776677870 1.6900327655 4.8694343238 3.6839242441 3.9129767754 1.5688103637 1.1199333156 8.9388473034 1.6021537550 1.2550513556 6.6331854095 4.6379703656 3.7638776766 4.8496703052 4.6856903112 0.6497676543 0.6759075709 1.6943278162 3.0281064416 5.7724375621 1.6300863102 4.2137393301 9.9293514490 4.5916634842 1.9311911821 2.0943257512 5.8683467831 1.3956916870 3.4028255848 0.7918985520 3.9211089613 8.5518139921 2.8660567743 3.4854206629 6.7483616708 3.0612530409 1.0225331232 8.5359917476 0.4598678764 3.5965728347 7.2231017677 5.4573687388 1.0685882560 2.0196992060 3.5191287659 1.4066408029 3.8265378956 3.2538003624 3.9227414736
5.4395500069 6.2172030341 2.4770493282 3.2131969116 4.9903763528 4.8616682093 2.3564021229 1.7209249157 2.2609255648 7.3558086145 1.3208703256 0.1289182457 8.2066212702 4.6385023187 2.6939837370 1.3924033974 4.6857095891 2.1500229872 4.3195472149 1.9320793955 4.5184515518 9.2285118238 1.6176012837 2.7992697579 6.3233081144 4.3649364062 0.3872879108 1.7065063636 4.7704012375 3.6623833910 3.9047771378 1.5837226060 1.1244000168 8.8342375464 1.6013277933 1.3076101885 6.6425061569 4.7373141386 3.7557326608 4.8573213918 4.7852729303 0.8374659269 0.6513814357 1.7315670695 3.0692273587 5.7794079284 1.5296923571 4.0830182829 9.9543802008 4.6204600961 1.8655706853 2.0380828247 5.9120675406 1.3541454097 3.3652626568 0.7982544052 3.8288488214 8.5555967103 2.8700261656 3.5509099473 6.7482241196 2.9625123276 1.0113451243 8.5660154725 0.4185523222 3.5767047796 7.2922870048 5.4815621240 1.0259622500 2.0371216149 3.4410383539 1.3812183741 3.7985939996 3.2816102430 3.8852245164
5.4455950630 6.2034908042 2.4695142850 3.2534198168 5.0094555511 4.8441684041 2.3460335840 1.7109394515 2.2578600790 7.3312250498 1.3160560440 0.1282878428 8.2290399082 4.6432180510 2.7083873907 1.3781460571 4.6801906753 2.1222101000 4.3259677558 1.9313267417 4.5115211681 9.2200578889 1.6248823762 2.8175320184 6.2775066182 4.3692355201 0.4081854868 1.7107295538 4.7241966802 3.6574707312 3.9244708708 1.5967183007 1.1292777330 8.8224166506 1.5586308938 1.3091099885 6.6526355735 4.7856864651 3.7684050868 4.8773631068 4.7986323177 0.9060360466 0.6582215308 1.7416029264 3.1072195691 5.7735627798 1.5252660615 4.0563998451 9.9384330557 4.6390031209 1.8338446497 2.0509955302 5.9175404014 1.3236292746 3.3498491314 0.8334893368 3.7786048977 8.5281854807 2.8492477268 3.5944922257 6.7232400811 3.0091629806 0.9928673380 8.5338461728 0.3765143308 3.5945196356 7.3112927345 5.4647938241 1.0195715203 2.0736340997 3.4484146146 1.3934928619 3.8176979387 3.2345106809 3.8808106011
5.4447786993 6.2087884091 2.4614774118 3.1671514398 4.9557986603 4.8802377376 2.3678600821 1.7189347443 2.2715199858 7.3972072848 1.3342849897 0.1143194895 8.2089214914 4.6329811473 2.6619085018 1.3896963298 4.7065231808 2.1800684129 4.3014604347 1.9438356276 4.5049780765 9.2069277200 1.6485642088 2.7817795899 6.3114127175 4.3445794503 0.3794596703 1.6889272176 4.8474931084 3.6486894853 3.9169220223 1.5678118069 1.0918269732 8.9178922975 1.6141250581 1.3017521070 6.6165691114 4.6565478404 3.7959674083 4.8833695842 4.7043333977 0.6816201792 0.6788857257 1.7041821795 3.0321690681 5.7484075087 1.6049597563 4.1882123400 9.9386124196 4.5938825352 1.9160965623 2.0645563614 5.8613603340 1.3995252327 3.4080012158 0.7957576624 3.9191873391 8.5716749866 2.8485280641 3.4827803271 6.7324280589 3.0669239906 1.0031822161 8.5615066387 0.4683152699 3.5817614454 7.2337560020 5.4546955107 1.0539112097 2.0079536668 3.5135409878 1.3978748669 3.8279933591 3.2515161467 3.9256368505
5.4749851939 6.0942528756 2.4712481234 3.1571764266 4.8337451602 4.8319700570 2.3606416058 1.6467344870 2.3918362057 7.4398943324 1.4440166326 0.0897706585 8.2200877251 4.6817051373 2.5353646486 1.3884601708 4.7748181174 2.2420688049 4.3410700132 1.9238593969 4.5609970523 9.2273386399 1.5725644860 2.7360854758 6.2517516879 4.4001939768 0.3681581268 1.5501682769 4.9011219112 3.7382740785 3.9817894877 1.6218042043 1.1646634922 9.0211912784 1.4499469440 1.2344829784 6.6105950343 4.7406354507 3.7607302607 4.7273630181 4.6110885167 0.8144678880 0.6354266483 1.6889423479 3.2411327813 5.8181436484 1.6570317616 4.1523191841 9.9949380209 4.7535946833 1.7115162405 2.1431289648 5.9486417355 1.4194096692 3.4732650974 0.7153422799 3.8787913995 8.5120406114 2.8795193126 3.3735577540 6.8481524394 3.0680571162 1.0597843745 8.3535377966 0.4118540112 3.4305827974 7.1227168860 5.6087283666 1.0144481645 2.1746645028 3.4990479283 1.6415475383 3.6606685998 3.2340687821 3.9282066520
5.5190593902 6.1584260847 2.4245190882 3.3355664276 4.9976276112 4.7436454354 2.2909794066 1.6554053666 2.2225778748 7.2767742345 1.3384328289 0.1414655472 8.3302736854 4.6691740870 2.7494663828 1.4069475597 4.7052085520 2.0772886130 4.3329395648 1.9911769696 4.4980319272 9.1650937343 1.5932271876 2.8715437446 6.2210449664 4.3832186604 0.4429134091 1.6900879676 4.7934088436 3.6082775551 3.9453046183 1.5502555480 1.1174650997 8.8899828375 1.4323029593 1.3617877456 6.5829832423 4.8205636359 3.8070271265 4.7475694233 4.7358489342 0.8102019120 0.6221547017 1.6966795103 3.1682186987 5.8047706943 1.5954759249 4.1398336023 9.9571446964 4.6119143393 1.7524066069 2.1319850640 5.9284782502 1.3107253790 3.4078450846 0.8015933535 3.8339808983 8.3916030132 2.8503712258 3.5572287082 6.6319558305 3.0191985268 1.0041761172 8.4501314081 0.3947231282 3.7113805712 7.1852777257 5.4737738583 1.1933104816 2.1560013624 3.4781261871 1.3770135031 3.9348149142 3.3217839047 3.8832978432
5.466510199376 6.108752149945 2.445346259633 3.232579393047 4.827397515443 4.931572366614 2.385535748027 1.721557690504 2.442635479639 7.343645515453 1.482932072271 0.001202103988 8.255842794137 4.684403305081 2.536494773089 1.428537036314 4.598503192535 2.174523300954 4.210152532795 1.862857612212 4.683941102254 9.157136093380 1.617664698423 2.716169218313 6.356624378293 4.541633979044 0.290920251987 1.733640329694 4.696075041373 3.690930631548 3.844030046916 1.603328243898 1.275842211862 8.852032800000 1.520092849585 1.199761887718 6.722746416609 4.801162733787 3.699009277771 4.914990877566 4.522761931123 0.584747945475 0.567549962466 1.727922954954 3.058820854921 5.670682252129 1.693405959835 4.305944573792 9.999216665417 4.676568329517 1.916035567016 2.189612358155 5.710381534061 1.468325851077 3.419666727738 0.650232931633 3.943977097866 8.550011405479 2.837913636004 3.413912698801 7.019033545675 3.406914382178 0.965565751935 8.396060647972 0.505780662315 3.422371600494 7.147099900145 5.754258352838 1.030879324071 2.035661947997 3.378254561738 1.476784752770 3.547743141632 2.997576902293 4.009290670001
5.4652738139 6.1695131228 2.4315793959 3.1534882451 4.9212544337 4.8887951842 2.3852709079 1.7001696100 2.2807235118 7.4284048564 1.3587745577 0.0968979932 8.2203950105 4.6359629042 2.6302741979 1.3418925183 4.7419215373 2.1904545029 4.3066254096 1.9312030937 4.5540778400 9.2395540125 1.6599638410 2.7659751398 6.2528072202 4.3585640375 0.3533756721 1.6638568352 4.8952469935 3.7043677440 3.9016337918 1.5821341453 1.1783093679 8.9910003525 1.5631296310 1.2190199763 6.6794718542 4.6266875826 3.7181740307 4.7363993051 4.6722767371 0.6310153291 0.6617783130 1.6811405923 3.0446759446 5.8234130062 1.6680121544 4.2428570380 9.9191513550 4.6000444929 1.9381191920 2.1425043809 5.8910467020 1.3893434374 3.3801001188 0.7889339530 3.8860887381 8.5103980569 2.8895498380 3.5010683748 6.7913885498 3.0344200884 1.0719037486 8.4914781232 0.4651473172 3.5947237678 7.1920565507 5.4767379651 1.0819196674 2.0529519723 3.5044810155 1.4444408235 3.8012418699 3.2683906325 3.8922927565
5.4630757176 6.1000472941 2.4855736667 3.1620960297 4.8295639750 4.8291350189 2.3568659275 1.6416850801 2.4084071024 7.4328991703 1.4526007494 0.0885392623 8.2223748211 4.6862984267 2.5211827696 1.3882069296 4.7745308357 2.2374968182 4.3475200237 1.9229689623 4.5600949495 9.2086022884 1.5631276575 2.7319777018 6.2540293050 4.4125076010 0.3675482078 1.5432646743 4.8991311396 3.7227289727 3.9802301586 1.6172702551 1.1397441087 9.0206584235 1.4587755360 1.2511667190 6.5949047004 4.7346067157 3.7905175852 4.7617270083 4.5930260048 0.8312600702 0.6269320057 1.6786058312 3.2524315049 5.8004572895 1.6659633936 4.1248093382 9.9941737475 4.7625003711 1.7002412096 2.1408036947 5.9280260177 1.4456038103 3.4755048835 0.6912446717 3.8916818137 8.5235360552 2.8597021743 3.3436376925 6.8476665421 3.1101681747 1.0306197304 8.3674394468 0.4313514819 3.4245032288 7.1557204105 5.6076743635 1.0290263549 2.1811317732 3.5213699884 1.6470500237 3.6630593033 3.2046177148 3.9438940418
5.4898248739 6.0939380491 2.4424256753 3.1503598465 4.8514568780 4.8484427244 2.3713411871 1.6572188646 2.3555344704 7.4495401365 1.4256846854 0.0883068989 8.2189076354 4.6685579765 2.5633891266 1.3984321006 4.7735409480 2.2100210759 4.3256692759 1.9283179532 4.5658188258 9.2424318957 1.6054247871 2.7602431928 6.2292011563 4.3602093039 0.3741558466 1.5594835175 4.9057653520 3.7727864078 3.9771894824 1.6226756751 1.1929644763 9.0350564738 1.4454072915 1.2018604330 6.6417258967 4.7356452407 3.7441250830 4.7496540290 4.6388121617 0.7585071381 0.6286317186 1.6942450340 3.1991638342 5.8113246441 1.6596110915 4.2030107133 9.9937150359 4.7173414903 1.7605603433 2.1371666614 5.9458378866 1.3994867205 3.4685338942 0.7977276036 3.8612552306 8.5063314623 2.8683741518 3.4251348219 6.8244426866 3.0784792683 1.0806133392 8.3693315206 0.4287185771 3.4526405720 7.0592200003 5.5669096756 0.9919662802 2.1283658555 3.4984853251 1.6270003171 3.6981381774 3.2049344294 3.9050872130
5.4141765424 6.1412492354 2.4788821223 3.2167893582 4.8380697615 4.8925769697 2.3538459485 1.6730603187 2.4805544288 7.3546087226 1.5113855250 0.0253814826 8.2463831276 4.6679936166 2.5135689886 1.4418032009 4.6993531450 2.1974076148 4.2516296468 1.8466217247 4.6200161461 9.1554265131 1.6372689773 2.7246689879 6.3397991022 4.4514909482 0.3275886648 1.6267282634 4.7502484729 3.7497498221 3.9727949110 1.5007523297 1.2262878464 8.9761476580 1.5202014410 1.1844086853 6.6764333733 4.8310737945 3.7244333442 4.9071595260 4.6377549598 0.7408451635 0.5719877641 1.6089013102 3.0650328390 5.7200477948 1.7129394691 4.2105713996 10.0142986899 4.6528744400 1.8083148980 2.2097003780 5.8177794996 1.4516473721 3.4095237778 0.6301416149 3.9833215224 8.4670080202 2.8632904088 3.3930242047 7.0602929455 3.2882851416 0.9722060319 8.4314923158 0.5126119091 3.5057502747 7.1122385225 5.7028571491 0.9725626337 2.0213573998 3.4400548286 1.4755095584 3.5981472600 3.0289082295 3.9417379746
5.4589985047 6.1139752009 2.4502549028 3.2305631634 4.8297474199 4.9243296458 2.3772619290 1.7141430705 2.4512984265 7.3450978283 1.4865958810 0.0053206826 8.2537442127 4.6821234361 2.5340774654 1.4255638926 4.6113686654 2.2082522435 4.2135604461 1.8307692105 4.6810089852 9.1630060819 1.6223407445 2.6905186747 6.3772520753 4.5559243837 0.2806884061 1.7205466905 4.6978679758 3.6849085238 3.8694779823 1.5849228585 1.2697921692 8.8690635407 1.5238999982 1.2084595971 6.7242187353 4.8088598269 3.6915351801 4.8386726207 4.5440274956 0.6170899292 0.6009765283 1.7094064408 3.0559728055 5.7006242613 1.6944103289 4.2957757535 9.9875539534 4.6713249349 1.8989735511 2.2138566136 5.7566434903 1.4426231371 3.4241047969 0.6509844266 3.9614684203 8.5160598455 2.8798746366 3.4270006673 7.0604252349 3.3319871798 0.9959171679 8.3787455936 0.4695951962 3.4546788262 7.1342318559 5.7455833701 1.0124509028 2.0416166568 3.3600668528 1.4608474797 3.5264309562 3.0590149814 3.9766031865
5.5231918285 6.1751952254 2.4333147410 3.3196593874 4.9791186929 4.7115162793 2.2755186511 1.6394438176 2.2033185638 7.2786157087 1.3600390379 0.1681982449 8.3411213346 4.6777010224 2.7674442328 1.4627080255 4.7032436747 2.0853817781 4.3566897916 1.9946819229 4.5417645576 9.1404047301 1.5929561187 2.8605043890 6.2231869662 4.3497519433 0.4151152328 1.6771594251 4.8582727013 3.5619818484 3.9021592714 1.5570918676 1.0897487958 8.8716996869 1.4221590799 1.3958468130 6.6068927896 4.7917749358 3.8829684792 4.8037152208 4.7148846362 0.7713718579 0.6118916904 1.6812575954 3.1778449239 5.7553729033 1.6100611465 4.1373758075 10.0004199670 4.5937918618 1.7477711980 2.1154455654 5.9232850086 1.3248177414 3.4479765466 0.8589377547 3.8301475954 8.4159134056 2.8227418254 3.4777208657 6.6180947093 3.0384687431 1.0254538645 8.4689434040 0.4236784711 3.7286595606 7.0987132675 5.4720160167 1.2136919893 2.1235184095 3.4811477608 1.3852736540 3.9606773444 3.3083046824 3.8711827488
5.4841382864 6.0919678193 2.4563538788 3.1531844804 4.8413010862 4.8387435617 2.3653428556 1.6519174812 2.3740685268 7.4456149620 1.4351167029 0.0895875852 8.2190572950 4.6755762694 2.5495828104 1.3914539665 4.7739745860 2.2291967813 4.3324599096 1.9247747055 4.5618261981 9.2416600441 1.5880718033 2.7486706454 6.2427757475 4.3825160813 0.3724428815 1.5561437838 4.9036116380 3.7622223995 3.9807482743 1.6234163429 1.1857667837 9.0253154502 1.4447242803 1.2111303541 6.6275063313 4.7417948975 3.7414115285 4.7246235686 4.6272527847 0.7897750154 0.6329767242 1.6937491866 3.2218444694 5.8228729205 1.6548419145 4.1785773079 9.9955981523 4.7380631201 1.7323444360 2.1425444162 5.9558496925 1.4031764822 3.4718699721 0.7539523274 3.8687623683 8.5052535027 2.8834045957 3.4019506125 6.8408799201 3.0573246605 1.0771033143 8.3528327701 0.4092407651 3.4412721451 7.0881053850 5.5941936539 1.0007697509 2.1562724875 3.4907440323 1.6349946736 3.6727721167 3.2326007157 3.9142563915
5.4384311296 6.1270747809 2.4626864154 3.2242157801 4.8342783319 4.9087781134 2.3625674528 1.6956846941 2.4687830421 7.3489779177 1.4981306009 0.0139234750 8.2497935735 4.6749651323 2.5260960678 1.4310535029 4.6484915354 2.2273394264 4.2209626489 1.8137728304 4.6513609253 9.1673020164 1.6332998883 2.6870225021 6.3802726676 4.5283140324 0.2930750192 1.6834371271 4.7146994752 3.7112692556 3.9272282652 1.5406687454 1.2550046966 8.9154533711 1.5251778234 1.2001922495 6.7094306011 4.8252029517 3.6943930029 4.8166983008 4.5938078579 0.6783773996 0.6128985279 1.6623952710 3.0526488971 5.7304016458 1.6999657345 4.2653532551 9.9904005082 4.6594571996 1.8553756308 2.2298485700 5.8080374124 1.4232078966 3.4259310807 0.6476105731 3.9868604239 8.4736370771 2.9044587160 3.4268797683 7.0892362006 3.2687815617 1.0073594865 8.3831110507 0.4578439723 3.4967746680 7.1116343077 5.7248506490 0.9804416711 2.0339970343 3.3757798624 1.4504093229 3.5373854412 3.0875186916 3.9460042437
5.4898084955 6.2192136724 2.4757696708 3.2832227135 4.9560938308 4.6707442194 2.2500689523 1.6157955559 2.1909567929 7.2886696542 1.3881333155 0.2164752103 8.3535585703 4.6984655605 2.7789418551 1.4577703113 4.7099481308 2.0713697686 4.3449286714 1.9688420427 4.5417588066 9.1664494442 1.5730821550 2.8609351178 6.2465577715 4.3532610803 0.4463080549 1.7254019080 4.9343237321 3.6001392584 3.8569227457 1.5951211766 1.1494490815 8.8058021237 1.3956783314 1.3529612020 6.7398282882 4.7374715063 3.8039170816 4.7346025675 4.7177064618 0.7637754797 0.5771054457 1.6705740908 3.1580461802 5.8336082438 1.6057666559 4.1409288415 10.0245182844 4.5861521439 1.8010218885 2.1127993685 5.8912598665 1.2881635662 3.4337740959 0.9374964149 3.7781865144 8.4303931499 2.8478018623 3.4224183457 6.6625103121 2.9626888042 1.0924378637 8.5103492681 0.4578133148 3.7178123800 7.0787141576 5.4399271116 1.1879823329 2.1226484325 3.4569278585 1.3892424900 3.9517535979 3.3190110718 3.8571083218
5.4373104305 6.2562631856 2.5263484688 3.2447572230 4.9342987267 4.6593794650 2.2252032088 1.5943679820 2.1887250349 7.3104862725 1.4018125074 0.2493033252 8.3598353219 4.7326958153 2.7670748376 1.4247995756 4.7034695419 2.0739065235 4.3474358940 1.9686934048 4.5028803546 9.1582672119 1.6042121857 2.8318945119 6.2297304755 4.3395954771 0.4445755347 1.7413276371 4.9428789030 3.5110306713 3.9445044702 1.6227241764 1.0485659449 8.8501651622 1.3460397657 1.3748548535 6.7680634414 4.6759085893 3.9494191459 4.8069537635 4.7108882902 0.7278378485 0.6214767900 1.6867614490 3.0885686322 5.7820192973 1.5955692254 4.2274302603 9.9656572235 4.6102947205 1.8931036246 2.1035891968 5.8375033781 1.1972046766 3.3472000616 0.9064158194 3.7486874252 8.4912183390 2.8207941299 3.4558354916 6.6603922645 3.0577277276 1.1290299140 8.5401428845 0.4245654256 3.6972237056 7.2307905737 5.4430532900 1.1646818068 2.1148676531 3.4808236681 1.4474119716 3.9381863050 3.3031958702 3.8742515579
5.4735841257 6.1536128002 2.4243862543 3.1527955557 4.9102023420 4.8879795995 2.3902115495 1.6918972829 2.2857199345 7.4356034052 1.3694093464 0.0922281433 8.2208400676 4.6396049567 2.6207514036 1.3546912646 4.7587513959 2.2028000641 4.3162059026 1.9291570211 4.5792817210 9.2267544921 1.6539887286 2.7518499031 6.2391295506 4.3487896740 0.3390330087 1.6341894482 4.8998374479 3.6842269228 3.9063381387 1.5918248297 1.1845257392 9.0214774258 1.5397108187 1.2393573700 6.6881573514 4.6363201760 3.7344808298 4.7143214380 4.6688604167 0.6374678176 0.6623863843 1.6791374594 3.0668341100 5.8219193100 1.6799543167 4.2497702015 9.9217200324 4.6104992978 1.9240267508 2.1471602403 5.8927377429 1.3958789078 3.3797449295 0.8011812468 3.8649709076 8.5048833140 2.8747535102 3.4995578167 6.7994234487 3.0524952187 1.0822631932 8.4798865319 0.4849859796 3.5710709205 7.1607310933 5.4843164489 1.0716343622 2.0616133801 3.5029473466 1.4787590581 3.7893573072 3.2501527827 3.8811953468
5.4234031626 6.1266851938 2.5141824200 3.1802061416 4.8332920783 4.8383858373 2.3463063061 1.6297654271 2.4504890619 7.4072184201 1.4792222860 0.0801146593 8.2348501390 4.6885840057 2.4873589557 1.3754594097 4.7631151673 2.1822157405 4.3401638573 1.8747875177 4.5568677001 9.1979816589 1.5792778363 2.7453856711 6.2634934727 4.4562194546 0.3871417209 1.5332279059 4.8827656733 3.7481683268 3.9568676191 1.5790772076 1.1589776328 9.0166533901 1.4921249847 1.1872216040 6.5937830356 4.7245599366 3.7800594565 4.8487125892 4.5776838357 0.8726230001 0.5813104518 1.6195674837 3.2234561415 5.7801029132 1.7092154290 4.0450129285 9.9763539197 4.7458968866 1.7181256724 2.1777460678 5.9109700120 1.5011104642 3.4730034425 0.6914100936 3.9330712455 8.5084045002 2.8512712123 3.3053786080 6.9002736466 3.2032051193 0.9663121497 8.3926382860 0.4500744249 3.4831455326 7.2124110092 5.5699010679 1.0524311243 2.1704138016 3.5482680036 1.6295654812 3.6732100784 3.0969467026 3.9408195893
5.4455260988 6.2537920956 2.5197394052 3.2506546573 4.9379194004 4.6554353766 2.2253288362 1.5991906728 2.1918477257 7.3061856640 1.4015507365 0.2459138134 8.3647162981 4.7232444851 2.7711952181 1.4288718993 4.7041759939 2.0854101434 4.3510295457 1.9748570716 4.5109558257 9.1587619929 1.5929401925 2.8213561079 6.2280271083 4.3274390685 0.4474688423 1.7496562628 4.9486466490 3.5384194658 3.9213183142 1.6229493428 1.0798746790 8.8235958316 1.3567240551 1.3763653759 6.7810777663 4.6855222926 3.9057161931 4.7834921405 4.7075684526 0.7367174213 0.6380974766 1.6806474990 3.1079141484 5.8052758779 1.6024924847 4.2095002605 9.9634853724 4.6031228564 1.8795138128 2.1193039973 5.8603329653 1.2100411509 3.3563404323 0.9173170926 3.7401102961 8.4656063115 2.8477499723 3.4414525116 6.6588886602 3.0491146128 1.1116257576 8.5265025068 0.4195955759 3.7094678944 7.1956923336 5.4427219426 1.1680670930 2.1259886387 3.4664700825 1.4270876359 3.9448779604 3.2942069621 3.8799730692
5.4719096401 6.1725287147 2.4438807335 3.3087751728 5.0237800368 4.8064494754 2.3273565425 1.6849923569 2.2517960426 7.2981008460 1.3127859552 0.1203467490 8.2784037209 4.6549619670 2.7222830587 1.3789781522 4.7001762910 2.1100253673 4.3270425420 1.9154822737 4.4955886595 9.1674414641 1.6151091101 2.8528412622 6.2377395534 4.4104021528 0.4122844869 1.6932768956 4.6991953050 3.5622968939 3.9845480757 1.5911189950 1.0676026068 8.8821713471 1.4904163628 1.3914591008 6.6102328730 4.8175114348 3.8632135584 4.8297000173 4.7748515544 0.9109719342 0.6292698192 1.7342608427 3.1498454638 5.7535278807 1.5714891430 4.1056865887 9.9233705568 4.6432991458 1.7909689579 2.0772425770 5.8589719205 1.3208130295 3.3754479489 0.8599434123 3.7963458409 8.4843277422 2.7794400984 3.6028960300 6.6708162257 3.0622787794 0.9770529698 8.5137332281 0.4238387101 3.6040817792 7.2816299395 5.4131915598 1.0559041122 2.1213616403 3.5220109723 1.4116400437 3.8685553315 3.2482805188 3.8819855532
5.4412112151 6.2158461654 2.4698535774 3.1792635170 4.9677614862 4.8748812652 2.3641451670 1.7216734675 2.2676982457 7.3834247278 1.3285478846 0.1202998152 8.2043512301 4.6344883506 2.6733793464 1.4031321074 4.7003299305 2.1804841936 4.3083934133 1.9396902299 4.5092496723 9.2027381738 1.6331554988 2.7805056436 6.3291209853 4.3477047097 0.3769185781 1.6891695080 4.8221613029 3.6273134318 3.9147456584 1.5706787163 1.0848150508 8.8936374399 1.6183827971 1.3340387392 6.6150631181 4.6808219990 3.8033613115 4.8830991378 4.7321183530 0.7290719208 0.6727178452 1.7144855796 3.0414400536 5.7460231558 1.5768922821 4.1544480628 9.9478779156 4.6002036659 1.8987472694 2.0440312799 5.8692985992 1.3934333044 3.4006989649 0.7950474732 3.8993434993 8.5779697874 2.8468650614 3.4947694964 6.7325296405 3.0375657619 1.0007822038 8.5779623082 0.4684137340 3.5692540761 7.2496547895 5.4610419006 1.0410913305 2.0078229195 3.4924543330 1.3901574488 3.8187246571 3.2646448648 3.9155254993