-28926.6721080177
-28926.7817555525
-28926.7258776846
-28926.868434106
-28926.8889584178
-28926.7788564531
-28927.0173632941
-28926.7277468336
-28927.0297046028
-28926.9206432009
-28926.918640444
-28926.8306954734
-28926.8122981383
-28926.9764357611
-28926.1658814335
-28926.7577817913
-28926.9662913624
-28927.0186388271
-28927.0285044453
-28926.9362935482
-28926.8287853713
-28926.8094640741
-28926.8573894191
-28926.7992705589
-28926.6270182335
-28926.921040895
-28926.891617785
-28926.8766918043
-28926.8306117984
-28926.867010271
-28927.0858676457
-28926.8065633421
-28926.9266018106
-28927.0604949481
-28926.9611146713
-28926.6953002682
-28927.0612155052
-28926.9128108162
-28927.0670493508
-28927.0451908655
-28926.7654325401
-28926.7043879134
-28926.7982206082
-28926.8717492672
-28926.9166598645
-28927.0189986974
-28927.0204961391
-28926.9504033237
-28927.2290921062
-28926.9267571875