-0.381014665824989 0.256387189377432 0.240433245398905 -0.257597664119997 0.259899057369933 -0.829218136057651 -0.919856674725231 -0.879781681798429 0.999229673605167 0.177982467447475 0.479210444107738 0.461509950654648 -0.227987569870315 -0.303539140097162 -0.31368290815545 -0.00951821898253141 0.908445353463705 1.7527885102692 0.0381705777997464 -1.47071678491938 -0.54224717616671 0.259258853013734 0.309669932415867 -1.20202970148724 0.840265646409931 0.294586820627881 -0.183048309387313 -0.47234868753816 0.105506963452584 -0.0860272675316621 0.858228392249898 -0.628730814273575 -0.184347230032903 0.601812406531946 0.0988429246138955 0.206572862710535 -0.0262913160047735 0.257078301549908 -0.182135311126725 -1.62460802819983 0.71362345456672 0.969687456443853 0.845355656706991 -0.636931600677325 -0.0937264319679642 0.861941320405671 0.0453064138246297 -0.35889496254284 -0.276286489117356 -0.177812774726554 -0.595018269940552 0.614251654305956 1.25950539739351 -0.681853891888235 0.139352433750327 0.0387426479573945 0.552026876205569 -0.96933984347615 1.05622843012157 0.291453675935252 0.990121031144494 -1.87314410102268 0.665674719389214 -0.366196634635896 -0.859950516257056 0.924623497521993 -0.428582620821157 -0.318540233736702 -0.600322453020229 0.0854670244424418 -0.331126805645693 -0.423036497059077 -0.352579565112588 1.39724086520161 -0.788412178879975
0.108102490752115 -0.283943744593795 -0.183495938216286 0.412577769026354 0.210942193164051 1.00463490098685 0.341714088770023 0.180413701339933 0.0816913614019644 0.0383662386491712 -0.524492432464963 -0.876210164243422 -0.241443688418931 0.139283271111043 -0.494538324790142 0.671781086240514 -0.145639806170609 0.231219701983481 0.533165016054908 0.0900723820441464 0.426023860277825 -1.01719884719971 1.07728138325357 0.100450634589524 -0.668858514787936 -0.191419045622166 -1.38205002424686 -0.791272015447849 -0.591983084227727 -1.69229999723605 1.00537434987377 -0.210311244774447 -2.01918397063837 1.12784030101105 -0.0194560417840658 0.959081404276149 -1.54703402927184 0.128743810480791 2.76963151697535 1.817619871407 -0.201308274599074 -0.294200641132696 0.00518848349723079 0.14031942514939 -0.219100556387571 -1.80368758479908 0.0847558576756757 0.476214339142761 -0.198342251525533 0.170352465650457 -0.0476659139759719 -0.424752707532021 -0.503597602095639 0.194930399394301 0.0343249807894352 -0.581681450516947 0.557171136751287 0.793037076855604 -1.42650514625487 0.238587965613988 -0.569550220742426 1.44931416193821 -0.34654133245984 0.113219754728596 0.0171844733153823 -0.216539996072956 0.642651788033439 0.222100775115479 0.0998963050345176 -0.48532015339142 0.908006466380961 0.569552020513708 0.102496974537713 -0.138432236404609 0.0627420837890107
0.211909184563113 -0.302404255748461 -0.342121608410415 0.129795648240314 -0.283568106616121 -0.345226728093074 -0.131027463128086 -0.574267678384011 0.19902230796013 0.161729247215688 0.0779933456368172 -0.625799758184951 1.11047945010999 0.087767132141462 -0.420544328053197 0.795812067063017 0.546701867201052 0.962018116788804 -0.109470574036989 0.0578485056719248 -0.476527242235731 -2.37031292009727 0.241101988985441 -0.438326325434366 -0.476456794045531 -0.342354550236406 -0.172741533472868 -0.542594789134414 0.202590997303121 -1.90606757420343 0.752766423079376 -0.112143748611851 -1.47632075847268 1.37035870999581 -0.279575442581012 1.84049984950091 -0.785712007735876 -0.340969497679439 2.04184051998307 0.743182383889943 -0.833130067495231 -1.09313402581991 0.517065033492316 -0.141011051542232 0.13698213497129 -1.15036572416231 0.905266443158464 1.15185079258055 -0.335335956455067 -0.151420414419778 -0.0160529313990635 0.0377165212161929 -1.16762193121881 0.530967495318989 0.686183113153169 0.488026238069733 0.893586698865664 0.23664575529 -1.22156673297902 -0.68103396751397 -0.945140633032178 2.37704175070213 -0.591714918306636 0.223967909265969 1.12789043749678 -0.28699178581578 -0.756313515166978 -0.926478547493872 0.156013430732689 -0.168084239614155 1.41824573872935 0.388863982608287 0.793203170033959 -0.8539629343104 0.570958670326064
-0.276355394646457 0.286546985198823 0.4250470986918 0.275772782971298 -0.00993885124226727 -0.440832378390139 -0.434331604517791 0.188626314812111 0.607736739373531 -0.57703906904886 -0.18725848863742 0.349048670966529 0.0135101116870906 0.203058166506019 -0.230236512642876 -1.63022460015211 -0.317572985227457 1.4807636224386 -0.0709495550575241 -0.758647047189815 -0.364182690570791 1.47258726150225 -0.456217080423033 -0.731384368912865 1.20004506798302 2.06657914759142 -0.391040677419365 0.52076356347783 -0.0854138026345168 -0.242017558347861 -0.356655789957241 -0.128328577534903 0.498828979527594 -0.657722558532631 0.41721603673151 -0.263493457731246 0.0977280948594855 -0.224815601540021 -1.38139413616948 -2.33509165320916 0.0822199799386496 0.452436532289074 0.0296185788857281 -0.0246908051142749 -0.202106087497582 1.35052934422572 -0.280694643208537 -0.499871047100155 -0.31200706398127 0.112551525362426 0.0184450845436738 0.59865792169411 0.81178092343217 -0.480331444506545 -0.386863922493076 -1.49258066356923 0.24247598580453 -0.511548220291123 1.5430295381683 0.0865042069215215 0.985381462027152 -2.53085868913963 0.713755866311074 -0.595149139023807 -1.37525820164711 0.665460032386231 1.48507818842309 0.781885951099489 0.713677447705194 0.850764997851602 -0.936882511057571 -0.800631083226972 -0.736498290456964 2.3156631222147 -0.226658567333289
-0.119216592641847 0.379072455501001 0.224490871378623 -1.39125225481422 -0.691961921631056 -0.175594428065796 -0.0921056093729918 0.112821748164983 -0.47099860196611 0.716611589116017 0.692746107689855 0.805747575872903 -0.54757321361196 -0.183257339966265 0.429272704552899 1.74037163108113 -0.549651435222868 1.08148410630837 0.887757239681685 1.05610193191143 0.952572659988122 -1.22712442669934 0.518879202945065 -1.60563201112783 -0.064052060172479 -2.38376209667094 -0.831169345238051 -0.370503744425073 0.534648284701861 -0.952420193649477 -0.569648951052779 0.0950996574565028 -0.57215320423727 -0.214720170196177 0.257273191068783 0.917385588754375 0.194095305519227 -0.29230265376022 1.4509424407285 2.12731037263753 -0.172512448299626 -0.294699177777945 1.14849961845256 0.0167867238619523 0.120896036358592 -1.49638023785675 -0.0250813554825749 -0.324743016906707 0.075607363136604 -0.124992830017902 -0.0150681993973592 -0.34588750126393 0.407869567351364 0.187431266680539 0.297422488838534 0.594290391011877 -0.23203037039115 0.656689232706299 -0.213377026599074 -0.830892951791098 -0.450481980676292 1.82962331742047 -0.341654182097334 0.14212896661884 -0.296989772400187 0.165206148223273 -0.71910324390153 0.135094946226509 -0.150515643685053 -0.718252723415463 -0.142333369214494 0.208614317565244 0.339808645202234 -1.55408553315663 0.253527609919741
0.350652781399593 -0.248929451403167 -0.250385980591066 -0.0641194230404807 -0.356806713634787 0.239652401772489 0.379714973848849 0.743959627973794 -0.540086936407358 0.219241966988337 -0.562396387004718 -0.49299437813995 -0.134579183198985 0.0977532916574403 0.616972394264712 0.838581060489522 -0.437824446356735 -1.7332779611263 -0.611896010807362 1.81350687980615 -1.11236509619367 -0.0135859591911384 -0.0454642794771222 2.27874595655811 -0.924185895990165 -1.24778271570011 1.20028649444506 0.391102383863336 -0.0233291495839808 1.28288519768358 0.321528368286 0.301626497444243 -0.34928881187765 -0.194301764996346 -0.261661804786039 -0.624929183104593 -0.186231590565668 0.121179114670309 0.341875811075264 2.06410317652708 -0.454069696172841 -1.35229543407421 -1.10882803140321 0.585284849734672 -0.038906427144101 -0.999390367469675 -0.3131491474151 1.0336405291958 0.715829202828501 0.146017243919565 -0.0545731790479791 -0.936451594390507 -1.44783346439309 0.080008832363021 0.370970142297421 0.0746691680780612 0.103246450721778 0.90830651396477 -1.38670037613063 -0.144815768033412 -1.30895642737152 2.00352518915017 -0.431421374354007 0.418930961653538 1.00347713383184 -1.11963411529346 -0.476989269234964 0.117833596966346 -0.204612654673722 -0.609695918969611 0.875493598162809 0.176805159918544 0.590249647372508 -1.0983783022269 1.09546807206312
0.0458345181409484 0.277249366753488 0.171256979274999 -1.03447253774867 -0.943351917487567 -0.183533476303035 -0.276309886144029 0.213428962856083 -0.457756141979744 0.545595522082688 0.744792150747037 0.754979627536471 -0.337525763885489 -0.170482820513345 0.288354726896991 0.630136435645198 -0.610230965260877 0.209006924815009 0.381358165029761 1.86203874087918 0.258924352665374 0.37811446295835 0.426256287883449 -1.18546769192542 -0.00358257329288473 -2.24690954523199 0.474674763365684 -0.0148152029770779 0.706573750453213 0.668843859507493 -0.787553945088411 -0.133652300988503 0.675065154610689 -0.44632502323411 0.197669137065882 -0.371269418550681 0.229163077627963 -0.149959771468947 -0.598839184373275 0.945071470392893 -0.108364228918625 -0.601937362080987 0.844873832223651 -0.0855865806776357 -0.0986560055106999 -0.131627301185521 -0.254834500981011 -0.351722359761758 0.149524226818585 -0.16365088872502 0.0614287649731606 0.121972042475337 1.20160032748128 -0.150590976968734 -0.0868651896187521 -0.362357722490348 -0.199146749288805 -0.0764799950984277 0.921048123314239 -0.385128171646208 -0.217040332489488 0.753548552256709 -0.181658371736865 -0.450850676679019 -1.15980552453896 0.779801301734001 -0.343340310678843 0.760584372420323 0.385078549380848 -0.287385678616462 -0.905159228212065 -0.236450865771125 0.222530920451993 -0.770443262395611 0.274741514026432
0.356584827546675 -0.230231627549395 0.00457090483715406 -0.162460725686928 -0.0449888827483621 -0.125827152562427 -0.0179249506430346 0.131038004645597 -0.556807325842041 0.338232816889324 -0.806421718773286 0.423040610822009 0.0628521269474257 0.561510128203184 -0.0542345649366881 -1.46213418989356 -0.889169803028255 1.85283136810815 0.018913282187304 -2.25628918182577 1.01381681984974 1.1743165661693 -0.35002671810347 -2.38891612740362 1.56380249831078 3.29345546296396 -1.56703822996651 0.333331011246375 -0.00560320222275276 -0.987626033926598 -0.746532529577203 0.662272123224578 0.336838251255579 -0.663302877949077 0.115499293612959 0.429448567918217 0.265719517697501 -0.519570829337906 -0.443437161656266 -3.41044136765626 -0.462443774840076 0.544130508258743 1.27869790123978 0.486155247266494 0.38328520585294 1.13463263783117 -0.0852014296231832 -0.356090147554174 -0.891944793235668 0.360827402679866 0.306519561340963 0.89765675306592 1.32869143370438 -0.55254958120804 0.407178969399255 0.531276541759211 -0.0364245425455495 -0.456812547607353 1.67478899398799 0.392384335236834 0.887666994007377 -2.27592031564461 1.02558501004556 -1.38065365884183 -2.06887694129879 0.690947107737916 0.551139588963302 -0.283897978981183 0.424540848741054 1.10184029084386 -1.09533386054748 -0.00264309268342579 -1.18035814125443 2.22846214669667 -0.75634488260933
0.164732551265795 -0.27748642234241 -0.0314754286288897 0.962145386329494 0.0895057112003457 -0.322187598795757 0.332768197055323 -0.428605760737646 -0.128036757476956 -0.506362565005907 0.303244748937383 0.0569429636066499 -0.322006079006409 0.354277006542158 0.18211808474445 0.422231227965255 0.594226627686441 0.805818281173286 0.829662679564425 -0.677532898149164 1.70239285747806 -0.109495256614578 -1.01215511673563 -0.87768417692378 0.404803785526737 0.090394798213895 -1.07890837649294 -0.54981727129104 -0.414425877023286 -0.895912517583006 -0.230794441740447 0.289542575943433 0.431037765960654 0.18230217563563 -0.403189133576162 1.02963115299878 0.588581002283458 0.563881712533137 -0.0842966588884579 -1.83329767904876 0.675647509175665 1.14695412914126 -0.406992821626609 0.131703920020118 0.539231787937993 0.508777600956824 -0.284104181348119 -0.560666035471697 0.175735581556379 0.307683756250549 -0.453089077934068 -0.0403637276625501 0.43725109064817 -0.136721425245512 -0.514791922362533 -0.0616884462582053 -1.09214852248766 -0.29767908480138 0.10100496414453 0.463595885571052 0.554113068232156 -1.01867748786337 0.551977511050392 0.00598938171793812 0.354863217759883 -0.592500647026534 -0.0547223029542424 0.45699072496432 -0.239340270010068 0.421791569551962 -0.853954449674354 0.36794164144936 -0.687311055526923 0.681600895467954 -0.78467431103643
0.193674930369674 -0.396018844786728 -0.39124430868447 0.389643283573605 -0.214666948388252 -0.257286817908493 -0.185985279010151 -0.58547356860915 0.266615546685997 0.221336129430604 0.168443422540103 -0.619261189115671 1.32828031452142 0.0316114399158091 -0.407195424450981 -0.0156901489305505 0.345794941597974 0.239319701195411 -0.169867041624551 0.300766978101763 -0.63459112667954 -1.48644627170796 0.86638135615957 -0.175895504090338 -1.48396567266033 -0.599380401308938 0.366651462549999 -0.301649380250549 0.0847887677791269 -0.972519525111941 0.596155725391085 -0.000504964399829597 -0.773749699351725 0.953526795878024 -0.476232593965769 0.759503224099914 -0.378222963455666 -0.148244589436736 1.32764782347072 1.05511025793478 -0.77603180933792 -0.777407348818108 0.670259765286445 -0.120355590753479 0.200245895322039 -0.875248057937841 0.816667816684493 0.861005953559144 -0.43794811635486 -0.035481976613892 0.0258341740990214 0.307894072380417 -0.774630044619045 0.213487326867672 0.421416445794654 0.673005959153339 0.411696652428484 -0.0343208670265038 -0.924770307436608 -0.282934072904319 -0.85184768883311 2.5269675836269 -0.621354066007021 -0.344594751262737 0.187330222378536 0.149422411186033 -0.463189651481576 -0.754692178351639 0.127079793375039 0.0953724513608914 1.169818423514 0.417766252523585 0.796305461504602 -1.36509309344362 0.547162865759553
0.235357633272105 -0.180879327881731 -0.240367682302186 -0.122201641868946 -0.398255446270495 -0.413994703246039 -0.0642826880068207 -0.456850857024652 0.00523476333020906 0.100134131953989 0.0843437100519858 -0.370094939233765 0.642070719019379 0.157726812993617 -0.310058940123068 0.764174144798337 0.602730546996198 0.983729786210194 -0.0429140035698362 -0.403027668381104 -0.118547591945128 -1.41588212481508 -0.315952419742667 -0.122437926127318 0.57224602101341 0.415731739643823 -0.675044328685849 -0.406368300991586 0.358046241828055 -1.60651775570899 0.515573280209317 -0.216459263475427 -1.22318344181106 1.0781509298932 -0.0555720521097602 1.53806962562394 -0.738514034293351 -0.456910249476974 1.53230367265522 -0.399923062918812 -0.575200988349073 -1.05243836891084 -0.34847968613108 -0.204738381553313 -0.0720368740223303 -0.618958056209663 0.710346328171492 1.0845023227491 0.0011811641816788 -0.226377803013221 0.00926033746876915 -0.0242596313370273 -0.996557784581222 0.550375457498794 0.634240171279455 -0.0375619979960821 1.04620473251885 0.170739930696558 -0.835835123732811 -0.730509937179759 -0.443353857956905 0.689286433064546 -0.159941303001628 0.431847663037774 1.41021978725018 -0.349942900183743 -0.719787928319426 -0.575467611609064 0.330457033618424 -0.175403652309852 1.01703172558063 0.155962265806229 0.374613136483361 0.49018364961707 0.209016695001971
0.186403854388421 -0.37085881358809 -0.176555248820461 1.00340745697219 0.022383755440308 -0.27454533895664 0.268424573935081 -0.481468642846895 -0.135607881042018 -0.342721189357667 0.291549578033591 -0.0321104907814248 0.197976126624638 0.262345460763201 0.0470141396615279 -1.3165977420166 0.190503733369929 -0.313407800259412 0.3859262416549 -0.694434293152829 1.34299395897613 1.58668067663341 -0.659989499018016 -0.0118486656831706 -0.685841413719679 1.37005583419999 -0.594331014420825 0.0954968926895663 -0.240230128354167 0.981916645198179 -0.433728166917791 0.273875824039555 1.49458123790481 -0.233801088222936 -0.546521118742254 -1.02126890139997 1.07059497582895 0.403621335794142 -1.74974818235272 -2.4068220518931 0.64771942974456 1.105235173703 -0.648014592234888 0.0318150711809135 0.369022532659586 1.53364064560792 -0.208370062891192 -0.58362803171405 0.000320616398466144 0.290640436425751 -0.159747956143852 0.654977393106469 1.05744533261872 -0.703239288487128 -0.88408262094321 -0.323743886734743 -1.26982451459675 -0.961191507549775 1.12411657422759 1.03652941921437 1.13612516244471 -2.48188639832276 1.20100434607659 -0.641863745321893 -0.591538026500586 0.16324439752536 0.371586949626948 0.63905764478231 0.131583849564558 0.822931020747552 -1.09812607713717 0.0742896734476393 -0.759828211371494 1.09203667955796 -0.921552316383518
-0.280622652357237 0.357281853253364 -0.057898385047468 0.229414017166779 0.834589682005329 0.974001765318161 0.228898254139254 0.0330368587715399 -0.295970073413565 -0.315198058465122 -0.0781021032443161 -0.349805089125541 0.310779362856429 -0.37975585436798 0.00897288828393743 0.37590717203547 -0.15510763155723 -2.39270156063106 -0.296288375820383 0.00341185213123155 -0.0100072425510018 -0.605574699842896 0.832656470537753 1.16279905840211 -0.918773212413173 -0.735788409241114 0.504057572213406 -0.0657574720177283 0.0353518788611864 0.595384394841447 -0.184253641926214 -0.207016120666394 -0.270377582886764 0.254451921028391 0.255487046626005 -0.472503467868454 0.0865075493539033 -0.344998671360564 0.741720455388195 2.24066099644938 -0.134494336838525 -0.559779519559979 -0.775444055459096 -0.391788610942331 -0.566078204828322 -0.91803504907717 0.477668811449195 -0.0886870723769967 -0.00737854803783594 -0.469456455087201 0.676860555020062 -0.206166371510876 -0.949966334060895 0.705753311858581 0.0598459946853036 1.02823504470393 0.202734721895537 0.333594806294351 -1.12880343575737 -0.1082053348254 -0.549699257716945 2.22323586800251 -0.839291455925738 0.935006892271035 1.19628071779061 0.32661195082848 -0.11392835039353 -1.10449135394297 0.063750984147937 -0.844891572826292 0.993214580868908 -0.0744215709716274 1.02694409447402 -2.19068160504486 0.12307915892425
-0.444517538646126 0.435785562603858 0.3579505968399 -1.19148381310241 0.0346823639441007 0.0382906482553067 0.254338792547777 -0.148900991734478 -0.0865029213706055 0.437309711769943 0.205499941915989 0.610014478486612 -0.714019918469234 0.17535068761211 0.102721174617475 0.803906924071284 0.11933846286869 0.50113191543863 0.46882576380778 -1.92818804881613 1.22384652897356 -0.420127295336026 0.156028857343681 -0.0195221191011515 0.354500949511736 0.426271457384258 -1.39144688722291 -0.103299158309337 0.0306537044833421 -1.10383700852669 -0.108968437849175 0.476407428890354 -0.933005803715091 -0.236738829176323 0.239574497386975 0.695209737465398 0.51786001817881 -0.437482232702879 1.63372155575399 0.991296538902142 0.0116972277852584 0.353555555368064 -0.727717720590069 0.0560232804812983 -0.0173076290931411 -0.92403497231262 0.12643161860316 -0.169316825832476 0.485651311307398 0.0150885111018329 0.24192062780879 -0.702434790723856 -1.03834898798097 0.323672924324176 0.375399379423625 1.41601685055108 -0.278596109893155 1.07213043784309 -1.24033063414988 -0.704025017207026 0.245828702593622 0.0646133317024322 0.241641663260005 0.924467431640783 1.05852673804931 -0.806512735778144 -0.442822668318388 -0.726353751068126 -0.85154841257985 -0.631749544934674 0.657742870237104 0.427752669149746 -0.283601016719572 -0.1861284893822 -0.389808091201044
-0.383737719775394 0.275362178008707 0.259306932617995 -0.241025627261027 0.321243490203 -0.961941497954207 -1.12629866835251 -0.953889321236354 1.14315866861668 0.181181432347006 0.426866924568579 0.557034354133818 -0.291001676233165 -0.260283437093836 -0.284128863925708 -0.398291955916511 0.856242730304947 2.87363001498303 0.429274504324182 -2.93067762243425 0.140064371847643 0.545896083886864 0.331718416177266 -2.31631823896152 1.98912521911898 1.66555153932553 -1.22039945274723 -0.455361417733301 0.0215260358691107 -0.340650938162439 0.944807932455101 -0.675326892777199 -0.244310466961752 0.60484913490587 0.170900881671249 0.409677051939349 0.130608116419266 0.288275794070744 -0.347419106625328 -3.78269114733553 0.793083613798765 1.32180602299794 1.52298240007303 -0.675000105734336 -0.10806366711445 1.25950925404626 0.0258552571340449 -0.361586134830527 -0.550039671599519 -0.193691899641766 -0.61385904705619 1.1035014797376 2.01824551846965 -1.13923413878012 0.175093577428897 0.0145022998841082 0.687267861016143 -1.43619511483979 1.91679138283504 0.635854566119847 1.94256179360863 -3.43559599954105 1.48478302593276 -0.860609232546447 -1.70386121373439 1.36440712347481 -0.483143715690525 -0.296099656945905 -0.705367646583762 0.336435873818851 -0.957508404175255 -0.706150804201828 -1.15743085488681 2.95576823388342 -1.52756050399531
0.0234253087925023 -0.0765157334138942 0.221432031528943 0.185878578284117 0.0270623894442281 -0.539911330152224 -0.376886504723327 -0.151220382697239 0.450579682545913 -0.309893361165079 0.297617635467592 0.188339122737462 -0.392950491860269 0.296784855584166 0.0708392547889259 2.41573709038582 0.12728239619941 0.333712048537896 0.305248922815526 0.522890893133731 -0.0611132907783587 -2.01763436756415 -0.48827409228635 -0.321571819906963 0.337734023133891 -1.28573192163211 0.0400215140086941 -0.718863617210776 -0.363483350872453 -1.27493972169176 0.626662105739446 0.1028800687107 -1.27318880134408 0.131220038655312 -0.145712311242275 1.7146295024277 -0.898222909689354 0.729526747839153 2.03564493589819 2.24025527658027 0.0630732417049885 0.675950642081673 0.426167841980424 0.225917832895453 0.647354590394581 -1.50618796290558 -0.344833606622942 -0.325264179248079 0.424270111718131 0.297392149836914 -0.872945893357355 -1.01481800690317 -0.556265851796196 0.504501344389631 0.703482771830631 0.742678447930846 0.0290141128449952 0.838800632585985 -1.3699301073204 -0.565028423950265 -0.796209816516447 1.76135079359055 -0.840991725567323 0.530800116589718 0.787898472733916 -1.08792523061821 -0.829451334993824 -0.189003238340701 -0.872733520346021 -0.488359967087543 0.471109159344892 0.742333920285341 0.159795264417563 -1.48249500241235 0.381260720270323
-0.157962068811257 0.237441511307043 -0.186479959002652 0.193830224920334 0.802897766602174 0.926028861783434 0.0674042627412052 0.0835528391284238 -0.307083403972748 -0.229215785215522 -0.00110505956744787 -0.278156965700228 0.327369140318041 -0.47070652479798 0.187333050590551 -0.0376874677654899 -0.289864735002998 -2.35273995329506 -0.720457443236511 -0.573479121452098 -0.370452322388431 0.747660214840774 1.21479342231247 1.62624144919378 -0.636827213942941 -0.366264768834447 1.18885794680126 0.0939634875568862 -0.0116231800524932 1.41797011661294 -0.251748664562093 -0.264988553446627 0.861434042014193 0.00905464932219904 0.114531530883347 -1.78841729679771 0.442487139529296 -0.0797131556523265 -0.800561406367321 1.23573144719257 0.19073667519592 -0.419841131702111 -0.709465211573622 -0.403495608914551 -0.780692445629016 -0.0893997818048621 0.328961423682677 -0.064162103330894 -0.0825148853187944 -0.52672826261818 0.707303172042987 0.221157437853272 -0.106356455497918 0.148858311444064 0.0254929888858983 1.14629824106389 0.118967195764131 -0.213955010290936 -0.165249856954419 0.333688908621407 0.0262584059013223 0.992025703381733 -0.302181341219616 0.204263241934736 0.129949400129875 0.777607380540647 -0.428381303547701 -0.831330296212742 -0.15596715089971 -0.636056654723852 0.207062400499372 -0.231736236341555 0.598999106907233 -1.35734533518269 -0.255818718762349
-0.361027948622772 0.440466510599427 0.255962443354765 0.345493865573432 0.354643902773603 0.297540245302445 0.238017181007256 0.075586794321947 0.0207462206834268 -0.572388974275276 -0.168938102532604 -0.0655661820414181 0.104835391654032 -0.0264792635487019 -0.154674915118884 0.124016839762427 0.245190040898522 0.670739275778136 0.64778267884963 0.318095690229928 0.669701836188873 -2.07546230442142 -0.286725676776155 -1.03242954023286 0.191321343752546 -0.0772109593493012 -0.945122635319353 -0.0629580563429093 -0.088618423958079 -1.72903050089963 -0.265244635189107 -0.13747912895544 -0.974591061858085 0.223491226986293 0.52957498656671 1.51734114554316 -0.250989675301249 -0.56258304899773 1.31328230620408 0.453676574702709 -0.33083524269793 -0.183291021400266 0.574726877171229 -0.203242000287016 -0.0351708732922047 -0.625330274990405 0.349158199904578 -0.212205118383991 -0.428385160200449 -0.230050621980413 0.350570763251148 -0.159529669598304 -0.887461305860807 0.679327270117804 -0.480249940578467 -0.641991014862583 0.0622965118415032 0.392932494147444 -0.762475417817851 -0.406951683997295 -0.295413172756727 1.13555514916853 -0.722683246092583 0.96707495987223 1.14237551099861 0.00596752735236505 1.03768487237773 -0.293550666589535 0.63178682591124 -0.13084851444057 0.565071875571228 -0.316743547776413 0.406773763750512 -0.458077272598576 0.303197440663672
0.249124340922042 -0.170429855815604 0.0434184537492993 -0.0128259414895618 -0.0232666718094602 -0.0782861941354964 0.174671402508062 -0.00473288425257802 -0.628240762264372 0.233986207554849 -0.61769975897302 0.445799232909441 0.0469830293293592 0.496115181543785 -0.116696398625997 -0.94941611826882 -0.298749434494094 1.41222241846723 0.597819485386654 -1.52749159846621 1.33919541312934 -0.00107909143894339 -0.593122339449542 -1.87772220494497 0.725333280750956 2.25562686599382 -1.16947903807216 0.0377458317770792 0.0750867150155985 -1.34967162465453 -0.821209668070944 0.608222677619803 -0.0446644096971477 -0.373838720611524 0.114665742398984 0.807003559117897 0.193889617372657 -0.540460003283199 -0.0780735640139795 -2.18649765103344 -0.514308040997727 0.385186535657797 1.15878299734033 0.314251378770533 0.477372363407951 0.60984067200276 0.0517143709208379 -0.49439254331626 -0.749365883796206 0.325038436507218 0.285897781986211 0.452293321917025 0.738397306270172 -0.0102903208627189 0.127098562418413 0.315432028731845 -0.26698552823964 -0.104920495124676 0.877043201237031 0.0617987465268035 0.397331135161845 -1.36158353944277 0.557503323107998 -0.648491531624748 -0.988343628447945 0.162201301512067 0.653131856211369 -0.233559404650716 0.521236131994575 0.948645044829366 -0.797016885381552 0.206114178143684 -0.759031426913718 1.49917014045479 -0.590446850883032
-0.347314719890944 0.207308454944707 0.193818912072273 -0.289420962826773 0.133751802629407 -0.516212456124783 -0.408200468157159 -0.696225322689088 0.578492255804377 0.153461097943937 0.524773453895214 0.261746136926133 -0.109695031226934 -0.334919437958263 -0.355543531304664 0.397798047254559 0.867757666970307 -0.669504889788533 -0.0134278364284626 0.746500905024668 -1.15620855307582 -0.0896646052935711 0.241569672408705 0.977427501399286 -0.792238749736728 -1.72463443098706 1.03506363405988 -0.433697827916172 0.281549791677902 0.641193716184441 0.605460285811367 -0.482388325972246 -0.124446985098942 0.53363655613092 -0.0558157925634457 -0.353610834057454 -0.323382904037512 0.167279998961066 0.196938429925192 1.39124582705964 0.527573383790399 0.464515825806587 -0.498832579070159 -0.521584259182645 -0.0267394590541131 -0.0454280269412892 0.0824313245092503 -0.351058244158519 0.31304270379925 -0.12793545606477 -0.49563695660301 -0.231112487037081 -0.0384328301866233 0.170229566982881 -0.0199440369118034 -0.0327931183178544 0.16582938330738 -0.090508440914875 -0.457433211589629 -0.295016965964396 -0.391986328673221 0.489021511588949 -0.496781868248855 0.475302112212723 0.587329647021762 0.119399655092295 -0.206804261875427 -0.247261577644666 -0.27016520987543 -0.312337964787064 0.739086361561182 0.128256586683603 0.734050858622963 -0.876510726047598 0.178014863330559
-0.594214029287463 0.294151790197886 0.451141982516599 -0.411961475917193 0.202497409196432 0.221218372966693 -0.00485861113216899 -0.0453017858413318 0.542541567326489 0.173117428560725 -0.127123759216368 0.376262755418853 -0.198124993420718 0.329623482404449 -0.532583175710297 -1.83295726516618 0.327255240506878 -1.05410881377117 -1.35701006350378 -0.914806259396386 -1.29827555614051 1.59076615744465 -0.494562236037181 1.04002483215515 0.741707085658668 1.61447454454887 1.88574172866955 0.768413377499147 -0.147907517986544 1.55900147985965 0.0143464911130813 0.302180312778883 1.44657259605462 -0.564579766680559 -0.115075318920841 -1.4292415699348 1.21839990685239 -0.0468645015348982 -2.88832874704711 -2.22645463038615 0.4933489330826 0.684281012017762 -0.697377690530247 0.10379718073422 -0.357243543836065 2.14048469842534 -0.369322066023028 -0.117577258113683 -0.178852528307466 0.182412475904228 0.619467134372424 0.128090750615431 -0.459211128506544 -0.474329978609996 -0.652969876795945 0.124448270649858 -0.464669834806331 -0.167595473155868 0.537594510291295 0.557152367707913 0.948342683253908 -1.88337425810253 0.649192928204552 0.289119629692048 0.222376397231883 -0.530136772317029 0.986863702233373 -0.419892553738753 -0.661666885853295 0.478924794694189 -0.282086380630267 -0.122606847517689 -0.591621330199947 0.571367475517372 -0.10182925939191