5.0172627530 6.1101757323 2.3774358624 2.9141773722 4.7683261064 4.5837257024 2.1893045327 1.7350687870 2.2558030127 7.4259418082 1.6765459356 4.9114292280 7.9520734064 4.4499149833 2.5008080218 1.0690089224 4.6782348081 1.9932742695 4.1843552757 1.8518387656 4.3768221164 9.1021374137 1.4992264238 2.7580761124 5.9382062476 4.3511670339 0.3792428346 1.1964248414 4.6761702097 3.5254371821 3.8376299960 1.5781713656 1.1544140930 8.9426053925 1.5209721969 1.2441402703 6.2635662337 4.6052604346 3.6165233243 4.4601114143 4.4116375297 0.7720534237 0.5004249215 1.5343866011 3.2046602961 5.6819859195 1.7580475009 3.9703679897 9.6201063020 4.6521784014 1.5616600237 1.7637113772 5.8857439696 1.3385694519 3.4789221794 0.5853867587 3.7527472942 8.3419036978 2.7156563894 3.4326584171 6.6989762284 3.1967638096 1.1022500034 8.3643449042 0.3165444146 3.4203318310 6.6343101408 5.6413707770 1.0079340969 1.7662107987 3.4642828506 1.2686564397 3.4181844327 3.0136029078 3.6640075127
5.0091709314 6.1036394554 2.3475011022 2.7652604385 4.6997473607 4.6452034393 2.3375379162 1.6484933207 2.3386575066 7.5734745712 1.7252337398 4.8724888431 7.8114101673 4.5371362695 2.3971099184 0.9987677985 4.6443443010 2.1115307424 4.2734623725 1.8508888622 4.4323818256 9.1195988973 1.5639841416 2.6608115135 5.8814073855 4.3292899750 0.3243643594 1.1479834019 4.6373850112 3.6271458069 3.9244349953 1.6345315719 1.1605730872 8.9870643861 1.5818242713 1.1343467131 6.2232275058 4.5652666014 3.5776779073 4.4129121792 4.4736680632 0.7146656786 0.5484284202 1.6019476954 3.1140646999 5.7110301811 1.7342775078 4.0414930576 9.6121539896 4.6092306435 1.6607322463 1.7681204344 5.8420509357 1.4014316854 3.4924355210 0.6088513310 3.7393119661 8.4299231715 2.7966659302 3.3572205277 6.6168068469 3.1645681344 1.0968458021 8.3273160869 0.3765164866 3.3258167957 6.6295452915 5.5845634356 0.9893629099 1.6638246101 3.3790156798 1.4323670553 3.5038784854 3.0268135171 3.6584998121
5.0116084333 6.1115373252 2.3749140695 2.8762215523 4.7432756117 4.5406009304 2.1806905105 1.7047767981 2.2360215993 7.4491394265 1.7001554953 4.9717654733 7.9325889405 4.4836788352 2.5284909606 1.0538052916 4.6789025138 2.0462367908 4.2075568320 1.8690605103 4.4244547136 9.0817170389 1.5040990941 2.6964856964 5.9526746124 4.3309698758 0.3543563310 1.3031633005 4.6912349192 3.5292664694 3.8089199238 1.6499305635 1.1482399494 8.8436233992 1.5083957539 1.1700248614 6.3434707534 4.5466722516 3.5866238326 4.4627204382 4.3446509555 0.7156676415 0.5059212640 1.6020269014 3.1202093901 5.6687315882 1.8346090413 4.0079978599 9.6425194116 4.5744174648 1.6526403488 1.7980320461 5.9247385605 1.2742048543 3.4977842198 0.5929769557 3.7585603507 8.3183724022 2.7411668349 3.3519387824 6.6925066995 3.1670144066 1.1789176778 8.3582788322 0.2713566628 3.4606815876 6.6211179389 5.6125637494 0.9932679138 1.8122521186 3.4351293929 1.3753717023 3.4457573123 3.0452807760 3.6014346465
5.0004254062 6.1109724219 2.3774660643 2.8740740870 4.7339014761 4.5390669732 2.1941766201 1.6735391320 2.2423576720 7.4520114220 1.7091374856 4.9892615953 7.9159423620 4.5173250161 2.5214630611 1.0465289805 4.6780699165 2.0135820086 4.1848152792 1.8643192655 4.3772210693 9.0737439610 1.5101561687 2.6952151639 5.9517509241 4.3239659562 0.3710021868 1.3182695117 4.7264179013 3.5402431762 3.8445327078 1.6996579029 1.1602040914 8.8506516281 1.4675354962 1.1957612829 6.3374454292 4.5049297613 3.6372574846 4.4433964750 4.3663084577 0.6696504023 0.4985672749 1.6344076902 3.0016222289 5.7150475434 1.8370202160 4.0590853181 9.5966876352 4.5429224701 1.7415676215 1.7493674649 5.8410786231 1.3054476725 3.4603498044 0.5999733297 3.7629851500 8.3301373876 2.7076983370 3.3414034744 6.7114033163 3.1905672724 1.1329727060 8.4114490373 0.3337431229 3.4119628865 6.6910145600 5.6008280721 0.9853818308 1.8210140409 3.4766365367 1.4235312985 3.4437454953 3.0188373064 3.6238970187
5.0027919765 6.0913165333 2.3992682657 2.8903698984 4.6997279678 4.6659439039 2.2516123505 1.5918715995 2.3947390804 7.4650673605 1.7393894725 4.8529519745 7.8741942595 4.5910854569 2.3651541468 0.9773104140 4.6071100378 2.0908581594 4.2352067117 1.8019992399 4.3940545823 9.1474319280 1.5957239015 2.6402257317 5.8842312441 4.3914389166 0.3515138930 1.1422346980 4.6348117834 3.6252388272 3.9248652679 1.6341516425 1.1340908782 8.9838542456 1.5720306383 1.1126411297 6.1609304067 4.5439443490 3.6211960870 4.4365974408 4.4853345533 0.9294698305 0.5506043474 1.5688482846 3.1721195700 5.6699421415 1.6933375688 3.8160604652 9.6038658107 4.6444759692 1.5926249634 1.8361339874 5.8604020295 1.4958703923 3.3832422366 0.5418448613 3.8226034934 8.3233253460 2.7887504740 3.2647374597 6.7219524752 3.2076874074 1.0096618806 8.3378273175 0.3508355783 3.2798118992 6.7509410355 5.6317912409 0.9130975646 1.8674596019 3.4324504699 1.4827466460 3.3932016705 2.9891410249 3.6983015549
5.0017897635 6.0877876838 2.3997812599 2.9034938686 4.7051497970 4.6830172990 2.2331554478 1.5902678722 2.3878165657 7.4473171435 1.7375196313 4.8363944160 7.8861084329 4.5949707090 2.3733676753 1.0204964235 4.6121567852 2.1084243414 4.1802423571 1.7768859236 4.4079938179 9.1310760943 1.5968813064 2.6233092557 5.9239967739 4.4120478326 0.3445420943 1.1625662658 4.6179022841 3.6456330416 3.9315703717 1.6058840119 1.2000683558 8.9880901325 1.5771486629 1.0943864076 6.1707344136 4.5774406102 3.5601222100 4.4681853859 4.5034522563 0.9114926120 0.5113351210 1.5752919563 3.1216435750 5.6810253931 1.6794230104 3.8304726491 9.5879254505 4.6172360335 1.6032363268 1.8528907963 5.8801776625 1.4441625844 3.3612975251 0.5310804912 3.8127521036 8.3140847257 2.8082879731 3.2851937551 6.7511928352 3.2174296360 1.0141043940 8.3313221098 0.3401156160 3.3473735771 6.7633069892 5.6579126866 0.9202339564 1.8555549328 3.4092453888 1.4614831669 3.3738028424 2.9632280987 3.6961238129
4.9932091541 6.0905858352 2.3616090945 2.9062967620 4.6962615821 4.7540837622 2.2083326706 1.6448706602 2.3029966964 7.4298869570 1.7321188381 4.7690337584 7.9377632025 4.5851735193 2.4380508161 1.0737780618 4.5763997729 2.1062835550 4.1062149222 1.7286072095 4.5109593482 9.0396983425 1.5963862542 2.6189683054 6.0474596899 4.4732110461 0.2717477444 1.3714128431 4.6569020907 3.5797943805 3.7656153989 1.5159067586 1.2372782657 8.7363364683 1.5142790693 1.1450778738 6.3959743591 4.6868755957 3.5458145147 4.5538624353 4.5281634876 0.5688963878 0.4748801983 1.6170041807 2.9462009124 5.5675342127 1.6436447052 4.1528835916 9.6625912014 4.5842676917 1.8311404406 1.7602481654 5.7295849601 1.3992618728 3.4107793743 0.5192090866 3.8001870963 8.3284828163 2.8080048924 3.3008401216 6.8030150944 3.3147392198 0.9263562501 8.3448875673 0.4430117131 3.3221742125 6.7463616703 5.6821428573 0.9826340048 1.7745947548 3.3634978004 1.4199303093 3.3560862684 2.8887231667 3.8563524705
5.0149188260 6.1111710880 2.3744833104 2.8838726564 4.7478370550 4.5493933056 2.1821039215 1.7141032722 2.2375523794 7.4439661877 1.6957288992 4.9582276782 7.9362080699 4.4732620719 2.5256152507 1.0659728294 4.6871253832 2.0238589963 4.1923571301 1.8818547124 4.4195545324 9.0720967794 1.4948036530 2.7095291218 5.9682084248 4.3235582068 0.3494814881 1.2718957104 4.6868456708 3.5366885259 3.8117162841 1.6283229777 1.1374089949 8.8705324790 1.5150039154 1.1916460697 6.3216397819 4.5646234385 3.6098892528 4.4576827896 4.3545496926 0.7363300855 0.5017382993 1.5848912113 3.1564943978 5.6653732388 1.8184944050 3.9895855827 9.6724031614 4.5936607870 1.6225439437 1.7770825378 5.8976128246 1.2965138137 3.5092805656 0.6021333186 3.7600580454 8.3250125914 2.7314283496 3.3658434770 6.6744292441 3.1924298461 1.1614508069 8.3678642460 0.2963352902 3.4483268047 6.6043423509 5.6125030464 0.9963384680 1.7943946892 3.4484314184 1.3494846771 3.4612341074 3.0104163706 3.6253164054
5.0114327907 6.1107053373 2.3887175137 2.8919812602 4.8152452017 4.6421941453 2.2455321260 1.7456249258 2.2955752763 7.4635347279 1.6263620688 4.8704045410 7.9010031647 4.4438392203 2.4466380559 0.9657559146 4.6820101910 1.9936960667 4.1438450859 1.7562938188 4.3735109985 9.1779240713 1.5050812101 2.7688547110 5.9549249898 4.4322704419 0.3778901114 1.2206502193 4.5977670537 3.4794120581 3.8894400568 1.6010875958 1.1434686739 8.9100638413 1.5632298956 1.2721146574 6.2136808351 4.6077016989 3.5999396384 4.5214766844 4.6049047822 0.8697218436 0.5720720116 1.5210897822 3.1836762111 5.6134648392 1.6123596803 3.9159563767 9.5237989250 4.6900741068 1.5504035068 1.7331276698 5.8307731480 1.3143640706 3.3430494944 0.5590472524 3.6904994573 8.5246486146 2.7628557152 3.4586928437 6.7452732498 3.2562010967 0.9952562267 8.4069136449 0.3547402082 3.4458448201 6.7784700586 5.6351226926 1.0397048146 1.6262508478 3.4275970299 1.3252738710 3.3829034599 2.9359348711 3.7125854045
5.0012189482 6.0849828317 2.3935656414 2.9082964685 4.7085152245 4.7007251172 2.2233712188 1.5966749753 2.3722810678 7.4362426341 1.7347178385 4.8159082054 7.8904382868 4.5964555986 2.3906217326 1.0770819718 4.6431078738 2.1199142048 4.1504264587 1.7697755305 4.4292135013 9.0663218676 1.5684128126 2.6188271956 5.9743425018 4.4160667364 0.3230236606 1.1906221177 4.6065622513 3.6299912854 3.9407676904 1.5730494527 1.1797094889 8.9753474076 1.5772501033 1.1023528566 6.1891122168 4.6181671004 3.5587115222 4.5424745599 4.5202452891 0.8398580701 0.4728972428 1.5922323104 3.0787899495 5.5931628506 1.6720468095 3.9252221424 9.6646599163 4.5874979431 1.6290525064 1.7977583882 5.7948602599 1.4165023167 3.3715472676 0.5346269266 3.8111994345 8.3351112430 2.8007529416 3.3011862277 6.7468679080 3.2671154959 0.9970754154 8.3706581781 0.4143026384 3.3663220159 6.7426520342 5.6658430665 0.9341671654 1.7984673737 3.4115814268 1.4407160732 3.3905986852 2.9008175856 3.7372683826
5.0033312460 6.0924517393 2.3959641517 2.8795856262 4.6968969352 4.6577824941 2.2643237827 1.5951890521 2.3946845315 7.4764730234 1.7395642186 4.8597331412 7.8649874197 4.5880076014 2.3644345966 0.9803799499 4.6185790109 2.0890538101 4.2540489198 1.8209734469 4.3802076908 9.1445624363 1.5805619854 2.6508479655 5.8710606364 4.3755450574 0.3638737399 1.1331104263 4.6414322937 3.6059637519 3.9273256728 1.6445674388 1.0981579131 8.9822000035 1.5700003537 1.1291692845 6.1566507284 4.5329504211 3.6381868780 4.4440847910 4.4780765058 0.9175200302 0.5475798279 1.5716936470 3.1922652417 5.6458699098 1.7016561987 3.8338849467 9.6205501041 4.6525453099 1.5829147385 1.8020595387 5.8166085454 1.5211655564 3.4095952421 0.5588124722 3.8287252479 8.3377037373 2.7783119588 3.2594674948 6.6947190502 3.2169114000 1.0042653204 8.3566829499 0.3830902462 3.2399071276 6.7291426938 5.6137557178 0.9134146784 1.8510785173 3.4481022195 1.4890634527 3.4220813334 2.9793132129 3.7142763053
5.0058941282 6.0971219962 2.3686930480 2.8120249493 4.6904032236 4.6348558262 2.3152925826 1.6199863841 2.3717422162 7.5348255733 1.7375607245 4.8762228979 7.8300338965 4.5640906074 2.3771176550 0.9953222835 4.6240681884 2.1248958710 4.2429288684 1.8455761719 4.3793618778 9.1607780520 1.5735197648 2.6479203854 5.8771590826 4.3401446774 0.3527644287 1.1454771934 4.6400861702 3.6775225280 3.9282065616 1.6496977678 1.1624120080 8.9720306053 1.5766050466 1.1156001808 6.1724926170 4.5413894870 3.5857647358 4.3868307632 4.4751532665 0.8309371346 0.5309696706 1.6028694918 3.1918713748 5.7640820449 1.7203388168 3.9210540403 9.5922425759 4.6364048099 1.5689861573 1.7989452211 5.8866081964 1.4445231371 3.4829338108 0.5756275306 3.7890541391 8.3832585849 2.8164470818 3.3139842087 6.6538401544 3.1389548877 1.0704328298 8.3078220427 0.3197336249 3.2592162215 6.6448984957 5.6123526000 0.9614238658 1.7570495273 3.3794701632 1.4467497478 3.4613138419 3.0598746059 3.6857030304
5.0162130446 6.1098798229 2.3796482562 2.9220552303 4.7772226327 4.5944138217 2.1909224893 1.7392579181 2.2650559959 7.4235200668 1.6682420714 4.8981056133 7.9577807322 4.4456886660 2.4891575763 1.0353143202 4.6618233976 2.0055034128 4.1974958408 1.8214327824 4.3764741549 9.1279063490 1.5121962256 2.7656695299 5.9180851333 4.3791497571 0.3902687024 1.1893233801 4.6685217353 3.5049812241 3.8519580393 1.5712402060 1.1426925301 8.9496179880 1.5231415719 1.2443270490 6.2527841970 4.6113429743 3.6058155512 4.4538959412 4.4362300255 0.7836082858 0.5293249133 1.5246853909 3.2061074988 5.6758001378 1.7390739790 3.9733792822 9.5858188866 4.6660695158 1.5596676784 1.7900380130 5.9251601635 1.3286988518 3.4491825950 0.5661398091 3.7438209030 8.3453849866 2.7276060789 3.4583578237 6.7289831385 3.1760269558 1.0873129402 8.3403680949 0.2855676491 3.4295413074 6.6639331339 5.6506183573 1.0109595257 1.7661391104 3.4499270653 1.2493804651 3.3826192463 3.0446649692 3.6631021162
5.0105142495 6.1102348830 2.3888888450 2.9066942576 4.8140832410 4.6360454416 2.2324885182 1.7452818189 2.2954906282 7.4520974287 1.6296580662 4.8699677051 7.9206800153 4.4430853513 2.4487737370 0.9688048900 4.6945702034 1.9681224179 4.1307634215 1.7748154368 4.3553400990 9.1683170827 1.4943509695 2.7798278478 5.9583318107 4.4236810065 0.3817240643 1.2116355264 4.6048036867 3.4843103908 3.9021490180 1.5964690602 1.1344190899 8.9264412897 1.5560589348 1.2839377709 6.2109742790 4.6069501199 3.6291774409 4.4896791432 4.5817642543 0.8723759535 0.5760135371 1.5225577648 3.1926293241 5.6301507002 1.6326056511 3.9219575720 9.5324808184 4.6875395433 1.5548144428 1.7270198076 5.8065669585 1.3466252455 3.3543804995 0.5703910182 3.6935664660 8.4965949564 2.7451534849 3.4673678164 6.7343538076 3.2750949400 0.9835558605 8.4007419425 0.3653573791 3.4240493370 6.7660528021 5.6245383555 1.0342546091 1.6439261452 3.4520847880 1.3144522676 3.4008491649 2.9068365186 3.7310231093
5.0153022823 6.1161741724 2.3555527626 2.7495902857 4.7506803100 4.6814873908 2.3093498143 1.7247909042 2.2952026342 7.5789877724 1.6659813149 4.8704610276 7.8002240098 4.4715462358 2.4416996690 0.9551854439 4.6121931026 2.0512492179 4.2160457167 1.7909568143 4.4121904885 9.1662045738 1.5887635114 2.7169251649 5.9399289001 4.3997382857 0.3383702675 1.2193631159 4.6675379209 3.5247089115 3.8417150228 1.6077355321 1.1504132971 8.8975286665 1.5549910319 1.2158433419 6.3240206026 4.5920453065 3.5781501571 4.4718974795 4.5457075487 0.6138501705 0.6050491840 1.4831132208 2.9887476029 5.6785596972 1.6456845021 4.1055140899 9.5246262156 4.6838176916 1.7512571498 1.7352735348 5.7766494533 1.2980945805 3.4059472988 0.5529396456 3.7969120723 8.4717981279 2.8212470829 3.3827734080 6.6673489895 3.1919465452 1.0515851558 8.4187708615 0.4267547584 3.4582503650 6.7670970055 5.6185512722 0.9616038894 1.6673369320 3.3857052609 1.3422477849 3.4588365543 3.0303158758 3.6965471915
5.0095998071 6.1085229091 2.3410237579 2.7448762877 4.7108085380 4.6603872278 2.3372960264 1.6710530497 2.3202895187 7.5899560169 1.7106029158 4.8684618282 7.8083681502 4.5178279087 2.4097817021 1.0080616587 4.6589157742 2.0780255958 4.2369843398 1.8539716595 4.4205140980 9.1282226576 1.5539769470 2.6845836371 5.8961351956 4.3377178234 0.3349957626 1.1605120842 4.6474774390 3.5802359792 3.9031439299 1.6263165829 1.1851434777 8.9824329488 1.5768460801 1.1633145505 6.2737516900 4.5731327578 3.5656768225 4.4188777779 4.4755910180 0.6432140712 0.5410397423 1.5743457167 3.0358434873 5.7317626703 1.7282683735 4.0930033228 9.5516209768 4.6113619449 1.7311127851 1.7369272533 5.7558763611 1.3971245555 3.4868832682 0.6451985538 3.7446827328 8.4342712201 2.7940804252 3.3773235066 6.5990842684 3.2111406520 1.0782842602 8.3614757502 0.4452813731 3.3652538459 6.6588227286 5.5584477788 0.9812638655 1.6466892641 3.4024075707 1.4168525318 3.5436777986 2.9543780454 3.6847094568
5.0171889151 6.1159584954 2.3676926762 2.7752276573 4.7722817274 4.6766765209 2.3023166330 1.7379566509 2.2920551302 7.5563742694 1.6480172021 4.8747907817 7.8012319422 4.4589244190 2.4479923874 0.9975587208 4.6406546653 2.0234799020 4.1492111901 1.7997815246 4.3777414296 9.1626192945 1.5583176876 2.7304365076 5.9928867529 4.4035569998 0.3539299612 1.2254099391 4.6510833903 3.5263230672 3.8383979735 1.6062378539 1.1527718349 8.8809974288 1.5581667902 1.2366947805 6.2896368839 4.6020913352 3.5846005976 4.5104923626 4.5964392240 0.6865668562 0.5734766838 1.4751531620 3.0434769382 5.6581993900 1.5980411775 4.0370992530 9.5411296389 4.7048222708 1.6738545618 1.6772042087 5.7403703642 1.3047816575 3.4027149640 0.5595119687 3.7974439551 8.5162053915 2.8296758518 3.3932036044 6.6759123976 3.2335703513 1.0213433403 8.4694810640 0.4348756250 3.4525232485 6.7605662918 5.6218172573 0.9680916152 1.6306036910 3.3887317464 1.3373261423 3.4642795516 2.9492344042 3.7378258266
5.0131418901 6.1114940562 2.3877169999 2.8741548458 4.8135005620 4.6478715160 2.2575581187 1.7460451836 2.2946058290 7.4773882533 1.6252276057 4.8720001367 7.8800869774 4.4447686220 2.4461895724 0.9547744216 4.6638379696 2.0194221195 4.1606704054 1.7404376543 4.3959719497 9.1830484674 1.5217374401 2.7518788920 5.9568461751 4.4415870610 0.3653836283 1.2314982896 4.5962369072 3.4900896704 3.8721647628 1.6032938898 1.1448957868 8.8907009980 1.5681231902 1.2512860435 6.2206951416 4.6094404621 3.5804019323 4.5355308489 4.6230245594 0.8598580246 0.5881799109 1.5164864551 3.1726306126 5.6015017224 1.5952180627 3.9178867059 9.5272152801 4.6936494264 1.5535871425 1.7466553572 5.8697331659 1.2745222782 3.3361122462 0.5430645100 3.6957377306 8.5394565464 2.7907309987 3.4527573350 6.7586340191 3.2227839669 1.0141481774 8.4047257053 0.3302333775 3.4749184896 6.7863515873 5.6488672506 1.0394230677 1.6197390225 3.3922492027 1.3271374466 3.3636120242 2.9771512748 3.6924239696
4.9934040638 6.0901617707 2.3638239063 2.9052768761 4.6970731032 4.7485087744 2.2090631538 1.6414800683 2.3085578258 7.4286544920 1.7327214035 4.7720187180 7.9347785188 4.5857617450 2.4349541083 1.0788734407 4.5695019159 2.1214860467 4.0949445917 1.7249985799 4.4981716571 9.0550878285 1.6074652500 2.6119795179 6.0465343099 4.4737685433 0.2805499889 1.3694498987 4.6504622239 3.6116629975 3.7763023614 1.5154226666 1.2701829205 8.7515392536 1.5207526289 1.1208828156 6.3869392218 4.6874028452 3.5116341665 4.5361058387 4.5301227865 0.5910975503 0.4661990921 1.6166943506 2.9524808407 5.6197479135 1.6442466336 4.1346299701 9.6289959241 4.5809705446 1.8100126530 1.7875734073 5.7779277780 1.3657222379 3.3995298898 0.5034476785 3.7992980508 8.3251586784 2.8202595713 3.3078292378 6.8110871845 3.2877131826 0.9427511851 8.3241024566 0.3994169368 3.3554554380 6.7476101703 5.6946230897 0.9819005946 1.7787044270 3.3521771036 1.4106976461 3.3430196597 2.9175846949 3.8376547063
4.9941810469 6.0893944851 2.3674314043 2.9045348850 4.6988164206 4.7410079954 2.2099723723 1.6357406856 2.3172744795 7.4275525210 1.7332530893 4.7763240677 7.9284552805 4.5870774882 2.4303850269 1.0836334881 4.5721142525 2.1348586977 4.0906336286 1.7240014405 4.4852786072 9.0609569944 1.6111512406 2.6061559702 6.0450495049 4.4699239031 0.2853391434 1.3572677461 4.6409325877 3.6414143407 3.8004742877 1.5166506323 1.2861609111 8.7802571577 1.5305214372 1.0993770443 6.3642283930 4.6857629124 3.4923920053 4.5234811385 4.5324254524 0.6238792448 0.4624697701 1.6162256209 2.9655430765 5.6537051517 1.6466395879 4.1124259123 9.6183438352 4.5765428319 1.7799035738 1.8072316608 5.8142063663 1.3381655586 3.3874001432 0.4886278900 3.7995626008 8.3250115002 2.8280969692 3.3147390691 6.8138030052 3.2634753096 0.9605168449 8.3131713229 0.3702735672 3.3853035431 6.7468520519 5.7058670560 0.9790418042 1.7792712759 3.3461622541 1.4021548524 3.3339568298 2.9425966800 3.8158796019
5.0083725747 6.1013745879 2.3535161894 2.7786053512 4.6952360499 4.6389730282 2.3326976673 1.6382098145 2.3495685662 7.5622284953 1.7309651262 4.8747178564 7.8163555892 4.5465241801 2.3903391145 0.9888920844 4.6319414148 2.1214692796 4.2691762344 1.8459111130 4.4243084835 9.1321067457 1.5732008363 2.6496771248 5.8819589997 4.3319338760 0.3211591898 1.1507706809 4.6361726123 3.6645359487 3.9263444543 1.6391995604 1.1641584614 8.9805094213 1.5814682462 1.1193168228 6.2025249609 4.5590066634 3.5850882755 4.3896037554 4.4752600334 0.7575394729 0.5525712107 1.6073987820 3.1483787416 5.7400810401 1.7307186105 4.0012249461 9.6148676118 4.6156919124 1.6253401910 1.7920054043 5.8883093966 1.4019560709 3.4888364135 0.5866474315 3.7488492991 8.4157427158 2.8084595397 3.3463280622 6.6346579959 3.1363602103 1.0998182450 8.3058562890 0.3327429854 3.3098434453 6.6291040775 5.6027040383 0.9863230592 1.6930152632 3.3645653187 1.4334092845 3.4781825639 3.0652797426 3.6544671109
5.0176522445 6.1104873624 2.3757486501 2.9043341227 4.7603720038 4.5722437977 2.1874339700 1.7293975440 2.2477123753 7.4310200985 1.6839621473 4.9266473800 7.9457755521 4.4560700758 2.5113430018 1.0868646414 4.6946033329 1.9857260390 4.1732765295 1.8790514555 4.3838393890 9.0784267639 1.4875770981 2.7460107363 5.9617891046 4.3284528117 0.3642665312 1.2128385575 4.6809883646 3.5408837459 3.8266697901 1.5908375620 1.1523112537 8.9264853077 1.5198000399 1.2367400278 6.2777210609 4.5949496256 3.6305297403 4.4587651579 4.3895012267 0.7634714958 0.4892457461 1.5487255573 3.1984318711 5.6797971894 1.7779983055 3.9698026404 9.6564528752 4.6344659653 1.5734564994 1.7443675449 5.8526136464 1.3427208152 3.5015715592 0.6016195387 3.7586280807 8.3395304128 2.7109590787 3.4064257449 6.6728489444 3.2161591365 1.1160334320 8.3822247757 0.3378407269 3.4170824887 6.6110843330 5.6283656711 1.0040781378 1.7677262785 3.4719446063 1.2947518668 3.4538004334 2.9813031260 3.6652939596
5.0148003316 6.1096911279 2.3821486257 2.9269742077 4.7866736939 4.6042848635 2.1936266649 1.7420282993 2.2744468124 7.4243442908 1.6593558818 4.8873429070 7.9606420557 4.4432779404 2.4776234703 0.9971768966 4.6551932635 2.0061052375 4.2002970629 1.7973648576 4.3778536081 9.1462774198 1.5184696804 2.7707859649 5.9134421006 4.4033820235 0.3926482327 1.1892307000 4.6578309147 3.4931113608 3.8693498238 1.5702016678 1.1216773117 8.9504652536 1.5270041616 1.2459164973 6.2423742149 4.6133674757 3.6105204049 4.4392723559 4.4633922682 0.8017638651 0.5666291977 1.5197016239 3.2058710154 5.6658541900 1.7200719056 3.9731965516 9.5655035581 4.6754943008 1.5640719864 1.8051132555 5.9410874122 1.3251450394 3.4195720798 0.5532612350 3.7332079678 8.3568720730 2.7387208538 3.4780344341 6.7498343410 3.1714895269 1.0662259998 8.3257730444 0.2690073042 3.4352545904 6.6931144122 5.6515098277 1.0133082181 1.7588678068 3.4399055688 1.2426742885 3.3617350130 3.0513868822 3.6704267148
5.0106460000 6.1099773235 2.3882462822 2.9178717247 4.8102136755 4.6291909943 2.2193267785 1.7449939548 2.2935940540 7.4425550355 1.6349893282 4.8710523382 7.9378187303 4.4424790219 2.4528645187 0.9596233630 4.6895210056 1.9607037614 4.1377701604 1.7817109320 4.3537657879 9.1618404908 1.4961792703 2.7819006082 5.9543526019 4.4221284295 0.3798330396 1.2047765852 4.6162162801 3.4930828330 3.9059469895 1.5894859214 1.1185973392 8.9376090721 1.5478992130 1.2818328698 6.2135641728 4.6078489398 3.6508141005 4.4551380564 4.5541723040 0.8650767397 0.5926677663 1.5217451477 3.1991229037 5.6439452270 1.6549944278 3.9351597159 9.5469113530 4.6857659200 1.5630836672 1.7458941193 5.8289651056 1.3537061415 3.3660408711 0.5698239142 3.7013816107 8.4579139528 2.7401848547 3.4781815540 6.7369676845 3.2617859925 0.9895108489 8.3782805128 0.3457786126 3.4193116858 6.7518907815 5.6234773203 1.0267355919 1.6735401961 3.4571243070 1.2941251671 3.3970302126 2.9237853613 3.7292556387
5.0166354755 6.1138293089 2.3829027992 2.8324548965 4.8019039867 4.6591678044 2.2784458170 1.7460311005 2.2922090373 7.5106326235 1.6292606139 4.8760800267 7.8397499352 4.4478723354 2.4480123780 0.9449799088 4.6402330857 2.0301856951 4.1586489420 1.7439382126 4.4104222552 9.1750705756 1.5470926496 2.7242055870 5.9921709167 4.4403323177 0.3345286470 1.2477494097 4.6102135351 3.5457756159 3.8438506661 1.6044544318 1.1467597249 8.8632166800 1.5690063293 1.2208456019 6.2412942054 4.6116906446 3.5881447647 4.5140088800 4.6393343899 0.8179142125 0.6238007943 1.4984797400 3.1368137030 5.6174347231 1.5740302522 3.9419506003 9.5575290680 4.7023858587 1.5849340630 1.7412986493 5.8833017945 1.2364777329 3.3515339588 0.5326739951 3.7342044441 8.5417600271 2.8398633143 3.4376857503 6.7509521885 3.1891342306 1.0348176277 8.4172346832 0.3214553242 3.5048049499 6.7807421444 5.6565078766 1.0163957213 1.6199623688 3.3473622012 1.3237829100 3.3727188604 3.0049169874 3.6901428172
5.0139590497 6.1157970999 2.3502465035 2.7409789960 4.7406346673 4.6804880032 2.3126003388 1.7159854543 2.2981937436 7.5876471628 1.6755697173 4.8687940884 7.8044397357 4.4794740399 2.4362252047 0.9278901185 4.6042692036 2.0558976187 4.2322618078 1.7905060544 4.4275917060 9.1679938666 1.5981542132 2.7044119290 5.9281141053 4.3959851029 0.3211381359 1.2211164245 4.6698079110 3.5554317675 3.8451273916 1.6099167526 1.1623159207 8.9072110680 1.5565925287 1.1960839748 6.3310263870 4.5877490950 3.5846101026 4.4252280638 4.5242543341 0.5986422147 0.6265321646 1.4957788522 2.9741470670 5.7121403307 1.6686694777 4.1220654657 9.5220927358 4.6676362405 1.7794588681 1.7699822533 5.8068075817 1.2929654217 3.4114596843 0.5602342347 3.7874326933 8.4472571173 2.8248246736 3.3867176768 6.6638686152 3.1710930440 1.0683473334 8.3820603236 0.4087351966 3.4654198005 6.7620681990 5.6133294271 0.9633852193 1.6833546733 3.3752455898 1.3466318347 3.4612028985 3.0545677935 3.6772134378
5.0169661363 6.1108096280 2.3747471983 2.8937408614 4.7535062655 4.5604258667 2.1848175355 1.7223690940 2.2414914111 7.4375033952 1.6903644629 4.9426949533 7.9404098530 4.4639495459 2.5197941508 1.0820359038 4.6961253992 1.9976638072 4.1764431386 1.8892361685 4.4009211424 9.0682615806 1.4867104648 2.7281669275 5.9735201669 4.3196331267 0.3524444828 1.2392984235 4.6840415932 3.5438650578 3.8180781433 1.6080940723 1.1421531161 8.9010329421 1.5183536597 1.2177728732 6.2975653051 4.5811024554 3.6300964924 4.4564012606 4.3700961068 0.7525478264 0.4929830855 1.5663376740 3.1831005639 5.6717318370 1.7987384874 3.9759253070 9.6780618370 4.6143646545 1.5949497914 1.7517039665 5.8613070683 1.3258716849 3.5118777351 0.6072577368 3.7607927356 8.3336220148 2.7178232910 3.3837930173 6.6643080426 3.2147785480 1.1364617828 8.3812142764 0.3276565098 3.4287537035 6.6002964736 5.6175361668 0.9999790631 1.7772904255 3.4651539815 1.3224135566 3.4690431934 2.9797027407 3.6523078308
5.0015031848 6.0860556460 2.3973510531 2.9067455488 4.7072462941 4.6918405409 2.2275761321 1.5924873872 2.3810032569 7.4409887729 1.7360909600 4.8264811057 7.8884823223 4.5960522873 2.3811949833 1.0515818198 4.6272276319 2.1164716644 4.1601831846 1.7726400460 4.4161198597 9.1026887778 1.5839063115 2.6194094693 5.9485677543 4.4148734220 0.3377344669 1.1739801699 4.6107512933 3.6386543288 3.9382773300 1.5895889777 1.1987790981 8.9861457010 1.5783691456 1.0974144303 6.1773147967 4.5976528443 3.5504229474 4.5063219735 4.5123672676 0.8805002342 0.4867387352 1.5831229803 3.0988253118 5.6447626399 1.6750918047 3.8701226622 9.6177536810 4.6014423518 1.6124762080 1.8298471619 5.8440210212 1.4275900988 3.3649028787 0.5345915815 3.8114723982 8.3228705799 2.8068402744 3.2941397213 6.7502022181 3.2415964918 1.0073394480 8.3487658334 0.3718569505 3.3625509887 6.7545177532 5.6622809594 0.9263453381 1.8287484655 3.4093984311 1.4510888875 3.3821166775 2.9296116600 3.7139362285
5.0075731228 6.1117773980 2.3758287807 2.8719137643 4.7395915825 4.5354658119 2.1819113007 1.6946489095 2.2366761703 7.4520981822 1.7038023526 4.9819014383 7.9287073926 4.4947894780 2.5283225247 1.0484053009 4.6749094537 2.0504322548 4.2110282362 1.8595306754 4.4137206964 9.0880749698 1.5102055154 2.6907256719 5.9395765318 4.3343916973 0.3613826565 1.3252229851 4.6989590278 3.5308386860 3.8128765088 1.6709988124 1.1659301669 8.8298715874 1.4979751601 1.1641869907 6.3547309035 4.5292477154 3.5813562500 4.4651985008 4.3423113480 0.6947163889 0.5026702864 1.6161744863 3.0788299265 5.6845138901 1.8444544100 4.0271034784 9.6084671149 4.5587618008 1.6839972003 1.8012490930 5.9232888851 1.2689271118 3.4832956645 0.5876503027 3.7584481579 8.3178054516 2.7387993573 3.3420258611 6.7075232826 3.1551239398 1.1797559845 8.3626920644 0.2702831086 3.4574748079 6.6450670910 5.6133700824 0.9902585535 1.8235286608 3.4363481561 1.3985389189 3.4350349942 3.0625065097 3.5923997500
5.0042006357 6.0941101109 2.3842078305 2.8491278684 4.6919576351 4.6430909222 2.2913357269 1.6054723154 2.3879367028 7.5042434584 1.7392083626 4.8707942150 7.8461512698 4.5784090052 2.3677974013 1.0054608318 4.6354053111 2.1047417352 4.2444899563 1.8497170734 4.3543449217 9.1535097578 1.5603797463 2.6590005512 5.8645584527 4.3500971792 0.3846730386 1.1296333289 4.6455148088 3.6166717666 3.9316774608 1.6546032123 1.1087269754 8.9772239007 1.5705165779 1.1381261469 6.1563934904 4.5273466728 3.6116822479 4.4390382364 4.4722051374 0.8781963914 0.5209945816 1.5864600865 3.2069708791 5.6848938599 1.7125193441 3.8707249936 9.6070607857 4.6532933135 1.5585417416 1.7658888480 5.7947478287 1.5184671202 3.4626570029 0.5842133664 3.8251545253 8.3621128806 2.7896371340 3.2749522939 6.6567121925 3.2019641929 1.0193374809 8.3584250098 0.3905531226 3.2107757607 6.6784400692 5.5985295075 0.9287853187 1.8051890212 3.4370495985 1.4774551813 3.4689044093 2.9825002752 3.7288081705