-28927.0928752538
-28927.0483370441
-28926.6974026187
-28926.9046057718
-28926.8140452443
-28926.7237085303
-28926.651529011
-28926.9850171387
-28926.9163710158
-28927.113675761
-28926.801884347
-28926.8248590427
-28926.9271705282
-28926.5359772892
-28926.9876992274
-28926.649616732
-28926.6846608947
-28926.862960811
-28926.8682726065
-28926.5613241361
-28926.8336125322
-28926.6669964979
-28926.621818821
-28926.7608878332
-28926.639601043
-28926.6327402403
-28926.7368448191
-28927.1270619863
-28926.4857565291
-28926.7207563687
-28926.5051208202
-28926.7890569072
-28926.9779312979
-28926.9600551967
-28926.5148616743
-28926.8558401397
-28926.9304107221
-28926.84857484
-28926.642116326
-28926.7235841743
-28926.9902720624
-28926.7155545072
-28926.7480266513
-28927.0348946273
-28926.6051122644
-28926.0451494832
-28927.0211809132
-28926.6068588261
-28926.978934173
-28927.2062080244