-0.0672155438667271 0.0016005108904986 0.053467862370348 -0.486050603421927 0.233066010209131 -0.196306967315222 -0.0624705754355381 -0.366533448975904 0.28745355570483 0.656977196111497 -0.21952067442694 0.46852803021562 -0.146040640946237 0.476995439879361 -0.275859943323407 -2.17253476831371 -0.00588242388172167 0.642055806628753 0.282808603134911 -0.438006994586815 0.914793660997408 0.282323950439555 0.18112255411505 -0.613394706065308 0.474828772365429 0.722652135760414 -0.541859968230792 0.659791524176943 -0.200533601617054 -0.35492543842422 0.238618047505424 0.406338733320516 -0.97948618263627 -0.645283567868804 0.0706549067875624 -0.511088250173355 0.238968745795326 -0.299581185936787 0.233715470531926 -0.535763371566454 0.174026055948199 0.210638288927493 1.25555489942845 0.328593499010499 -0.33875912143436 -0.593350653292235 0.0692423434409923 0.173299976790806 0.145895373692722 -0.270748078660773 0.694642038180864 0.494745298487628 0.445366259360911 -0.405219275582809 -0.502354988580172 -0.213559831939338 -0.215787177456509 0.0785042235708607 0.513845242667944 -0.0377828556434618 0.27487906797445 -0.0950497780809596 -0.0817373841247595 -0.431980074782128 -0.685879208916612 0.422287277985196 0.453253114230958 -0.266228081639895 -0.0588448076318737 0.102295400154075 -0.474285241438117 0.483171740700495 0.0036003138955264 -0.0876948841799792 0.026998111898425
-0.0506388790244595 0.0112465136340867 0.178293827879345 0.52753018927962 0.198367191213304 0.322307669251317 -0.796132683461483 0.167942314793022 0.265818248007854 -0.472166910638628 -0.304872256397119 -0.0104121910895617 0.543641227580089 -0.042072224829998 -0.0742819601421429 0.296015839026177 0.0631179788768675 -0.83136372053656 -2.45313865162757 0.0174025027507466 -1.7157813560485 1.40557637734136 -0.0700887501641282 0.399949802377866 0.605285450886782 0.479604079798237 0.73291417450298 0.304463451205811 0.190762386214241 0.246176829781692 -0.379324937700915 0.0382479679648934 0.849854570692846 -0.32024873090415 -0.131818334051648 0.10438467750286 0.261272539968655 -0.128701130190378 -0.122783739323739 -0.596143126992107 0.0681370267633612 0.229526117206659 -0.293187627010838 -0.411864288267939 -0.35337197869725 1.79307561909716 -0.285536027958431 -0.681028568200122 -1.52701954416983 0.335738591001978 0.0115663587020032 -0.0602162333491298 -0.694169726774303 0.349430736698783 -0.193325774740871 0.117174109346406 0.629855157104764 -0.540717627686779 0.375752905925542 -0.0681233999236509 0.203441517789189 0.215925502735078 -0.512345518969265 0.152574839142403 0.188323953236653 -0.0716789766472983 0.631126824070933 0.0142310486408188 -0.398030474860184 0.866406038737158 0.163136668358594 -0.204296409148371 0.0918508131814281 -0.57598825973007 0.723420380987854
-0.0738027067606346 -0.0128444534227531 0.0492702815192187 0.826818269607544 0.216988653342662 0.904457060301711 0.651450612723342 -0.198193641839636 0.540447919104589 -0.54765240354839 -0.192833151629836 -0.841288944939117 -0.0648974384548821 0.171599707149221 -0.752831729065912 0.928268291479216 0.580180184157168 -2.4939728909254 -1.6087078202496 0.447755841403689 -2.14445936474762 -0.447476105524353 -0.437420783369091 0.99902501389933 0.334096171151616 -0.547265966943021 0.295107468748887 -0.652398320858664 0.236281430160388 0.637261987262753 0.478459425262574 -0.0382130009799765 0.485992239410338 0.932218275223911 -0.270118415822085 1.11828068728903 -0.748963506359478 0.0373141437794652 1.27518217659453 -0.181351639288293 0.535579280675274 -0.0204626281513433 -0.526709493574805 -0.211713266603505 -0.360952358228908 0.880261449400304 -0.444189980272713 0.0491245000453371 -0.295349666541473 0.254192753963712 0.0893051652574399 -1.25637996600637 -2.02462416500497 1.20669522287182 -0.212004058220719 0.271342517404361 0.0981654392811302 0.430300888175567 -0.857731398265748 0.282825058186637 -0.216868839997285 0.958270992978663 -1.17816653405273 0.991831585193407 1.69372155943904 -1.10256739844199 0.508261066598749 0.0528294577854311 0.00433564901951451 -0.466268803035731 1.02882639812532 -0.19270382520768 0.3368639622739 -1.24973469621106 1.05192954785826
0.110523183127062 -0.0737723677590155 -0.0751409652642563 0.389240134806327 0.0642747175911411 0.87784821322067 0.702474642802254 0.108773034109933 0.040414378368643 -0.0445420252499385 -0.165640407322719 -0.935273258420844 -0.480096445799089 -0.114535644646278 -0.165605440337802 -0.644217846159387 -0.534976871516007 1.40149912405598 0.623747761812731 0.379904464053877 1.0874827439929 0.35200106720036 0.53345169390919 -0.0214764136037506 0.121850943579044 0.328378040676967 0.44594887103607 -0.917452951622376 0.122523286708145 -0.58009225247451 -0.0321907091585872 -0.598406982155295 -1.04979990421071 0.247004724571637 -0.0424686887325119 -0.713111548191943 -0.187199096185098 0.417246889953495 -0.70738184775905 0.398346206165169 0.723084595088578 0.566394193243491 0.616810157739105 -0.16615668457061 0.500983819973099 -1.19277887709525 -0.747994200968767 -0.333329211475093 0.848900434802944 0.270278338356044 -0.506170246588864 0.0846347587793825 1.10635000345741 -0.476894909797725 0.0722842140185808 0.0404799414653622 -0.142063403522121 -0.383307317328696 0.818124602982575 0.776459640682786 0.00592613261286781 0.128155285271417 0.0348916516332358 -0.482521766157334 -1.13675122574084 0.602932635600203 -0.314993655869468 -0.211499865151439 0.247398874482502 0.144576141342658 -0.859907321746276 -1.01046487439119 -0.0390200698450809 -0.388914376204197 0.134549872638099
-0.00208182115347263 -0.0497230525518561 -0.209701379419867 -0.732080109068638 -0.000863375995227998 0.0663331417179414 0.528361683612129 0.38320524458596 -0.58073014283906 0.417710716724011 -0.128663592103629 -0.232143241761581 -0.466342593658313 -0.203225031014924 0.522332706925976 2.53192621062033 1.23054013548332 0.786053964279549 -1.21275788099197 0.482082364854223 -0.796136540114232 -0.700997030579331 -1.26856878846194 0.123901140179981 0.657581919262413 -0.4097819528941 1.05927081491953 0.082456264197022 -0.121635742355695 -0.208663425610237 0.261171238556469 -0.191009983320675 0.392889556746847 0.0448610989873054 0.0447664824398831 0.215898763276024 0.0431546587013232 0.29402812019976 -1.12314289796376 0.976961874857488 0.109315022376146 -0.930500522089867 -1.18576336863611 0.294617159629501 -0.341170814952895 -0.39890336393219 0.0389843315296144 1.01119403887078 -0.0936567551083136 -0.292307795963885 -0.30109967867884 -1.03728763714467 -1.28373366128818 -0.178389215757317 0.678734374035316 0.506265377356653 0.00141770555023442 0.361088112405644 0.15554857552144 0.327940953365506 -0.487075958832579 0.494320552464961 -0.0385757834484895 0.586173165417672 1.00321796676716 -0.0847805402532641 -0.692963365794669 -0.133017753056334 0.208015250838358 -0.994854429617438 0.0174914628741382 -0.278324601539683 0.834582997140565 -0.971851809966137 0.588110490648179
0.0158737256013643 0.0176339019156379 -0.172957506026767 -0.506542542134156 -0.123106155493488 0.0443864735890949 0.569452518872805 0.508289348718903 -0.540232974991423 0.421712893835899 -0.0627757652230115 -0.266003881560134 -0.548805028499732 -0.135418647947174 0.604766602537059 0.45111807126956 1.03235472116955 -0.272104077767037 0.990514152614626 0.741766992331357 0.305802995260349 -1.95769838431472 -1.1273556483157 0.452335745097255 0.37996874159968 -0.66895004601316 -0.613544601302121 0.0970948324782328 0.100697460365408 -0.782412255644525 0.0869780609891824 -0.0807076578409929 -1.82716971494207 -0.275820348355192 -0.0875323905441888 0.552770953075786 0.117978092889312 0.131769997337204 1.31301876826628 0.910452612664046 -0.0284667252649355 -1.00598318678761 0.068129570568048 0.191314401777599 0.191073489535929 -2.04789597901809 0.128592629693062 1.53644443215586 1.96702325643948 -0.0530467158902458 0.289716639537468 -1.44298565188862 -2.14379087827127 0.518805412322482 0.621844375126408 0.315520988855237 0.174999989322208 0.619562008030029 -0.591704633899308 -0.114201144297918 -0.699458483242987 0.862795697544487 -0.450289405149066 0.947043505498134 1.72637763802924 -0.96897731811782 -0.647394699583163 -0.396420708003089 0.112923049577168 -0.890043977651177 0.563503246343448 0.0442216659616556 0.751898676211034 -0.821340794264382 0.872609850347896
0.0208138406616117 -0.0290786475009816 0.150238221797367 -0.137439276877042 0.152846090385692 -0.861789111177209 0.106893301560466 -0.571973227109021 0.903999918395959 -0.181095043325447 0.0785988401182829 0.461942409982812 -0.550777320715156 0.11381470769255 -0.487744445308932 0.401478579527248 -0.195860881147348 1.06915875834552 -0.607955797249628 -0.242307835744709 -0.978199089059107 0.921404992248538 0.550688617701947 -0.424237458724863 -0.0609757368303399 -0.0568378055417159 0.529504281266326 -0.183208746141638 -0.292780878700996 1.26987207998064 0.596702598750778 -0.00424566045539009 1.08021115379128 0.758991831945504 0.295919422707472 -0.948114626521398 -0.521944470549325 0.000617064439710302 -1.14799465405273 -0.665783991217079 0.083214482127316 1.00832417500576 -0.313003880161585 -0.0114907683081387 0.322567607646545 1.77791100338109 0.0545783212516434 -0.731468443942775 -1.01650336415412 -0.143719450212194 -0.944127876020503 0.930190961429279 1.67552304356106 -1.21166413427258 -0.466588133883281 -0.638019690972681 -0.0214013374302526 -0.100285569851901 0.443429962571136 0.284146347418166 0.267168333579904 -1.06263535877705 0.672866091213671 -0.643895687099822 -1.43906420737426 1.21522356764898 0.0302235591468274 0.500219945618775 -0.0513636726309359 0.124672727839802 -0.399268460392352 -0.374075004869897 -0.486994712014684 1.13783237406125 -0.785874758481849
-0.128592115472696 0.000486452466638288 0.0707207269944649 0.548299806989719 0.2739562995269 0.554008681497772 0.321546365998825 -0.262304323133887 0.595572085275192 -0.318912786392178 -0.231932411411346 -0.493355617947364 0.144093031308402 0.27308315334471 -0.728409089872728 0.534329982295044 0.106597110629405 -0.523611572977276 -0.0979751777455529 -0.742437535689176 -1.88371081533236 0.7935057887196 0.16490661485983 0.767351255332296 -1.40210667541891 0.478236767843912 1.07507434944088 -0.0942115988836864 0.112312412892038 -0.0173958178859831 0.252622582074833 0.0976823292468737 1.10352487676427 0.254456549011688 -0.230865404151014 0.319230317468445 -0.158956828110107 -0.104306258896981 -0.216678064241341 0.266128579998992 0.400149062769856 -0.314916008594137 -0.323952917313695 -0.100457319454288 -0.685765051995265 0.688464966029181 -0.257992071141045 0.336688613128949 -1.71639430672527 0.103482477869967 0.177289555503717 -0.313807863704491 -0.650422429100675 0.499429331805396 -0.630524157801483 -0.2856712679148 -0.0540602442324699 0.139524183352713 -0.273954242645435 0.286585294616121 0.563716390685331 -0.217284330053357 -0.532959327908338 0.266730474937893 0.449385148634707 -0.511432006488311 0.901925039217433 0.360907363946845 0.0403884102401385 0.0533632185257805 0.242351801586038 -0.0838955670026462 -0.543272274467179 0.294090597974281 0.220325943520762
0.080485257532514 0.032402053729188 -0.0844175006745679 -0.76996298057337 -0.718816308937065 -0.11656295844091 -0.251661247099801 0.0190798895860258 -0.260682729208365 0.597544377490616 0.53455778191737 0.28656678268293 -0.306493850322641 0.0434099691132533 0.41725203215716 -1.08806098479495 -0.769796630284831 0.0209043434461025 0.513497115479875 0.365606052545056 0.588443448335439 -0.614853292134674 0.812836360734258 -0.823355766770219 0.730814098526499 0.0997438386958725 -1.18956448558473 0.129898492313599 0.390145419761419 1.10358632609806 -0.323533570604875 -0.170912194519311 -0.540067138923251 -0.211521205296646 -0.161377006264687 -0.638057486169613 0.305212670279693 0.0699439971309795 0.687270946338342 -1.25715335343748 -0.355730193297676 -0.51082214113373 1.42054121844507 -0.222145255177174 -0.148256673615347 0.334615790831889 0.219949534212539 0.561964184786737 0.857184782016238 0.0737397147657475 0.538090475834712 0.525709334962108 1.04533775698105 -0.537101630070076 0.311306438732015 -0.328680659362608 0.588445505216905 -0.938485850160085 0.720780887846993 0.194096333959959 0.17297293263776 -1.02900354704156 0.509537875768583 -0.59229701576143 -0.984109795060982 0.515673810290953 -0.321365360429843 0.22390800259328 -0.406120189664786 0.790953970151215 -0.76945724484299 -0.634693970752825 -0.095347768783303 0.858587832286029 -0.122129651017646
-0.0329779805395842 0.0965664710517309 -0.101777837355268 -0.358371229099636 -0.307761146415696 -0.0590414969220313 0.129572476601285 0.469309645172586 -0.344029880190219 0.32295455847228 0.101410426903457 0.0440031223059249 0.395279138789625 -0.243877236303038 0.0974139062155997 -1.76144566724816 -1.54597242132535 -0.10273840099975 0.684216991582142 -0.544030492397473 0.526432843017668 0.974327523920292 1.09571901160193 -0.0526746774551371 -0.177238133467074 0.46467292012853 -0.737073703046994 0.634779588443835 0.286270591751869 0.558837467848688 -0.711883075736554 0.0346810783931847 0.399842844541649 -0.895836412968775 -0.227510116260089 -0.259328786983568 0.646038957587083 -0.0705718601983848 0.216354362520676 -1.24459172121626 -0.0945077898147474 -0.281651093090088 0.775488792630975 -0.0204135201063496 -0.00860882026450835 1.07467814264855 -0.0232011087127409 0.16768211928761 -0.479437986619881 0.271998662591919 0.534939333429258 0.798297551204134 1.35462613788503 -0.358813972835128 -0.161280847056166 -0.65882453277788 -0.0475581848092058 -0.25039909321041 0.206949529128942 -0.0668435054316185 0.526956576460872 -0.903739208670181 0.12945677701884 -0.823528544813338 -1.15293348356206 -0.0294699691998312 0.249529803680968 0.320374972004108 0.122568280990207 0.487111697148045 -0.466136648401559 -0.0986290089414626 -0.802240850084066 1.55690037544244 -0.24929146254113
-0.0107610896081812 -0.034231649792929 -0.189001952789784 -0.764143805796718 0.0429294301808289 0.10329864408897 0.224913817630008 0.306900855742667 -0.546476638680558 0.430269520733215 -0.0772538967498977 -0.193919442153909 -0.121586377200518 -0.267421072890002 0.41046303776943 1.6754029731055 0.264050358388084 0.901775658200987 -2.39682997884291 -0.115429873863492 -0.391397032133298 0.453511252854903 -0.0824104985844101 -0.40512337348447 0.855646234679893 0.12363451691999 0.408767396111143 0.299458544379394 -0.20468130309264 0.924265343036778 0.0454177425339607 -0.236746542481819 1.92262649844305 -0.0178218494595664 0.0966626302602524 -0.429702335669048 0.161872714697921 0.36873636902567 -1.68361815767951 -0.107053224094424 0.18786115490687 -0.50260927055137 -0.764811263832338 0.247178531055489 -0.581522813533905 1.81879589338502 -0.114363637933709 0.136464057952116 -1.19541965578703 -0.35487015973483 -0.270992847555192 0.251580514502272 0.783653069388709 -0.962145900549861 0.201447114098008 -0.00633030982087806 -0.283106336727071 -0.0436339120828315 0.731873392481335 0.596078849446304 0.180879327881731 -0.506720719491123 0.475553051751539 -0.486469693020563 -0.778289236746527 0.900403461153181 -0.311959755707559 0.371696478564997 0.322368090144372 -0.46535477633441 -0.818606427465916 -0.53957811535478 0.0866499883954031 0.072178027512914 -0.122869871235115
0.0251895988697074 0.0321827387429076 0.00699056877136808 0.252636980245093 0.417922061294612 0.805843992191608 -0.396094178070409 0.233243416235547 -0.387975152704921 -0.20528551202319 -0.318419134840409 -0.453556761357332 0.127276996885563 -0.204290238503974 0.251683358575557 0.164575714054035 0.812928920400215 -0.897953972437714 1.08619899284812 0.320262100633677 0.750590499598848 -1.48102407505419 -0.576910513957253 0.482360043852093 -0.354222499183317 -0.00964446008248881 0.024048800986793 -0.234906147790383 0.0326905313547525 -1.51744039007388 0.0574810952201139 -0.0952914616531794 -1.15023074131613 0.284914335535422 -0.0267050062895626 0.56313609300182 0.233559404650716 0.0540674433175999 0.575755060793896 1.17116593798421 -0.0672240285027731 -0.519977577647749 0.235356090611006 -0.21549587161893 -0.492575288541314 -2.13065820433314 0.0603879829515159 0.589306567220484 0.873737278501283 -0.0716445238827478 0.872947950238821 -0.879997397242144 -1.90014401269239 0.692586442266079 -0.234656493802484 0.415556133388689 -0.077117628352795 0.261433233833163 -0.726211054916444 -0.155600511778449 -0.385362141912931 1.24943336307634 -0.445865567336709 1.01580582422707 1.73189856499336 -0.0384330872968065 0.292840528263501 -0.494614943624739 -0.149605987856847 -0.360659509730228 0.889045104589396 0.377134101829761 0.58069414741341 -1.5430233675239 0.293949444483697
-0.0369567606247996 0.0109153557181088 0.0293182741917357 -0.731745351610095 0.137139229293233 -0.202067263859917 0.268627176759452 -0.350863611749827 0.0340868967597803 0.802742729161697 -0.144011784490506 0.633324859027218 -0.703830127688151 0.449004625563552 0.0287714008320425 -0.609397928267268 1.34164541606518 -1.59485703756975 -1.41819225981124 0.869357406530256 0.236940146449779 -1.01472544723721 -0.918502218280067 -0.339754394953576 2.12304568602858 -0.514430168334753 -1.1859718849947 0.496585950289247 -0.215556292511984 0.60834171963463 0.217072214152206 0.417503743026525 -0.658473834487978 -0.436825830405137 0.119967611487011 0.0993818275579091 0.0263607357542409 -0.287519890132099 1.09201508230257 -0.595731236478601 0.182071547801288 0.467673910186988 0.595460756565861 0.334240152854215 -0.119292440145895 -0.266415257853274 -0.00202294292151694 -0.226302726839723 0.989949795762474 -0.316448128175901 0.453215576144209 -0.797183492780274 -1.66423822050968 0.447556838121882 0.00914489499650668 0.451211916486433 -0.119495042970266 0.56722645890655 -0.0591553967331945 -0.426727056628911 -0.648700047983333 1.14776119800637 -0.435730798134834 0.664716212626197 1.02143190925613 -0.247712291795838 -0.0312964799413737 -0.592046847553164 -0.0479482209571394 -0.510106860604033 0.307092917049527 0.890594964773802 1.04017447028178 -1.72454752774513 0.583111497355975
0.106928268545383 0.0216743884448244 -0.0828612127355818 -0.874353571610444 -0.669603620098886 -0.174533848560044 -0.029214658787901 0.0136618066951861 -0.448098055057545 0.46861930433066 0.503330721725464 0.376266612071601 -0.627693117574129 0.0364872774302534 0.483505726828488 -1.67759252342574 -2.41536119529796 2.49022319601343 2.75541872315754 -1.59469300127286 2.27646513212283 0.429379662389116 1.72258783392868 -1.22081699968477 -1.0131020535404 0.965208339942106 -0.785264636017086 0.152739389659659 0.310045313283357 0.274488260495967 -0.631361308558023 -0.167536852034095 -0.479821337903051 -0.369115092325542 -0.0700555829504938 -0.986827192587357 0.375263882357072 0.116933968435285 -0.538555845266327 -0.194385582916074 -0.315392176653447 -0.705212609143285 0.900720220898899 -0.161585008402906 -0.174262854426937 -0.204856652237591 0.151822020525956 0.510201477151455 0.407302639397381 0.0539142056484051 0.27336726009716 1.77003623268966 3.30200926164926 -1.7840723918116 0.0233363486691108 -0.84390864059587 0.336414790783827 -0.752968511683381 0.902200661333837 0.151535599781857 0.958862346400052 -2.28163124703413 1.25091663172329 -1.15415938491561 -2.13944185952223 1.20858112606568 -0.123619861639547 0.674744795322406 -0.146579286780068 0.845884275243676 -1.37794603150242 -0.673483155653381 -1.54206897452382 3.26253462100026 -1.43157664461874
-0.0280741180151698 -0.0384199746774627 0.0650691880572681 0.719249796705962 0.168042587764474 -0.55879195934626 0.106264410052328 -0.3623186417425 0.238162962481138 -0.482948311951283 0.0631298059452953 0.1086663333839 0.592775497812388 0.269810912042963 -0.376475899760736 0.45301477309112 1.12054351401148 -1.19406417090113 -2.36908984695573 0.797697970256882 -0.68147491147818 -0.0970197563047347 -1.02497077381787 -0.264708303346925 1.70824005726469 -0.451525590909952 -0.470415733180767 0.125801184433922 -0.28538716116235 1.34343438871997 0.117418364020458 0.0836312577343037 0.727222012156835 0.157705215738228 0.159043988462216 -0.264077354957322 -0.574141437284053 0.0391622517763975 0.412140424604709 -1.08478694372192 0.235933045862135 1.04702697088476 -0.291739325348802 0.406383213382212 0.667962228689257 1.28755046195797 -0.125627120839888 -0.967997985429963 0.186957412612878 -0.227596505281649 -0.68785021558112 -0.302319409388001 -0.25044948680632 0.375791472453024 0.369223078602491 0.731079179125391 -0.359395813179738 0.0242364914205382 0.287960834096309 0.379663551812206 -0.207437524256679 0.450680212627549 -0.142312029069288 -0.105277878279341 -0.120810418667582 -0.155981034849604 -0.56308647073646 -0.33158754709401 0.185687802528174 -0.319785932574368 -0.169267974897666 0.197494302141298 0.577269953993385 -1.42513783430055 0.375224030278674
0.0306465053982121 5.86211217724787e-05 0.21244988727841 0.625040511813924 0.100477631158761 -0.183725023389529 -0.798289837898637 0.0863766802706481 0.305650528921704 -0.675064126169956 -0.102786737714194 0.178972598763026 0.372178303048337 -0.042621155071157 0.0116566043763108 -3.17120728415186 -2.39537833474849 0.848185411383429 1.39175104856965 -1.91805507938553 1.11240803359427 0.971729168408745 1.72767912977666 -0.919719377887396 0.227751285611943 1.0621445354373 -1.44585088777034 0.617293781993728 0.0950425789958296 1.29490149920621 -0.322956358243563 -0.014503328324841 -0.327992889622515 -0.674671776030373 -0.116027397929278 -0.418574606939605 -0.119767579764472 -0.0122446153653181 0.650810408367142 -1.06391679593018 0.277307730765077 0.582191557120441 1.38099432983459 -0.240017755342834 0.44950059110697 0.236805420713775 -0.297513248733208 -0.378645395486684 0.381575680244759 0.391225282530912 -0.256403387318974 1.80572646855195 3.13238056116455 -1.59133128562736 -0.683961681170212 -1.46661176373421 0.231003215209216 -0.31669135440922 0.577171480793214 -0.0838958241128295 1.10999299764335 -1.71634571290065 0.530108490196876 -1.10176238645835 -2.20240582939935 0.807630393744569 0.618759567148223 1.01998746424684 -0.0229506833942918 0.971118017503248 -1.0076068375946 -0.542573448989207 -1.8130741633678 3.06226584287192 -1.04380563739929
-0.0370812019534745 -0.0185456146253099 -0.0250124499534739 0.656619812956832 -0.0560767593994065 -0.44509089435469 -0.532394713946003 -0.394827910418087 0.157443991792084 -0.385940125604793 0.253151971942068 -0.13509983131999 1.3599089808195 0.259752247455319 -0.33990197619874 -3.51867652726291 -1.70578131258262 1.52108878357367 2.82319630988477 -2.22844132077183 2.39833690162672 0.406307108767981 1.21588408370965 -1.04443221491578 -1.64717021810729 1.05483669269984 -1.6323904963355 0.308036511421917 -0.216146103272274 0.563172602647836 0.0147822928736267 -0.00178640155296132 -0.113562739713002 -0.102462007552796 0.088322233027018 -0.760373799180271 0.0192354412468694 -0.0283487116908409 0.167533509601713 -0.806413491247424 -0.245193126220721 0.399915349613315 1.68265579426375 0.384222629580933 0.215222820604358 -0.156043769734308 0.440433857606159 -0.0147604385080536 0.157118233189953 -0.375870662389454 0.298292035478159 2.28677062248636 3.35564784518126 -1.62033125741227 -0.614340871539531 -0.579092865192362 -0.722555976551893 -0.481815998704415 0.228970244990554 0.406505083609055 0.992875195427067 -1.73852712262677 0.925152116058679 -1.79585600861842 -2.09044231502593 1.15900128388587 0.394704240419962 0.49827002198929 0.459918952840928 0.577616538520355 -0.91350373920823 -0.178357076984415 -1.60163214800759 2.8130921367947 -1.63971427990431
0.0221418147579049 0.0323879126691113 -0.0911581583478533 -0.596699256318396 -0.698239009644009 -0.0281684774524089 -0.285412615070488 -0.0388184954614422 -0.0820546580908438 0.547856034813494 0.530843568210681 0.141899881445598 0.0171567054155953 0.0828193037757182 0.28352156967296 0.150781238504312 0.468291488847064 -1.93149217178059 -1.49065130875441 1.54737598581551 -1.08546854281761 -0.985405630384374 -0.209387704996347 0.0419974057666832 1.72804216935536 -0.821616416380786 -0.668594462629777 -0.0171237953121441 0.414919785685238 1.19751356111911 0.0585822981348136 -0.104632531719477 -0.16010636773925 0.140872983373847 -0.214006432327579 0.0627523681963392 0.176958397587739 -0.00396258214367299 1.22578873929755 -1.48248240401337 -0.421782313585366 -0.450130253945657 0.537080547035053 -0.232515794417056 -0.273206052012286 0.93782199166703 0.276329940738319 0.474114520276464 0.783706291196634 0.0518323844949325 0.624623479096753 -0.628008334658748 -1.19438864395234 0.768098160414528 0.657281614568421 0.374039009444247 0.705940230961777 -0.75081392834806 0.0693755265158964 0.000260195505411177 -0.695347805633783 0.502809559384092 -0.27275739474258 0.255567265003167 0.641047677600376 -0.460372752314299 -0.506514260014003 -0.348559904508242 -0.548508580458487 0.423622708276802 0.335334156683785 -0.282323436219189 1.00098727881761 -1.03949698494901 0.807831196797658
0.0592597834675789 -0.0349428165596951 0.141787010075168 0.0687247806421853 0.230437572806148 -0.476257276543358 0.0442021255877314 -0.580867182566712 0.780376200103664 0.0322716988662992 -0.0175290009608872 0.326538931536447 -0.825640447858247 0.179918507127066 -0.364125097889751 -0.0459957262258227 1.30446239847915 -0.250989418191066 0.954579147857913 0.358204107480548 -0.0144513920678321 -1.30585130768887 -1.01405901764232 0.159829717182114 -0.0767332486288921 -0.603817608850821 -0.550454133214857 -0.724051072267274 -0.218916208386207 -0.150012993276872 0.955436353208744 0.121302527558251 -1.19928762138328 0.957572938831241 0.233474815400439 0.190541271456678 -0.968949807328216 -0.153549029626596 1.05839998272899 0.363604963989112 0.0243282797559451 0.749651533209755 0.35084381426572 -0.0112583407025145 0.480539960865131 -1.29350641935209 0.126897759365324 -0.279896316089662 1.62557013450541 -0.0801026775798936 -0.636342304137402 -0.543221366650903 -0.854774374048619 0.42390424392742 -0.0623682455826195 0.0667157216705618 0.0817345559127441 0.225093794758257 -0.312973026939599 -0.00561760039301266 -0.379502343727332 0.197547009728856 0.0971184866150884 0.698173703657473 1.02391070853248 -0.243243459701419 -0.14217293246017 -0.087591782996511 -0.150587377426169 -0.251015900539937 0.375929797731593 0.0488787027101859 0.283675578672704 -0.272747624555618 -0.218035606008704
0.0715046559430802 -0.037633217516832 0.116486082496129 0.234060255287614 0.220184018699629 -0.116595868544361 0.0838330892281256 -0.473046741685582 0.527748475825167 0.254807761521957 -0.0704674734640004 0.274548424278839 -0.722352602396972 0.185004403661195 -0.291524638345819 -0.281542849702955 1.60698646757299 -0.965949845710491 1.50444398453285 0.767459498719428 0.486544512083878 -2.01697590838494 -1.45730797464448 0.376496725685577 -0.302425338783485 -0.817091277156244 -0.767173335085513 -1.0248201072505 -0.114003940787394 -1.14883668990275 0.858554407962211 0.240092317295965 -2.27160806365176 0.897788907700091 0.143702480940102 0.893746621399623 -1.00137448675353 -0.284790408427114 2.04981067855248 1.02881482816708 -0.0452958723071179 0.476098639560316 0.573450068001395 -0.0420786525845783 0.515957659933219 -2.75637980102239 0.12971131610022 -0.153252067364985 2.47094456025578 0.0138371558401371 -0.281724369492303 -1.18516147369721 -1.99985005619133 1.3294630213642 0.270464743238873 0.689547657010689 0.119905647932857 0.377175496569258 -0.731140885569362 -0.238563025926217 -0.767813539441712 1.06797810838421 -0.310201893384934 1.24811258806517 2.04558918645431 -1.02304733253725 -0.230468683138317 -0.589613813889423 -0.209849217775214 -0.396914873775224 0.867419567079383 0.423284094165511 0.812275089204305 -1.31519263486535 0.188235764443811
-0.0415531193700917 0.00730167209305536 0.127224803518371 0.57977857805099 0.315131724037853 0.623781957467098 -0.684094607134933 0.182774487042191 0.107247085172567 -0.434414393996785 -0.400091470088816 -0.18903357734232 0.365019327106965 -0.0775701422752492 -0.0135980433697494 1.31382506580084 0.714782250162459 -0.736169960753001 -1.27444684147054 0.397423951937985 -1.68576374215842 0.526602535738589 -0.804521417409162 0.953140102162472 -0.158175470263323 0.189623388102609 1.86948388045447 -0.183625778858808 0.168548323494854 -1.23930090786611 -0.109163841588417 0.043777122454881 0.11542010367653 0.0316471782312757 -0.109031172733879 0.54866721744153 0.282477702329116 -0.14044669469008 -0.467542012662999 0.820237277358034 -0.0644025013521978 -0.200522545879176 -0.782031218353004 -0.388496572156476 -0.582587763912771 -0.283069055750505 -0.116430546696555 -0.152456054237759 -1.04910647804658 0.23230882071957 0.216213466140276 -0.877065055602604 -2.10410617860259 0.956677166952928 0.0342306213521962 0.753342349889773 0.58550159361912 -0.207487917852589 -0.219751302261282 -0.231318946514201 -0.318373369227797 1.26811370343765 -0.849126948874354 0.965019878177811 1.59484212517912 -0.460287905953838 0.438287244686517 -0.565005798254142 -0.474490415364321 0.292035773390046 0.942625324109808 0.190885799102183 0.753445451073241 -1.82074093192102 0.98795590629166