0.4331301959 0.1081107277 -0.0755117722 3.1579959783 3.9968033536 5.0083671623 2.3185711796 1.5050418994 2.2091938622 7.5117771933 1.6160563446 0.2280887145 8.1329820065 4.7301275826 2.7783726936 1.1830366512 4.6299341844 2.3490875165 4.292966609 1.6451213611 4.2346828006 9.3364639971 1.6011443633 2.9317958156 6.3205798084 4.6310622065 0.5193662319 1.6074578391 4.5835143186 3.8379043616 3.6126510979 1.8881496779 0.6852066833 9.0856981075 1.5212783485 1.4100953169 6.6409538187 4.6834911092 3.9575194771 4.784208118 4.7652895861 0.7251928591 0.4608246388 1.6497123032 3.1998123965 5.7881003711 1.3382787243 4.3438902913 10.0517441869 4.6268338109 2.179881049 1.763174543 5.8903591219 1.612409973 3.5106190877 0.5647923809 3.4428933956 8.553765406 2.7702644557 3.6386768014 6.9108318876 3.3239017068 1.1691567098 8.7175789948 0.3536926445 3.7038133024 7.1101150187 5.7664092343 1.2831131375 1.827587258 3.4321139021 1.5426743971 3.9747293962 3.0032846519 3.498638548