-0.460249853646723 -0.0936063615124039 0.10775873443716 -0.00429374005965085 0.00498279535066069 0.0611333453726493 0.0915129704006867 -0.0334451497424816 0.0449536586532619 0.030391194986282 -0.00196175069791234 -0.0396240216654474 -0.0128498527366006 -0.022612326393184 -0.0276917951727327 0.0317615922628053 0.0351742157245865 -0.0449014652860698 -0.041081836404263 -0.0299962737448674 0.0645757936156831 0.0576273909143619 0.000145524363698346 -0.0170055246278663 0.095201473089055 -0.00584565712552226 0.0125973705366858 -0.00364736505905431 0.0227820191141044 0.0262440077310624 0.0458910823812552 0.0418009735867087 0.0482315563790397 0.0122569566541123 -0.00323316055389877 -0.0706299670997908 0.0285610847021745 0.00176994650123572 -0.0443039412202836 -0.0143547186389441 -0.0138703230537715 -0.0153996144235202 -0.0234749310578624 -0.0103011194904139 -0.0265263147122298 0.0174834924584586 0.0276570852979989 0.0325334370328096 0.0116386066634859 0.0521895105394149 -0.0543687764523251 0.0801692691173457 -0.0457319311778466 -0.0298924012308495 -4.98793755432494e-05 -0.0321518855209221 0.103758614206738 0.00473571246459336 0.0225981853331073 -0.0608649223413753 0.0626199564519847 0.0726606233268041 -0.013492371084449 0.00628968641193047 0.00489846321056695 -0.0426021289175993 0.0198756456030688 0.0123911681697493 -0.0454010303720519 0.0348767392426095 0.010267438056413 0.00743845471052448 -0.0708904197153852 -0.0165622666720077 0.0234798161513434