-8.20023022396976 0.0999053389859864 1.13292654410109 0.0999053389859864 -1.05699848647174 2.18393071023366 1.13292654410109 2.18393071023366 1.65842862716737