9.964265 0 0 -0.000032822313 6.268599999914 0 -0.000008798030 -0.000000000046 5.040899999992