2.9892703e-05 1.25372e-05 1.51227e-05 4.982157993762 -2.3e-11 2.520460081796 2.3445812e-05 3.134312537157 1.51227e-05 4.982151546871 3.134299999934 2.520460081796 2.864603262513 4.70141865689 4.944644014492 2.117563268172 1.567193880156 2.424199055396 7.099689866964 1.567181342978 0.0962761491 7.846729861305 4.701406119712 2.616721108196 1.084561797453 4.701475074315 2.235911358597 3.897585461976 1.567137462735 4.756341194993 8.879731332059 1.567124925553 2.804988641396 6.066707667501 4.701462537133 0.2845789686 1.128451686819 4.701456268501 3.781783997994 3.853708938705 1.567162537167 1.261344079798 8.835841442607 1.567149999967 1.259146247398 6.110584190738 4.701443731301 3.779576083794 4.669258445235 4.701443731328 0.807789102299 0.312903763493 1.567168805748 3.328249184095 5.29503468425 1.56715626854 4.233126020394 9.651389365975 4.70143119412 1.712676020397 1.785721829056 5.940827443104 1.593443612698 3.19644760147 0.327791362558 4.113893612694 8.178538393453 2.80646475713 3.447496714495 6.767878434806 3.462135242744 0.927046714499 8.17857130042 0.327772556764 3.447476550895 6.767855492239 5.94081490591 0.927026550899 1.785754735991 3.462141511338 1.593423449098 3.196414694638 2.806471025724 4.113873449094