0 0 0 0 0 0 0 0 0 0 0 0 -0.211240440976577 -4.08805191308075e-05 -0.090577346443976 0.211160993929965 6.76199781849206e-05 -0.0908311141948068 0.211240440976577 4.08805191308075e-05 0.090577346443976 -0.211160993929965 -6.76199781849206e-05 0.0908311141948068 2.01008921212759 -0.000107472056582878 0.930379937413941 -2.00934256415554 -6.37633254367312e-05 0.932912472718585 -2.01008921212759 0.000107472056582878 -0.930379937413941 2.00934256415554 6.37633254367312e-05 -0.932912472718585 -0.194268083562345 8.9988564124419e-06 -0.10243269699191 0.194274768427109 -1.56837211759702e-05 -0.103986670939247 0.194268083562345 -8.9988564124419e-06 0.10243269699191 -0.194274768427109 1.56837211759702e-05 0.103986670939247 -2.90147633337587 -2.51967979548373e-05 1.04903705829712 2.90148790333412 -4.65369431614853e-05 1.04898075116699 2.90147633337587 2.51967979548373e-05 -1.04903705829712 -2.90148790333412 4.65369431614853e-05 -1.04898075116699 0.576458771365349 0.333771440990218 -0.0569028544180687 -0.576924397907147 -0.334324742104492 -0.0572414685293597 -0.576632063628834 0.333716933631377 0.056920080800344 0.576997160088996 -0.334320885451744 0.0572705219800628 -0.576458771365349 -0.333771440990218 0.0569028544180687 0.576924397907147 0.334324742104492 0.0572414685293597 0.576632063628834 -0.333716933631377 -0.056920080800344 -0.576997160088996 0.334320885451744 -0.0572705219800628