32.9470910658143 0 0.00196523060338886 0 9.84187486177142 0 0.00196523060338886 0 8.47407436181277