10.550368 0.000000 0.000000 0.000000 6.305501 0.000000 0.000000 0.000000 4.976832
10.504840 0.000000 0.000000 0.000000 6.536511 0.000000 0.000000 0.000000 5.050457
9.230035 0.000000 0.000000 0.000000 8.543438 0.000000 0.000000 0.000000 5.093854
9.302161 0.000000 0.000000 0.000000 8.897575 0.000000 0.000000 0.000000 5.334079
9.335193 0.000000 0.000000 0.000000 8.885359 0.000000 0.000000 0.000000 5.027948
9.117079 0.000000 0.000000 0.000000 8.962500 0.000000 0.000000 0.000000 4.962774
9.054979 0.000000 0.000000 0.000000 8.913758 0.000000 0.000000 0.000000 5.034565
9.156073 0.000000 0.000000 0.000000 8.838879 0.000000 0.000000 0.000000 5.287165
8.967972 0.000000 0.000000 0.000000 8.589039 0.000000 0.000000 0.000000 5.097035
9.378262 0.000000 0.000000 0.000000 8.777656 0.000000 0.000000 0.000000 5.059327
9.582334 0.000000 0.000000 0.000000 8.641732 0.000000 0.000000 0.000000 4.994385
9.372087 0.000000 0.000000 0.000000 8.864779 0.000000 0.000000 0.000000 5.091027
9.033451 0.000000 0.000000 0.000000 8.513818 0.000000 0.000000 0.000000 5.135153
9.459816 0.000000 0.000000 0.000000 8.951463 0.000000 0.000000 0.000000 5.227160
8.879319 0.000000 0.000000 0.000000 9.025723 0.000000 0.000000 0.000000 5.290422
8.953588 0.000000 0.000000 0.000000 8.340565 0.000000 0.000000 0.000000 5.305642
8.569186 0.000000 0.000000 0.000000 8.869793 0.000000 0.000000 0.000000 5.503866
9.311665 0.000000 0.000000 0.000000 8.633096 0.000000 0.000000 0.000000 5.095429
8.912419 0.000000 0.000000 0.000000 8.746256 0.000000 0.000000 0.000000 5.307265
8.166910 0.000000 0.000000 0.000000 9.251925 0.000000 0.000000 0.000000 5.271961
8.773490 0.000000 0.000000 0.000000 8.873618 0.000000 0.000000 0.000000 5.202998
9.094432 0.000000 0.000000 0.000000 8.704950 0.000000 0.000000 0.000000 5.236926
9.020696 0.000000 0.000000 0.000000 8.673065 0.000000 0.000000 0.000000 5.200905
8.812813 0.000000 0.000000 0.000000 8.928512 0.000000 0.000000 0.000000 5.495415
9.244180 0.000000 0.000000 0.000000 9.045595 0.000000 0.000000 0.000000 5.071347
8.799671 0.000000 0.000000 0.000000 9.029748 0.000000 0.000000 0.000000 5.309124
8.805030 0.000000 0.000000 0.000000 8.683826 0.000000 0.000000 0.000000 5.456319
8.946868 0.000000 0.000000 0.000000 8.643891 0.000000 0.000000 0.000000 5.275710
9.237295 0.000000 0.000000 0.000000 8.567622 0.000000 0.000000 0.000000 5.274794
8.693622 0.000000 0.000000 0.000000 8.970706 0.000000 0.000000 0.000000 5.395494
8.987343 0.000000 0.000000 0.000000 9.126037 0.000000 0.000000 0.000000 5.439243
8.379627 0.000000 0.000000 0.000000 9.433980 0.000000 0.000000 0.000000 5.341426
8.939525 0.000000 0.000000 0.000000 8.993998 0.000000 0.000000 0.000000 5.127828
8.613560 0.000000 0.000000 0.000000 8.683072 0.000000 0.000000 0.000000 5.300875
10.184982 0.000000 0.000000 0.000000 6.472667 0.000000 0.000000 0.000000 5.081123
9.383169 0.000000 0.000000 0.000000 8.681671 0.000000 0.000000 0.000000 5.150479
10.325796 0.000000 0.000000 0.000000 6.201954 0.000000 0.000000 0.000000 5.137825
10.809559 0.000000 0.000000 0.000000 6.254465 0.000000 0.000000 0.000000 4.934821
10.468345 0.000000 0.000000 0.000000 6.172041 0.000000 0.000000 0.000000 5.054832
9.366452 0.000000 0.000000 0.000000 8.376864 0.000000 0.000000 0.000000 5.017308
8.820822 0.000000 0.000000 0.000000 8.295037 0.000000 0.000000 0.000000 5.260761
9.010688 0.000000 0.000000 0.000000 8.382192 0.000000 0.000000 0.000000 5.162606
8.971929 0.000000 0.000000 0.000000 8.200143 0.000000 0.000000 0.000000 5.268405
9.057994 0.000000 0.000000 0.000000 8.077483 0.000000 0.000000 0.000000 5.287557
9.125093 0.000000 0.000000 0.000000 8.465226 0.000000 0.000000 0.000000 4.961112
9.109606 0.000000 0.000000 0.000000 8.390256 0.000000 0.000000 0.000000 5.241398
10.321055 0.000000 0.000000 0.000000 6.373632 0.000000 0.000000 0.000000 5.026703
10.527755 0.000000 0.000000 0.000000 6.296609 0.000000 0.000000 0.000000 4.957447
10.341911 0.000000 0.000000 0.000000 6.353458 0.000000 0.000000 0.000000 4.957407
10.312955 0.000000 0.000000 0.000000 6.087537 0.000000 0.000000 0.000000 4.749313
10.153593 0.000000 0.000000 0.000000 6.148713 0.000000 0.000000 0.000000 4.735602
10.252006 0.000000 0.000000 0.000000 6.046744 0.000000 0.000000 0.000000 4.848164
10.048609 0.000000 0.000000 0.000000 6.215918 0.000000 0.000000 0.000000 4.877984
10.046693 0.000000 0.000000 0.000000 6.151963 0.000000 0.000000 0.000000 4.870175
10.011504 0.000000 0.000000 0.000000 6.159593 0.000000 0.000000 0.000000 4.925173
9.943053 0.000000 0.000000 0.000000 6.107019 0.000000 0.000000 0.000000 5.050677
9.830517 0.000000 0.000000 0.000000 6.228650 0.000000 0.000000 0.000000 5.053337
10.013181 0.000000 0.000000 0.000000 6.376912 0.000000 0.000000 0.000000 4.874983
9.784871 0.000000 0.000000 0.000000 6.131191 0.000000 0.000000 0.000000 4.949733
10.293991 0.000000 0.000000 0.000000 6.024479 0.000000 0.000000 0.000000 4.899751
9.956253 0.000000 0.000000 0.000000 6.181885 0.000000 0.000000 0.000000 4.843232
10.468987 0.000000 0.000000 0.000000 6.078347 0.000000 0.000000 0.000000 4.935785
9.754145 0.000000 0.000000 0.000000 6.392477 0.000000 0.000000 0.000000 4.924618
10.180085 0.000000 0.000000 0.000000 6.285560 0.000000 0.000000 0.000000 4.874441
10.029075 0.000000 0.000000 0.000000 6.097169 0.000000 0.000000 0.000000 4.952181
9.891473 0.000000 0.000000 0.000000 6.215334 0.000000 0.000000 0.000000 4.917025
10.083524 0.000000 0.000000 0.000000 6.245713 0.000000 0.000000 0.000000 4.948343
10.064228 0.000000 0.000000 0.000000 6.176436 0.000000 0.000000 0.000000 4.804039
10.362917 0.000000 0.000000 0.000000 6.160549 0.000000 0.000000 0.000000 5.059594
9.492376 0.000000 0.000000 0.000000 6.395667 0.000000 0.000000 0.000000 5.106472
9.886085 0.000000 0.000000 0.000000 6.289316 0.000000 0.000000 0.000000 5.074514
10.157044 0.000000 0.000000 0.000000 6.101364 0.000000 0.000000 0.000000 4.786784