0.162929 0.0674892 -0.0799289 5.09196 6.19991 2.37136 10.3212 3.36066 -0.00920534 2.98939 4.52091 0.0993206 2.20246 1.51018 2.4689 7.43771 1.57053 4.99604 8.20139 4.74319 2.60031 1.17064 4.68781 2.24281 3.96524 1.5035 4.66568 9.38283 1.59879 2.64547 6.41331 4.60616 0.155408 1.23765 4.74336 3.80677 3.88737 1.38733 1.21517 9.28391 1.49841 1.09893 6.45248 4.69333 3.63191 4.92859 4.43111 0.670052 0.227326 1.65051 3.36365 5.4132 1.58041 4.29731 10.2076 4.69252 1.72195 1.89858 5.97691 1.69187 3.18222 0.169704 4.09732 8.54238 2.82995 3.10666 7.34348 3.54525 0.767147 8.54171 0.433231 3.41326 6.9698 5.94237 0.818883 1.77605 3.48545 1.51358 3.11187 2.66205 4.00498
10.3399 -0.318638 4.90206 4.96626 6.12303 2.47351 10.4209 3.11601 4.97613 3.06114 4.76005 4.91014 2.3336 1.67987 2.62989 7.3546 1.597 -0.102692 8.15955 4.81267 2.45132 1.12263 4.63921 2.18886 4.03433 1.45902 4.79386 9.37538 1.56817 2.72413 6.42231 4.70217 0.211867 1.2781 4.57185 3.73405 3.61376 1.22111 1.24244 9.32748 1.40029 1.12138 6.58885 5.02013 3.78268 4.88905 4.64565 0.54881 0.257749 1.35768 3.29707 5.52992 1.16698 4.53076 10.0955 5.06592 1.80434 2.1055 5.62403 1.45552 3.20827 0.37435 3.88577 8.71167 2.90076 3.27766 7.13276 3.39014 0.721729 8.50773 0.438388 3.39482 7.07193 5.81387 1.11984 1.46633 3.23782 1.53677 3.41233 2.80153 4.26301
8.98478 7.36835 0.0564251 6.22013 -1.13539 1.6505 1.46441 2.53793 4.5651 3.26053 4.54703 0.650047 2.77372 0.0619882 2.86047 7.02622 2.25518 4.64137 7.71825 4.21111 2.15073 1.4027 5.51165 3.0768 4.1986 1.17146 0.41189 8.96518 1.33988 1.88773 6.01875 5.3959 4.43883 1.52593 5.41246 4.60966 4.42586 0.5782 1.88602 8.80281 1.94349 0.484142 6.05633 4.80871 2.98645 4.63408 5.59707 4.97078 1.23635 1.37796 2.48146 5.69059 1.01321 4.89668 9.09561 5.36452 2.85858 1.96971 6.9178 2.5424 3.22185 0.246295 4.71787 8.19587 2.33322 2.92389 6.61569 4.2227 0.223386 8.35629 -0.0559635 1.98316 6.77041 6.68528 4.70704 2.17688 4.39373 2.25276 3.51263 2.56666 0.520566
8.70953 -1.21053 4.36021 6.24066 -1.40812 1.76775 0.890417 2.78285 4.83526 3.50059 4.69296 0.404282 2.36148 0.152044 2.89991 6.91525 1.90743 4.70659 8.10072 4.33655 1.97146 1.8342 5.65034 2.89961 3.74176 1.23181 0.367343 8.5327 1.2032 2.18629 6.6011 5.15306 4.70187 2.08147 5.22936 4.35125 3.76997 0.695022 1.86757 8.553 1.31519 0.62527 6.78497 5.28063 3.16811 5.09665 5.17965 4.99348 0.723729 1.23098 2.74677 5.23058 1.19517 -0.131161 0.6735 4.81517 2.44915 1.55312 7.20845 2.87468 2.78318 0.291286 4.85077 7.90667 2.53353 2.91621 7.37182 3.85565 0.0901036 7.77421 0.00207254 2.74789 7.08983 6.2606 0.234357 3.0566 5.49821 1.91324 3.13845 2.69804 0.30331
8.66655 -1.19148 4.18801 5.87888 -0.998466 1.87528 1.16054 2.66541 4.2362 3.69466 4.56681 0.568357 2.28079 -0.223242 3.11266 6.93333 2.10424 4.47185 7.88641 4.37752 1.74545 1.71689 5.46723 2.96625 3.88138 1.15713 0.649159 8.59556 1.27418 2.04173 6.5556 5.5042 4.70026 2.22223 4.63015 4.18359 3.85334 0.140698 1.93606 8.53221 1.43717 0.460536 6.85595 5.67612 3.24465 5.08144 5.92041 0.00812058 0.761537 1.04933 2.60587 5.25482 1.184 0.0893198 9.79192 4.50939 2.33293 1.34787 6.91147 3.25308 2.8124 0.720224 4.63847 8.076 2.5974 2.77692 7.07275 3.95031 0.118895 7.73594 0.137175 2.60161 7.52164 6.3569 0.582023 2.87177 5.59475 1.89526 3.50404 2.64593 0.966972
8.57437 -1.07489 4.33659 5.58452 -1.14194 1.73537 0.837489 2.8313 4.09052 3.55551 4.43674 0.686256 2.42449 0.0637222 2.92427 6.79391 2.0219 4.23459 8.02676 4.54061 2.23731 1.9555 5.60595 3.10699 3.97252 1.28203 0.441493 8.37375 1.03548 1.902 6.64611 5.25506 4.88765 2.03359 4.73808 4.50146 3.85122 0.206156 1.56484 8.50801 1.21859 0.35387 6.75293 5.45566 3.32208 5.23421 5.62125 0.308157 0.773686 0.630586 2.26368 5.18788 0.774441 4.60546 0.689584 4.80693 2.4356 1.61981 7.08627 3.45476 2.7557 1.408 4.34007 8.04153 2.41724 2.51518 7.18388 3.82101 0.308821 7.33556 0.0892954 2.50428 7.64513 6.24894 0.52838 3.14997 5.54168 2.13451 4.03235 2.69131 1.14415
9.56607 6.99119 0.0977314 5.85719 7.539 1.93311 1.04802 2.0881 0.173003 3.82518 4.47396 0.0979624 2.21804 0.0711342 2.89697 6.58726 2.09908 0.089415 8.09792 4.5399 1.93342 2.26252 5.63096 2.50107 3.74009 1.19976 0.477175 8.14646 1.19104 2.57085 6.61837 5.57563 4.39044 2.64023 4.49865 3.48447 3.72181 0.30483 1.7217 7.72432 2.55999 1.80556 6.64259 5.62276 2.84195 5.86468 4.20727 4.93418 0.703433 1.09006 2.43027 4.97428 1.25674 4.59116 0.897077 5.17102 1.88075 1.87773 7.03644 3.09572 2.62178 0.605009 4.55172 8.07694 1.30837 4.13299 8.00964 5.51213 5.05868 7.49737 0.0113372 1.83843 5.71895 6.67591 4.83134 3.23085 5.77301 1.24277 3.13766 2.57887 0.822747
8.04434 -1.10484 4.57061 5.67602 -1.19932 1.84092 9.72969 2.78345 4.83056 3.44329 4.28614 0.140511 2.32844 -0.0326076 2.9853 6.69725 2.49767 4.69724 8.37545 4.2888 2.32423 2.08897 5.4783 2.60919 3.9139 1.27216 0.593795 8.47417 1.28708 2.254 6.64521 5.2451 4.62275 2.2813 4.79429 3.96005 3.85255 0.211691 1.76928 8.47463 1.50519 0.728942 7.28156 5.57375 3.16272 5.26262 4.32288 4.59793 0.813752 1.28391 2.77749 5.42224 1.52398 0.406909 0.966125 4.68424 1.8593 1.64555 6.99698 2.99453 3.39519 0.605341 4.54649 7.723 2.53077 3.04254 7.66564 4.37732 0.0947897 7.59119 0.0319912 2.57764 6.42694 6.49256 0.129281 3.37738 5.50799 1.7091 3.09539 2.56309 0.79268
8.93328 -0.907146 4.97192 6.1941 -1.07748 2.72675 1.20992 3.07463 0.33211 3.71833 4.54833 4.84811 2.43168 0.0487249 2.5802 6.79241 1.99701 4.87418 7.6487 4.40361 2.30475 1.87741 5.35068 2.32289 3.73762 0.864953 -0.0192137 8.64018 1.4718 2.65306 6.54255 5.49536 4.97716 2.14546 5.06756 3.8893 3.8454 0.466225 1.44677 8.27154 1.57475 1.11897 7.32615 5.83746 3.6758 5.13156 5.84602 4.63801 1.26782 1.54515 2.82353 5.30254 0.788408 4.60133 9.48929 4.55251 1.90516 1.63837 6.95621 2.04507 2.77594 -0.117168 4.32259 7.89757 2.7581 3.25012 6.57855 4.00893 0.422967 8.07555 0.177904 3.36066 7.13201 6.31475 1.07051 3.03401 4.78141 1.55947 3.09556 2.27019 4.92678
8.40173 -1.19591 4.62497 5.58048 -0.660042 2.05092 0.680778 3.17268 0.0714816 3.49516 4.35184 4.81363 2.10895 -0.197669 2.65534 6.93711 1.9156 4.72532 8.22143 4.527 2.67326 1.93221 5.536 2.21075 3.81068 1.10949 0.0329969 8.55791 1.24631 2.52399 6.74471 5.42758 0.2652 2.29661 5.6995 3.76653 3.17229 0.964096 1.45783 8.55767 1.34104 0.962511 7.5894 5.62544 3.97606 5.31427 5.61478 4.76314 9.78077 0.311044 3.05286 5.30953 1.07229 0.207598 9.88608 4.89018 1.9271 2.1841 6.9828 1.68959 3.36024 0.0521633 4.04204 8.45573 2.61302 3.31926 7.24156 3.97768 0.719645 7.30227 0.506753 3.04345 7.01975 6.58444 1.26673 2.97976 4.58439 1.57716 3.26312 2.54693 4.68586
8.91509 -1.07038 4.72345 6.15729 -1.12868 2.02617 1.15593 2.3945 0.00191828 3.45181 4.54856 0.252381 2.18848 0.0279605 2.96195 7.25993 2.26207 4.75985 7.89933 4.29816 1.869 1.50218 5.4748 2.85853 3.95124 1.15241 0.495303 8.86924 1.29114 2.22947 6.45525 5.4563 4.52535 1.77828 4.55542 4.12373 3.33887 -0.0354201 1.32731 8.83052 1.33904 0.66197 6.84911 5.60426 3.01343 4.91631 5.6715 4.61962 0.728528 1.46107 2.71252 5.52021 1.07771 0.544194 9.55374 5.15496 2.35125 1.5239 6.89983 3.32168 3.40193 0.77389 4.07765 7.98124 2.52899 2.69062 6.82107 4.03504 0.152881 8.24262 -0.0420132 2.64749 7.2098 6.4881 0.350159 2.42669 5.18385 1.68905 3.35204 2.48502 1.01965
9.02516 -1.09198 -0.0512351 5.78293 -1.16 1.51496 0.812369 2.85102 4.84901 3.39466 4.54517 0.365078 2.37772 -0.0517609 2.69729 6.94268 1.77355 4.41532 8.13294 4.34861 2.4082 1.79719 5.74175 2.98476 3.61498 1.32783 0.0890881 8.72372 1.19044 2.10803 6.4396 5.26963 -0.137326 2.01894 4.74743 4.25297 3.4755 0.165562 1.08141 7.683 0.411198 1.2903 7.41372 3.91347 4.35338 5.03259 5.15069 4.4776 0.782263 0.471251 1.82993 5.01123 1.18611 4.35165 9.83149 5.55363 2.33463 2.05643 7.22927 3.56551 2.57658 1.38079 4.07718 9.11431 2.75653 1.92221 6.55409 4.87196 1.40029 8.4462 1.10136 3.67247 7.14276 6.59716 4.60571 2.86208 5.50761 1.8712 3.56989 2.75596 0.731522
9.06244 -0.678849 4.74052 5.50359 -0.968938 2.12843 1.32544 2.53871 0.364014 3.77137 4.75279 0.577534 2.35656 0.162261 2.9351 6.34897 2.19517 4.65225 7.99773 4.46203 1.90706 2.00397 5.47584 3.10707 4.04297 1.05738 0.220782 8.18922 1.11825 2.15327 6.68374 5.23445 4.31637 2.25256 4.72576 4.39071 3.92211 0.426569 1.66965 7.35999 -0.0442565 1.5158 6.75931 3.73942 3.61933 5.41577 5.54557 -0.0228688 0.657055 0.774673 2.0981 5.20648 0.520295 4.67138 0.710179 4.88821 2.56272 1.63698 6.9843 3.28181 2.62122 0.95593 4.65405 8.08898 2.47646 1.37772 7.84823 5.2434 0.152755 7.83831 1.41176 3.60764 6.93764 6.12669 3.13672 3.23996 5.47422 2.2306 4.28992 2.54274 0.463566
8.86867 -0.654461 0.148648 5.64686 -0.593896 4.4119 0.802316 3.13207 4.69988 3.61566 4.36208 4.77384 2.15099 0.222999 2.97256 6.55416 2.34882 0.278747 8.49732 4.4255 1.86545 1.9679 5.70113 2.1159 3.56194 1.16446 0.22662 8.61731 1.04046 2.88228 6.73802 4.94006 4.211 2.34339 5.06977 3.4725 2.46521 0.802926 1.1747 8.53293 -0.428937 2.33793 7.79427 3.91297 4.88824 5.46349 3.95053 4.36003 0.597667 1.34754 3.3497 4.87391 1.17024 0.891528 0.723106 5.0354 1.36976 2.00486 7.24431 2.43683 3.47204 -0.039246 4.275 8.30913 2.24435 1.94789 6.51555 6.29313 4.85475 7.76213 1.03108 4.16558 7.0132 5.18596 2.70876 3.15831 5.19996 1.13297 3.0217 2.53634 4.91773
9.23112 7.56968 1.81094 5.21534 -1.08905 2.45348 1.08484 3.06177 -0.166197 3.58578 6.06671 0.0528415 2.63578 1.65082 2.40377 7.03473 0.224622 5.01784 7.83365 4.37395 2.98563 2.19617 4.97589 2.61229 3.66035 0.284933 4.9413 8.10139 1.23552 2.45635 6.70932 6.01155 0.308888 3.29325 5.16241 3.72218 3.6591 0.448805 1.22884 7.11889 1.44596 1.25887 6.70664 5.31023 4.17385 5.31574 6.30567 0.916154 9.51885 1.0184 2.03724 5.09322 0.502523 4.3955 9.68173 4.83964 3.43244 2.18489 6.17291 1.62212 3.12451 -1.09831 4.51162 8.06639 2.43098 3.43506 7.53343 4.81148 1.14338 7.74206 -0.055414 3.27356 7.52606 7.33902 0.284924 2.14336 3.614 1.87712 2.84832 1.48105 4.23719
9.56491 -0.773792 4.19673 5.40079 -0.727822 2.49224 9.45294 3.30713 5.03849 3.73692 5.32433 0.211707 2.31995 1.55165 2.05456 6.58864 0.756395 -0.0211402 8.07663 4.8134 2.46331 2.35167 4.70026 2.72967 3.46006 0.191082 4.89671 8.09215 1.59807 2.57021 6.98166 5.83348 -0.125108 2.79459 4.36994 4.14341 2.22174 0.791275 0.401805 7.83762 1.69736 1.04106 7.05647 5.92418 3.57453 5.62771 5.31157 0.315117 9.56893 1.04154 2.82546 4.7793 0.273446 0.322686 0.914112 5.27578 2.73627 3.37545 5.65471 2.03146 3.1476 6.9751 4.72267 7.97183 2.94317 3.33598 7.96733 4.77622 0.526204 7.10416 0.559701 3.35937 7.52214 7.23308 0.350824 2.20314 3.48808 1.78971 3.54132 0.792828 3.46465
0.940907 7.37888 3.69793 5.61784 -1.07098 2.46248 9.13556 3.00611 -0.434524 3.69024 5.80057 0.171386 2.46001 1.59832 2.04571 6.55391 0.469269 5.09816 7.96324 4.68988 2.66592 2.57011 4.75328 2.90219 3.48193 0.134214 5.02645 7.9005 1.48387 2.35613 6.98129 5.92076 -0.0764609 3.47635 4.61222 4.15225 2.30761 0.96757 0.243885 7.69613 1.53137 0.834548 7.05059 5.74808 3.88189 5.62627 5.51666 0.510876 9.31314 1.07539 2.8662 4.83854 0.297982 0.217573 1.16405 5.07088 3.50817 3.00338 5.90616 1.953 3.15145 7.48491 4.98433 7.65795 2.91552 2.89063 8.06812 5.14357 0.635858 7.01559 0.424605 3.09289 7.13838 -1.35445 0.291281 2.4177 3.51146 1.94388 3.47636 0.77884 3.58569
0.772141 -1.05995 4.31094 5.2681 -1.12614 2.42015 9.48556 2.89577 -0.050497 3.73898 5.67418 4.77018 2.36529 1.74348 2.60315 6.88126 0.256687 0.23463 8.2055 4.89618 2.47317 1.91252 4.9032 2.06847 3.65206 0.28033 0.0162412 8.30512 1.43336 2.69752 6.73506 5.70258 0.0390716 3.04922 5.14452 3.11469 2.7343 0.369844 1.19904 8.22337 1.22835 1.12782 6.63138 5.48789 3.54197 5.26503 5.66592 0.65616 9.77776 1.0037 3.19705 5.03258 0.206813 0.65239 0.651105 5.58105 2.80208 2.01848 5.56318 0.684901 3.43509 -0.934763 4.2033 8.04297 2.97627 3.08275 7.65273 4.61522 0.644752 7.2252 0.519831 3.37441 7.42383 7.03911 0.389191 1.68593 3.3945 1.94629 3.60413 1.63147 4.22833
0.77049 -1.23957 4.11388 5.13653 -1.4765 2.56395 0.702699 3.0202 -0.0483593 3.62473 5.77216 -0.0235077 2.628 1.58468 2.22482 6.67357 0.452817 5.33514 7.76402 4.66848 2.35095 2.14526 4.77225 2.75332 3.54766 0.267769 4.94925 8.24476 1.36831 2.69441 6.9093 6.05122 -0.183895 2.61409 4.54356 4.23596 2.43556 1.17569 0.240883 8.03243 1.44216 1.05011 6.69814 5.49047 3.68395 5.44869 6.0589 0.359792 0.736518 0.762774 2.93114 4.85373 0.270728 0.601302 9.63404 5.45523 2.72332 3.12657 5.70375 1.98466 3.04695 7.56403 4.6796 8.49228 2.8644 3.02623 7.9166 5.03023 0.43581 7.08879 0.675985 3.43932 7.58372 7.42634 5.23649 2.14507 3.44364 1.95645 3.88399 0.802724 3.53147
1.44885 -1.39853 3.0987 5.2401 7.73323 2.24792 9.18009 2.88102 -0.0970089 3.80988 6.01593 0.0204357 2.72301 1.69204 2.31698 6.80665 0.071384 -0.0199395 7.40241 4.47554 2.48445 2.45219 4.85607 2.60912 3.6174 0.0932726 5.08195 7.65971 1.41692 2.69738 6.99152 6.18337 -0.0481493 3.4539 4.82452 3.87587 2.59977 0.709622 0.84397 7.84425 1.21866 1.15259 6.59424 5.66406 3.76012 5.59943 6.35738 0.635057 9.10577 1.58826 3.33314 5.03493 0.352083 0.488523 9.19546 5.00597 3.08151 2.82651 6.191 1.72111 3.42183 -1.40862 4.70469 6.89133 2.70427 3.07517 7.77099 5.08663 0.602203 6.99864 0.205414 3.31287 7.76618 7.54465 -0.158611 2.71949 3.57048 1.82319 3.64673 0.717278 3.67867
0.804856 -1.14278 4.1562 5.39674 7.44204 2.468 9.051 2.94324 -0.0270964 3.64679 5.79421 4.9092 2.72395 1.78341 2.48523 6.91051 0.208032 -0.104983 7.78602 4.78342 2.7309 2.09236 4.85263 2.2453 3.7379 0.170613 5.02687 8.2208 1.41074 2.5673 6.7111 5.92644 0.157078 3.35819 4.94966 3.23823 2.71279 0.795162 0.761852 8.27053 1.24939 0.917545 6.61835 5.8961 3.81962 5.28686 5.95445 0.879974 0.876307 1.10676 3.14196 5.12775 0.236578 0.511155 0.870603 5.3978 3.08783 2.30426 5.72778 1.07243 3.16801 -1.19892 4.446 7.74007 2.80187 3.06157 7.47202 4.73596 0.733694 7.32837 0.23815 3.10537 7.47986 7.21598 0.463892 1.77846 3.3582 1.81551 3.80693 1.09791 3.85855
0.837677 -0.875973 4.36692 5.51646 -0.854446 2.19662 9.54582 3.44088 5.13016 3.52084 5.80485 0.485751 2.57424 1.63347 2.22289 7.12519 0.4603 4.82088 7.64558 4.50706 2.434 1.88934 4.78935 2.98404 3.79727 0.201854 4.81902 8.33281 1.47209 2.37616 6.76271 5.82617 -0.0649535 2.5427 4.60873 4.40029 2.65225 1.01001 0.324616 8.27905 1.43183 0.796267 6.45088 5.48367 3.67483 5.45288 5.89622 0.79321 9.79201 1.08129 2.7626 5.15817 0.197363 0.260238 9.4357 5.10574 3.27619 2.47083 5.86782 1.99842 3.26819 -1.25444 4.60658 7.89602 2.76165 3.09154 7.64893 4.65763 0.550863 7.22671 0.379993 2.8776 7.66994 7.13013 -0.0372147 2.04074 3.43311 2.28581 3.81652 0.794348 3.39147
9.66056 -1.11736 1.78475 5.61906 -1.05303 2.57685 0.615041 3.2959 5.08262 3.584 6.17526 5.03921 2.45075 1.56861 2.51299 7.16034 0.237811 -0.0399359 7.67244 4.42174 2.75388 1.99189 4.84674 2.36315 3.82898 0.393564 -0.0648558 8.26806 1.4123 2.76837 6.7728 5.75536 0.272512 3.02827 5.16474 3.44637 2.82824 0.00342124 1.05987 7.93414 1.59253 1.26517 6.74987 5.60222 3.90721 5.34063 6.11182 0.786871 9.65131 0.860133 3.24618 5.31858 0.530577 0.358049 9.59208 5.29808 2.81969 2.20285 5.6439 1.02131 3.64535 -0.823108 4.1046 7.85144 2.65894 3.62654 7.38615 4.48811 0.889992 7.35214 0.143914 3.1907 7.60292 7.05666 0.47438 1.80581 3.3557 1.88696 3.28561 1.56228 4.30541
8.77005 7.48089 1.98621 5.22213 6.71835 2.46538 0.813879 3.05208 -0.206112 3.62174 5.94885 0.142159 2.37007 1.66701 2.48729 6.71232 0.259024 5.12865 8.03417 4.58575 2.55496 2.25519 4.93576 2.83684 3.67213 0.38423 5.16132 8.1581 1.42496 2.48547 6.94869 5.92659 -0.118122 2.54722 4.87794 4.34965 2.62659 1.26784 0.503595 7.86767 1.41983 0.946866 6.99561 5.59075 3.80183 5.51664 5.85955 0.460741 9.53954 0.746417 2.66183 5.02793 0.446981 0.387061 0.870523 5.62305 2.6828 3.16533 5.85836 2.06837 3.13772 -1.08343 5.23094 8.25223 2.8018 3.26946 7.92302 5.07278 0.702093 7.26066 0.431344 3.35994 7.60129 7.37549 -0.0294269 2.22656 3.49448 2.2496 3.67783 0.877362 3.62052
0.804877 7.56424 4.60812 5.37728 7.53059 2.31724 0.87018 2.63604 0.0849348 3.52449 6.05289 4.83199 2.36854 1.52235 2.61581 6.98989 0.145642 0.193038 7.8248 4.58658 2.43954 1.88119 4.8515 2.30406 3.65086 0.294281 0.0180701 8.30978 1.43214 2.66067 6.76896 6.04504 4.83239 2.17104 5.92354 3.46768 2.97391 1.56925 0.691286 8.08842 1.27783 1.13621 7.9678 5.94543 3.77422 5.35044 6.16305 4.1753 9.73598 1.01896 3.10405 5.05657 0.115786 0.574498 9.84913 5.08511 1.57275 3.085 4.90406 1.29163 2.70181 -0.946269 0.318637 8.1722 2.88851 3.20872 6.80795 4.91011 0.796446 7.32563 0.550198 3.38198 7.19586 7.42704 0.513941 1.98238 3.41401 3.03243 3.80099 0.521805 3.55482
1.15168 7.43744 3.77301 5.2823 -1.31089 2.3097 1.01499 2.57245 0.110954 3.70869 5.86879 4.67178 2.49151 1.45101 2.69259 6.73211 0.477515 0.0751053 7.78975 4.67174 2.74535 2.30602 4.65337 2.05508 3.4912 0.105687 0.101792 7.99778 1.53673 2.72748 6.81668 6.21855 -0.132369 2.81689 5.95125 2.91295 2.35406 0.902945 0.801932 7.99319 1.48843 1.10181 8.03653 6.12972 4.22881 5.62201 6.09482 4.1958 9.46234 1.30165 3.23692 4.83509 0.672979 0.647034 0.812302 4.80754 1.59838 3.23282 4.61311 0.789693 3.22274 -1.4849 0.250832 7.64888 2.95979 3.32276 6.85741 5.08947 0.901083 7.10348 0.490334 3.46334 6.93912 -1.4201 0.521357 2.62886 3.33952 2.85923 3.47218 0.42862 3.85772
9.4436 7.29019 1.39284 5.32503 -1.03143 2.37669 1.06225 3.31299 5.13658 3.83589 5.82445 5.14907 2.45744 1.41985 2.85316 6.74111 0.243052 5.1537 7.87228 4.78969 2.80831 2.4343 4.75432 2.32138 3.34367 0.14219 0.122642 7.78958 1.65639 2.48818 7.13198 5.8823 0.0200489 2.81051 4.78654 3.92327 2.74319 0.13068 1.60989 7.91589 1.27779 0.969419 8.16851 4.81772 4.91002 5.73698 5.94122 4.70345 9.26538 1.68204 3.07256 4.96317 0.265673 0.313264 0.953028 5.23095 2.09064 3.42558 5.80026 1.63379 2.73988 -1.13857 4.943 7.08815 3.04985 2.59105 6.75045 5.68526 1.51605 6.90968 0.590656 3.2331 7.93024 7.23209 -0.0929429 2.55692 3.27707 1.95776 2.866 1.33499 4.76681
9.54227 7.06853 4.38685 5.26511 6.77474 3.08181 1.02049 3.51246 0.198477 3.62913 5.79432 0.197083 2.31964 1.40902 2.11027 6.73041 0.571228 0.218282 8.11313 4.85653 2.84333 2.39151 4.75678 2.74975 3.30428 0.20203 4.95389 8.13887 1.51055 2.90112 6.83006 5.99852 0.192289 2.80965 4.76664 4.18761 2.63545 1.57683 0.208689 7.05142 0.713855 2.19891 7.98737 5.07656 4.94997 5.54782 5.41695 4.85704 9.55694 0.845543 2.55294 4.7108 0.0507323 0.208678 1.04091 5.53676 2.52002 3.5884 5.35168 2.01196 2.69016 -1.13359 -0.183392 8.13033 2.93004 2.32966 7.01037 6.05416 1.76929 8.02734 1.52739 4.46654 6.97021 7.46934 4.88976 2.11301 3.36662 2.12215 3.42453 0.351265 3.34264
0.615239 7.07322 4.0778 4.88283 -0.860675 2.84351 0.574274 3.34234 -0.0381169 3.87651 5.77066 0.0853903 2.23852 1.52883 2.78828 6.84494 0.521167 0.291377 8.03123 4.55684 2.47097 2.01572 4.71922 2.58564 3.34429 0.376688 0.175654 8.40272 1.39062 2.80102 6.94686 5.9793 5.10128 2.27439 4.71694 4.10508 3.43658 0.719927 1.72479 7.22838 0.547279 2.10661 7.88358 4.87897 4.40237 5.51989 6.13947 4.55087 9.7563 0.650838 2.77399 4.86427 0.568583 -0.238151 0.593308 5.28139 2.15346 3.13939 5.54889 1.84709 2.78725 -1.00529 5.29659 8.29338 2.71868 2.0754 6.70385 5.38642 1.2354 8.09392 1.48127 4.42592 7.86097 7.30102 5.11747 2.2505 3.19391 1.91119 2.57226 1.4503 4.67382
1.10268 7.57661 4.00785 5.78416 -1.27328 2.6428 8.85632 3.38718 -0.112041 3.74301 5.86534 -0.130063 2.54213 1.655 2.46311 6.88561 0.25326 -0.133394 7.64153 4.62258 2.49196 2.31454 4.73009 2.62871 3.60532 0.0899279 -0.101841 8.10194 1.4369 2.46677 6.89076 6.16986 5.0505 2.5297 5.82335 3.73958 3.81411 0.922111 1.31295 7.23964 0.449634 1.6556 7.65462 5.0895 4.20647 5.48952 6.24724 4.54833 9.57038 1.04148 1.96741 4.99789 0.0932194 4.6643 0.826403 4.86318 2.00092 3.12055 4.60707 1.29312 3.16231 -1.36601 0.349488 7.39595 2.77718 2.00629 6.7318 5.9371 1.23099 7.85576 1.25163 3.97879 7.5806 7.48919 4.5368 2.48244 3.3935 3.32362 2.41515 0.774679 4.45793
9.47665 -1.19177 0.862827 4.64812 -1.51836 2.68503 9.57313 3.3397 4.76874 3.51012 6.18352 0.216121 2.54072 1.66928 2.46613 6.95385 0.0707565 4.73789 7.73374 4.56585 2.31002 2.197 4.79963 2.90489 3.71717 0.361131 5.13617 8.27689 1.21145 2.09788 6.90892 5.98162 5.10634 2.87592 5.05561 4.22332 3.37084 0.531773 1.23091 7.45019 0.235421 1.25963 7.08275 4.97474 3.92907 5.5332 5.71326 0.344049 9.7511 0.654685 1.94419 5.18622 0.804355 4.81824 9.64874 4.51851 2.87402 2.44667 5.9513 1.90948 3.46782 -1.18505 4.82797 8.15121 2.68354 1.52426 7.87799 5.97927 0.844413 7.8625 1.19374 3.63219 7.0973 7.37307 4.38978 2.78435 3.47546 2.35087 2.64613 1.1567 4.36591
1.37457 7.38247 3.04395 4.64412 2.64493 4.89442 9.09838 3.35089 4.9886 3.77667 6.01023 0.302928 2.37232 1.40629 2.3213 6.69021 -0.306841 5.08217 7.70112 4.83953 2.19014 2.8981 4.40657 2.90181 3.49811 -0.420607 5.00109 7.43866 1.67327 2.21923 7.16512 6.13382 5.00931 3.19871 4.49387 4.4012 3.54856 0.658723 0.783144 6.7297 1.2791 0.860174 7.5635 6.10502 3.56437 5.74358 5.73234 0.184607 8.91624 1.93861 1.8354 4.98386 -1.10452 4.66764 1.31817 4.56191 2.97453 3.44634 5.57287 2.14221 2.70229 7.69727 0.0307292 6.93202 3.15819 2.79767 8.17612 5.12828 0.416434 7.42911 0.618863 3.31375 7.54563 7.46057 0.26758 3.55809 3.00711 2.34902 2.75457 0.00778122 3.59998
0.945867 7.52828 0.585092 4.87205 3.0255 2.19504 0.820827 2.6396 -0.104128 3.95896 5.90416 4.8579 2.05038 1.22548 2.56529 6.42435 -0.0522421 0.315867 8.47248 4.57141 2.72069 2.38301 4.9558 2.32459 3.34937 0.214362 0.0329135 7.99155 1.1957 3.11111 7.0499 5.67321 0.19243 3.78208 4.86518 3.15333 1.98979 0.3003 0.807595 7.44812 0.894541 1.60576 7.1227 5.17531 3.82964 5.61475 5.51516 0.712325 9.2583 0.324577 3.62323 4.66987 0.537653 0.847023 1.28251 5.32751 3.27344 2.35907 5.79715 1.03326 3.56088 -1.15169 4.55755 8.39396 2.67609 3.1904 8.09857 4.64898 0.764976 6.52979 0.895289 3.84943 7.54694 7.14635 0.389125 2.239 3.42429 1.86618 3.14827 1.34325 4.05379
0.979392 7.09749 0.357812 5.90954 2.85411 2.81495 9.35649 2.78836 4.93097 3.80769 6.25378 -0.196064 2.59725 1.77457 2.54124 6.48309 -0.249623 0.413581 7.71082 5.89807 2.36876 2.19744 5.1316 2.64235 3.8026 0.797656 5.02833 8.18183 0.277035 2.9166 6.63487 4.7981 0.127909 3.50346 5.11664 3.55049 2.6216 1.74473 0.442137 7.82153 -0.969906 1.86866 6.88633 4.78506 3.90201 5.7765 6.06131 0.645606 1.0632 0.557665 2.98829 5.17173 0.773856 0.707215 1.00689 5.95877 3.22982 2.39404 5.68674 1.1803 3.13855 -0.637842 4.87484 7.28186 1.41659 2.3979 5.82066 3.53929 0.371711 7.83009 -0.228955 4.35041 7.99497 4.83437 0.842017 1.93349 3.50756 2.54639 4.21711 1.14997 3.55605
0.142683 6.3182 4.94717 5.2488 -0.0706963 2.50237 0.157711 3.04527 0.108996 3.03615 4.46853 4.95361 2.39705 1.33502 2.37758 7.37021 1.52395 0.0513809 8.07191 4.94959 2.50076 1.24365 4.7331 2.18782 4.02433 1.49902 4.7084 9.12655 1.64427 2.77216 6.36787 4.68016 0.167406 1.35144 4.59176 3.71215 3.91567 1.42425 1.21232 9.1111 1.48601 1.28212 6.56777 4.82561 3.70301 4.89311 4.78889 0.563874 0.399527 1.56261 3.41058 5.47999 1.2777 4.3765 9.89591 4.77047 1.61814 1.89045 5.99939 1.57013 3.2417 0.295844 4.04824 8.59175 2.98902 3.31354 7.00962 3.42694 0.809878 8.21285 0.562584 3.4758 7.1672 5.90736 0.856828 1.93308 3.53221 1.51209 3.28942 2.68912 4.06091
0.872495 -1.00758 3.2356 4.95257 -1.0166 2.78821 9.54199 3.40033 -0.00205439 3.40038 5.84593 -0.0201834 2.53176 1.75874 2.52056 7.06652 0.240155 -0.0492773 7.89355 4.46296 2.441 1.6924 4.95744 2.7516 3.94814 0.476724 -0.114738 8.61377 1.26944 2.48238 6.58701 5.6012 -0.0412811 1.85567 5.02777 4.33136 3.90552 0.671877 1.40758 7.98852 1.35934 0.980932 6.775 5.43004 3.53723 5.15042 5.20305 0.407326 0.777385 1.06518 2.22037 5.3935 0.784067 4.49704 9.57412 5.51042 2.58417 2.67716 5.93684 2.09102 3.53076 -1.02434 4.61014 8.4053 2.6956 3.19688 7.62803 4.60975 0.564329 8.04065 0.0670211 3.2525 6.79021 7.0829 0.230032 1.81022 3.55071 2.24078 2.9638 1.44071 4.26662
0.0767065 6.17796 4.88664 4.9256 5.85112 2.4834 10.3562 3.23993 -0.0507517 2.90014 4.57401 4.98147 2.41184 1.869 2.42696 7.34615 1.41988 -0.0277173 8.12744 4.71766 2.63136 1.07875 4.79341 2.1532 4.1021 1.4496 4.77476 9.3019 1.58927 2.78069 6.43054 4.62329 0.168513 1.14093 4.68443 3.65789 4.01988 1.59424 1.16884 9.15537 1.60478 1.30483 6.53769 4.71853 3.71585 4.90136 4.54466 0.385825 0.473985 1.53028 3.2678 5.56213 1.35368 4.19859 9.87434 4.80287 1.79104 1.77927 5.96921 1.50913 3.297 0.145379 4.23842 8.66197 2.88752 3.42527 7.26923 3.40499 0.691053 8.53187 0.420234 3.51934 7.11896 5.78589 1.09159 1.80827 3.546 1.40338 3.37938 2.5977 3.97154
-0.0886009 0.0572716 4.91892 4.97795 6.15493 2.33681 10.2409 3.32961 0.0515128 2.85995 4.69011 4.85592 2.15668 1.60422 2.35938 7.55484 1.34469 0.228773 8.45804 4.7295 2.53734 0.900929 4.71444 2.19667 3.9698 1.5331 4.59152 9.50698 1.62409 2.78997 6.44527 4.52522 0.277292 0.853239 4.66537 3.80496 3.73 1.4196 1.22325 9.35004 1.41835 1.28715 6.81297 4.88427 3.76273 4.96322 4.62812 0.441968 0.267533 1.61756 3.08787 5.43503 1.39184 4.26483 10.2558 4.76044 1.74198 1.71232 5.90388 1.48194 3.19042 0.355749 3.82935 8.87361 2.93359 3.32221 7.24656 3.31852 0.879793 8.79059 0.413522 3.51762 6.95411 5.79452 1.18523 1.58965 3.51114 1.5919 3.13788 2.74551 4.08395
10.329 6.14826 -0.0102544 5.10717 6.09813 2.55804 -0.227484 3.14604 0.00753732 2.99217 4.49354 4.83481 2.33447 1.55293 2.30237 7.37117 1.53323 0.170261 8.05779 4.77078 2.6496 1.05195 4.58535 2.12702 4.14451 1.5267 4.59197 9.33223 1.74926 2.85471 6.34814 4.57789 0.257317 1.23959 4.59059 3.69591 4.01811 1.53198 1.08164 9.14875 1.65374 1.28278 6.49336 4.63788 3.79296 4.8673 4.54947 0.556673 0.422889 1.6411 3.15887 5.58613 1.77364 4.31113 10.0834 4.74093 1.73133 1.98469 5.84071 1.44214 3.45703 0.22319 3.94862 8.87484 3.1078 3.39593 7.21371 3.40283 0.954021 8.52221 0.564885 3.53375 6.99012 5.80607 1.0525 1.68471 3.42107 1.31696 3.3153 2.7189 3.94861
1.63849 -0.695972 4.53399 4.27824 -1.30468 2.1778 9.03544 3.41468 0.199082 3.09271 4.41299 -0.0141039 2.98412 2.33321 2.43697 7.4756 0.0789166 -0.0768127 7.4154 4.22963 2.34205 1.33525 5.2819 2.54153 4.38427 1.14569 5.01292 8.99525 1.20804 2.56891 6.17131 5.538 4.88611 1.53314 5.21787 4.18654 4.14535 1.11687 1.61931 8.95005 0.86319 1.03943 6.40087 5.46511 3.35172 4.69788 5.45723 0.392053 0.99743 1.47651 3.20334 5.83947 0.981331 -0.19846 9.27955 5.17603 2.13095 2.12717 6.51457 2.08786 3.58075 0.149474 4.31559 7.93354 2.42926 2.89865 6.77399 4.20757 0.507784 8.33659 0.0100002 3.35535 6.8852 6.75192 0.631038 2.16663 4.05772 1.84051 3.86423 2.61153 4.3961
1.61369 6.93295 4.77 4.69846 7.03787 2.65417 9.42183 2.92809 0.0824723 4.00576 4.14989 5.06553 2.28657 1.62897 2.54368 6.60952 0.564707 0.0729169 8.14899 4.92853 2.17342 2.45934 4.96386 2.42641 3.3966 1.06301 5.05309 7.91166 1.6442 2.74846 6.90821 5.6328 4.91412 3.21829 5.24786 3.75912 2.28813 0.381444 0.708402 8.0141 1.26804 1.19589 6.90248 5.87825 3.36683 5.73936 4.67677 0.0961623 9.36313 1.38737 3.37537 4.79991 1.13223 0.60315 1.05568 5.50506 2.53738 3.20237 5.60913 1.26616 3.48749 0.197995 3.75466 7.54114 3.15343 2.86418 8.26237 5.11141 0.173073 6.79925 0.838721 3.5286 6.63748 6.91327 0.435704 2.26445 3.41316 2.04024 2.93002 2.4669 4.64382
1.6494 7.04697 4.45164 4.78253 7.19885 2.68185 0.699684 2.84053 -0.0064696 3.85244 4.30911 4.32386 2.35323 1.36927 2.65294 6.50457 0.749507 0.310403 8.23339 4.80712 2.34313 2.2702 4.85689 2.06738 3.57769 0.986889 0.150614 8.15625 1.58303 2.96964 6.61759 5.87345 4.9502 3.5121 5.47269 2.72545 2.23349 0.606133 0.768519 7.89672 1.46978 1.44383 6.83817 5.80599 3.27431 5.13792 5.42838 0.0474029 9.55657 0.968663 3.53407 4.74831 0.884899 1.20555 0.968588 5.52037 2.61502 2.26409 4.91873 0.552922 3.88101 0.0968724 4.14983 8.30399 3.11903 3.23588 7.6721 5.00966 0.467882 7.13419 0.825608 3.75402 6.65668 7.27887 0.418651 2.11274 3.32729 2.4364 3.48119 2.44045 4.65218
1.1274 -0.882408 -0.0416867 4.60023 6.83797 2.61645 9.55065 3.01224 -0.1511 3.71231 4.30838 5.06044 2.42222 1.40877 2.45335 6.71195 0.885865 -0.0404261 8.09903 4.70741 2.54555 2.3043 4.79816 2.24757 3.62432 1.32024 4.86615 8.17633 1.39151 2.69619 6.68413 5.66192 -0.00153192 3.48457 4.96263 3.22184 2.79408 0.516393 0.687703 8.12306 1.52229 1.13034 6.95464 5.80654 3.7376 5.40644 4.88471 0.279067 9.50871 0.72044 3.10966 4.99226 1.68695 0.149679 1.02302 5.24861 2.8325 2.64322 5.60147 0.922236 3.60856 0.456356 3.53681 8.26827 2.86601 3.20225 7.95902 5.04071 0.645412 7.0789 0.509914 3.32017 6.28607 7.04384 0.557934 2.36384 3.29859 1.79882 2.81423 2.61447 4.51364
1.33876 7.15739 4.85737 4.88323 6.99971 2.32369 9.45636 2.96904 -0.0530601 3.52902 4.33841 4.97976 2.51246 1.51755 2.4534 6.65389 0.779857 -0.0296154 8.13395 4.69484 2.63331 2.15843 4.78529 2.1939 3.7447 1.21587 4.98864 8.33331 1.44285 2.77266 6.64983 5.71044 -0.0852268 3.4493 5.171 2.98216 2.81815 0.370805 0.639953 8.22678 1.43781 1.08501 6.8295 5.64471 3.68046 5.31054 4.93763 0.348179 0.6555 0.924767 3.13274 4.96727 1.70239 0.422973 0.955249 5.23143 3.00609 2.09603 5.34801 0.631 3.99607 0.436272 3.6708 8.16499 2.87641 3.33184 7.88341 5.20448 0.782575 7.3271 0.412896 3.37054 6.333 7.18392 0.533705 1.98182 3.238 1.92209 2.89865 2.50625 4.71508
0.973088 7.32441 4.63874 4.10372 7.32791 2.45704 9.53412 3.14113 0.196355 4.26581 4.24843 4.20406 2.50011 2.17068 2.19647 6.93358 0.206129 0.18491 7.89091 4.65263 2.84051 1.83254 5.23013 2.45559 3.8473 1.00772 4.48518 8.52448 1.34175 2.71993 6.47301 5.5041 0.529926 3.11075 5.42707 3.29297 3.71471 1.37209 1.03786 7.39994 1.27505 1.67235 6.48489 5.4375 3.91662 5.13642 4.94248 0.906973 0.73227 1.45266 1.97393 5.22338 0.227996 4.20743 9.66217 5.09934 3.45933 1.6707 6.54251 1.74543 2.70186 0.151316 3.91224 8.19994 2.65672 3.43181 7.65115 4.59576 0.914662 8.33687 0.183635 3.6682 6.5522 6.85486 1.20865 1.97309 3.95392 1.71354 3.68281 2.37343 3.75641