-31249.5512701989
-31249.5560275627
-31248.9324888171
-31249.2872540592
-31249.0139023787
-31249.1634986536
-31248.800035025
-31248.8961730671
-31248.6718376354
-31248.321757511
-31248.945859804
-31248.3797570493
-31248.3277221072
-31247.3789677625
-31249.5183558701
-31249.6874539895
-31249.4007296895
-31249.6680691538
-31249.8421752538
-31249.3085420581
-31249.5538034414
-31249.7637869162
-31249.4047097605
-31249.130642421
-31249.2407502362
-31249.4325105287
-31249.4045115257
-31248.7665911629
-31248.9330329085
-31248.4078842179
-31248.444125953
-31248.1633569974
-31248.1763603587
-31247.5968547798
-31249.9079066308
-31249.3113117674
-31249.631323192
-31249.3171291501
-31249.4778205889
-31248.7123786309
-31249.6718452756
-31248.7668028674
-31249.8694739722
-31249.4224390565
-31248.8539021087
-31249.0190793419
-31249.7597269798
-31249.7201426
-31249.7456178845
-31249.076977926
-31248.8732439504
-31248.1445499951
-31248.7396116339
-31248.3040799166
-31248.9552635092
-31248.414147595
-31248.6417652621
-31247.9148648082
-31247.9765140715
-31247.5855745785
-31248.9583808438
-31248.811206653
-31247.781996859
-31248.4924334817
-31247.8258505667
-31247.6889716616
-31247.1200219174
-31249.1295779122
-31247.5853560712
-31246.9411535556
-31246.3699909827
-31249.3616114404