-0.144066548959531 -6.04208930549671e-05 0.43309181921434 0.17856070824952 -0.151584193606485 0.234563934136527 -0.169330966892553 -0.535779569507997 -0.334040892462225 0.877781107462851 0.417837729154518 -0.841161675398427 0.76154210785279 0.127769619996598 0.0433899145189627 -0.656237747224578 -0.445737783575653 -0.17004059099822 -0.0216646182578623 0.20548477241518 -0.740846537875456 -2.37696641741845 1.97918122567305 1.32386984643859 -1.76413015467108 -1.75508861796823 0.473140844012638 -1.82816447424092 -0.486264776204543 1.1620043308258 -1.61814479241423 1.47060725598133 1.81605098506904 -0.295379491322726 -0.93758030809481 -0.892397564268306 -0.967319471656465 0.822874199397062 1.08589971659486 0.965012936202865 -0.246486904662647 0.548779574591594 0.172201859198305 0.105700053200176 -1.84342627760624 0.0357300879406922 0.241252141332437 -0.350291027371813 0.124547772290761 0.0298900872392006 -1.53260706267141 2.17660379407323 -0.107546361425826 -1.16333179070173 0.649907180293516 0.777023997534938 0.911440687098132 -0.476123579248087 -0.888666895509891 -0.621678539058236 1.22174079657305 1.40693186222726 -0.0935690805358381 0.276319399220808 0.596392523869824 0.962364958425958 0.561187712033435 -1.41537716041525 0.00934595515977895 0.793446653377461 -0.186275299296815 -0.808310450179166 0.309042069348462 0.265395044646286 0.329852824687875 1.18815706444182 -1.27124633390991 -0.300949269221661 0.025747785077462 -0.0186453733763964 0.358855881794992
0.0418094582227547 0.41513447268822 -0.066487407827869 0.078123700499706 0.0987048564455103 -0.0925437251251861 -0.168368860586971 -0.284541782879947 -0.0198905579936952 -0.345086088822856 -0.106905128628894 0.0446968055802325 -1.00814394076733 0.327317975391582 -0.341517913700232 1.33312092794076 -0.390637014431721 0.0683583986311073 0.460835550644081 0.0407704759723925 0.670097271650654 -0.803974029829102 -0.25190447333312 -1.03750103859673 -1.96189493672512 -0.95683014751194 0.577140884681412 -2.25000078096476 -0.768283022636258 -2.33823868185168 -0.702489040972514 -0.277914253687275 0.709739805249293 0.0782363147599531 0.579451276787761 0.0729403592061395 1.3408548022518 0.550849825786822 -1.06111789447573 -0.413426232630956 0.859369447242995 1.65234764586664 0.433651548083194 -0.568438219200031 -0.887857512653138 0.389780066191074 0.363516003865721 0.0883466584944232 2.62487694116555 0.345752775527927 0.334112369093158 -0.68284350898342 0.503183397590483 -0.0485226051064364 1.63768413789766 -1.01680186907683 0.40622380506862 -0.761325621078525 -0.130464648937033 0.28200821913457 0.955151989346111 0.134937080574017 1.25953213685256 0.301248288364737 0.106091632009209 -0.251394880949992 -0.0887114978444019 0.266151977025664 -0.256634529373683 -0.659683537899993 -0.110421110384326 0.502417980575059 -0.0388899720923754 0.360949530016892 -0.393279850004964 -0.118201521638524 0.325231526254811 0.722144086038386 0.327666359689835 -0.414270582472626 -0.595119057132372
-0.00444440662701345 -0.462223431413063 -0.218771198242875 -0.109253315932175 0.414726438827462 0.428783680984429 -0.0966952832535204 0.126511065649773 -0.476018421183153 -0.528497437788866 0.522432465677063 0.157055755415433 -0.385921613671602 0.0530194622108252 -0.556547387446813 0.856719155474439 1.224663882246 -0.436745869138158 -0.328089305941219 -0.256916579244667 -0.286127124269636 0.98020891936128 0.526409703101179 -1.09343844427684 1.15906144766875 -0.72031089043208 1.14545620521387 0.539343887977873 -0.865991320011636 3.35534496938544 2.17091985925295 -0.710086646886447 -0.134958420719223 1.12290172861191 -0.639828718221765 0.602883270445026 -0.928423328919693 0.0752972882556496 -0.876685046751816 0.378239161397209 0.381247350540796 -0.464602214828146 -0.211217301060088 0.930562228533838 -0.106872989855992 -3.20771975838006 0.184354943338399 0.524120136919671 -0.86374751944274 -0.337913743151957 -0.954911077104441 -2.17855963123693 0.666583860997054 0.408546795573946 -0.309353429780332 0.097501323677892 -0.999816656153442 -0.770321135058585 -1.12702114796734 0.358559947974114 0.0961988034897368 0.287856190251741 0.109392926761659 -0.393162607761419 0.595196447297519 -0.791454306567747 1.54101559410319 -1.77660539787074 0.929870345030813 0.0732113533392456 0.1189967634352 -0.286929050931077 0.855507652291142 0.243073509870316 -0.565948621295983 -0.415144242875182 0.68882260629403 0.813755529639243 0.957222497651522 -0.240357397894858 -0.583942220357936
0.336547459638365 -0.183322388842618 0.208563923969334 -0.350329079678928 0.159872140362344 0.370315025550595 0.0809105177755477 -0.0411021481087368 -0.262950183914117 -0.538984705051925 -1.26029703964762 -1.98293709122942 -1.20045310184378 -1.1037848151595 1.10771448719972 0.315610977419361 0.52057150217097 -0.137227160975892 0.147663777532859 0.228340325041683 -0.158265715937631 1.58570751458995 2.64890208801548 0.348647579080718 -0.622503091415799 0.243656635765842 -0.349521496593457 1.3847357972207 0.991435892621443 0.870746315739971 -0.083410400086924 -1.7670766373707 0.713247559478863 0.843798854547639 -0.662603795360922 0.988366511254251 0.829884308542355 0.517836106931771 -1.56286584591334 -0.436321637335857 -0.0377165212161929 0.368197723191839 0.671608565307578 -0.0648655567921637 0.26210609118263 -0.639576750242216 -0.908995312145597 -0.561230135213665 -0.64235893953476 -0.022660663107628 -0.392466867605646 -0.42372580946027 -0.0983790978433799 0.0881772228836861 -2.59936029814279 -1.25524353899657 -1.48645321368291 -0.456029647099471 -0.19284549291863 0.172988359248752 0.964085539772017 0.851974701263617 0.443400137789884 -0.0923591200136395 -1.06802464532737 -0.544042576576084 -0.937670296658935 0.454784976702539 -1.15486900902128 -0.572354007290359 -0.201156836701161 -0.123273277112576 2.51674796806456 2.64007883785818 0.477459780870243 -0.516753415950263 0.37606966567126 2.18762842161921 0.434889019394996 -0.765448125756156 0.108543434716325
0.0855642120916962 0.0335585353332783 -0.012535921202898 0.170064759355442 -0.382517217735683 -0.0774652413204985 -0.145318932661959 -0.227221381524341 0.0868266230912702 -0.559942784526319 -0.324259135541901 -0.491780560965003 -0.1716812110773 0.0915325107746109 -1.09524361487317 -0.342521928965677 -0.656710315741323 -0.360550495012546 1.67997002128991 1.27279156611102 2.46563652052336 -0.533851757354269 -3.60046687608541 -2.45834873238019 -2.53061289180448 0.236833959944112 2.04829064314932 1.54486967574955 -0.717190344138429 0.797878975825864 1.09190555336452 0.441730207149918 1.81570594320317 0.0233029243452931 0.60212325274345 -0.138764936981686 -0.314268090932442 1.42578652329279 -1.65323724710056 0.390133078472625 -0.282059898281396 1.44389633615756 0.304538013158943 -0.348737567644842 -2.22907484026327 0.220771258358086 -1.47453332847899 0.218815164084205 -1.15705213158694 0.091706831478829 -1.05001819075626 3.78287909487946 -0.472537920633004 -1.3647732483757 2.15807052073672 2.48353781702953 1.20028109513121 -0.891539587586925 1.53820409424976 0.863856277050239 -0.129712858761319 -0.193783687977173 0.51276049480497 -0.705811932980354 -0.257861716278156 -0.247597620654125 -2.04319909019116 1.37519623809296 -0.999444103497967 -0.541889021681495 -0.126160367359871 -0.249997744214415 -0.786475882090201 -0.738208330285511 -0.396923872631636 -0.523100180822866 -0.0734741199464889 0.842046391538861 -0.0750908287785299 0.282720928562436 0.529762934110638
0.216128362669633 0.0875820128095489 -0.252288338836656 0.399865213127589 -0.663295678863947 -0.0617810059241619 0.0632097672122744 -0.353135180218511 0.134292505344703 0.637200795039148 0.601105610638294 -0.934374401220332 -0.0529533848937396 -0.576933396763559 0.223182694766437 0.320529238114035 -0.606210276215798 0.192148210101757 -0.964949687097794 -0.255326866981863 -1.07555540259367 -2.14878730046164 -0.873997216896511 1.23446852197263 -1.67820521699234 0.590539410548988 -0.703720855860285 2.27733699275411 -0.763742713910907 -0.785520203539199 1.63587331087729 1.05483720692021 -1.95503935079994 0.863352598201325 1.05496884733402 -1.90899348808839 -1.12603024532124 0.00710626835381377 0.262214334569763 -1.3879198497296 -0.347540976852171 -0.313935647465548 -0.108564260641165 -0.589673206341745 -0.271729468230096 -2.13095773769658 -0.625204805220997 0.837388069239415 -1.91117223978093 0.540181038734414 0.246981070434781 1.72441948687389 1.17068102817867 -0.400257306156988 2.39313350573886 1.04167470820082 0.627506969801483 0.42237006746419 -0.0619890080623809 -0.243491313918036 0.915487858492082 -0.7767856563951 1.21378015108042 -0.420289531861633 1.76197480000521 1.7340850299914 -0.610737986542172 -0.437131277302793 0.0248496992075003 0.242110889344368 -0.341979426479098 -0.187424581815775 0.142255464828981 0.0535092571098453 1.22733088617646 -0.309663504661287 0.448724632574034 1.49118944036787 0.596957652052525 -1.13993887779231 -0.355306732825925
0.399260489976673 0.131930176981345 0.0929628147238227 -0.686356148306471 -0.0826084734254838 -0.0856773405723097 -0.533841215836757 0.342389003000956 -0.00771304838619556 0.61061457365423 -1.37710271010148 -1.02320159864718 0.0714311224306814 -1.03120800975242 -1.2905488809146 -0.0253703473285059 1.0556000528338 0.37215773423368 0.115001014077893 0.895510140146278 -0.326287477777265 -1.39909000163928 -0.516057932904672 -1.2593171927394 -1.65328429826409 0.194182980091702 -1.48450071895159 2.07249756689879 -0.791767466770899 -0.533219780523932 -1.49418066023937 -1.373964166095 0.898507787772354 1.01623057024974 0.805255209872051 0.78955220543234 1.16793946229508 -0.49108559213978 0.207300484529027 0.0227077142711559 -0.588569432325213 0.273786092585614 1.40412319058585 -1.28573346429321 -0.835562844048789 0.110459934021992 -0.587683173523679 -0.477961917058058 -1.24739010845034 0.518856063028575 -0.97307411177713 0.610088011999011 -0.121662224704566 0.842316357231235 -0.72278146218257 -0.464122190116088 -0.353664827195929 0.843553314322671 -0.123453511351008 0.286774527710966 -0.0414291922617833 -0.159296727772314 1.65646192301841 -0.81662436506353 0.24956194245387 -0.490178250303222 0.26970343998638 -0.528516721052607 0.00923616911154716 0.339589587326137 1.29362494714656 0.830779823310484 -0.778380253751385 1.57579925945948 0.590556894041447 -0.677635742222448 1.01834144485391 2.22320321500924 1.02316406056043 1.4417805764599 0.0673119601854319
0.378561320456774 0.514471048853884 -0.262079094613393 0.0826292993503241 0.0419061316516427 0.208550297129624 0.8211245646003 0.322958672235211 -0.206598316618673 0.733763923658498 1.32138873317059 -0.298714981729543 0.464708658443996 0.238800595735505 0.635198163822105 -0.203228887667672 0.085828778470222 0.72759610747341 -0.73561203165543 0.249444185989958 -1.05065376712916 0.314058803243306 2.3456971911565 -0.116211745930641 -0.0641597893392451 -2.33552488386787 -1.74905321352749 -1.29150661634707 -2.29842902663396 0.189261119854463 -1.8084595497995 -0.638928832580521 -0.583253679287292 0.198964458168907 -0.987747132822892 1.09473993602426 -0.789738867425352 0.895491628213087 -0.44793684697267 -0.358392312134659 0.532556693361427 -0.240168679020379 -1.61468768889076 0.041098805676355 1.84613184806418 1.94433328277096 0.722784804614952 -0.555880957851926 -0.897819503811894 -0.202376310300139 0.330573247421237 0.605391380282266 0.28986884876593 0.127118874122887 0.62059764784801 0.428197212656521 -0.39477211750833 0.247003696130904 -1.32888040968904 -0.837384212586667 -0.500735965756482 -0.0151062517044746 0.460036452194657 1.01614803788092 -0.287965204969423 -0.641721306280393 1.18559110481336 -2.01498304735486 0.563052275082093 1.32442546154451 1.01678027182144 0.414939326059162 -0.436597773672627 1.41235585865231 -0.164179764371888 -0.774331539696335 -0.186325692892724 0.235468447761069 -0.462031370106203 -0.163362153989272 0.715943102639664
0.301695660083527 -0.626251757887039 0.68097637483293 -0.328638750402745 0.55252952661375 -0.0608335548990233 -0.60529650662466 -0.0355015169878162 -0.160851987270567 -0.150989754862897 -0.409549268178292 -0.147044141991316 -0.852153649951133 -0.583811865495047 -1.62535981837555 -0.180733032187483 -0.0533583334322995 0.0531873551604631 -0.525258620810936 1.63208453521747 -0.845543347140736 -2.74538422692712 1.50184022970745 1.86060329472631 1.62180938385556 1.54132824008598 -1.02979107553274 0.196611385772145 -1.48519928731938 -0.560072625168842 2.66984474087888 0.383761888132616 1.54767757606042 -0.789430335205497 0.496831233404032 -1.60968818137819 0.469396034194146 -0.570060070235736 1.13638072996683 0.456498358963468 -0.483725556035135 0.120353019651647 0.750667632653812 -1.17814313702605 0.429534956939776 -3.35875167931301 0.378109063644503 -0.544234894993127 -2.69776690677578 0.800697931874607 -0.520326219056185 -1.66631875611223 0.391874742853707 -0.20184177822924 2.43887597843422 1.3405377853959 0.117575458342401 0.0573296573222017 -2.59989405888314 0.321785221359029 1.28403987951639 -0.620687379301951 2.39122163441649 0.230561499914457 -1.29052676943884 1.3328676744103 0.346952451642797 -0.764692736037877 0.210465253774191 0.287339655893667 2.3125693153801 -1.08557704331493 -0.152406431972399 -0.34135053497096 -0.842859116827997 1.34953381359632 -0.641358266701697 -0.796219329593226 1.59197277553447 0.351946559841519 -0.172385178758936
0.331383144498356 0.694276170390153 -0.0157156028386885 -0.19364741958007 -0.0396949840760141 0.137345174549986 -0.0125266652363023 -0.120624528005119 0.13524149903094 1.24234534954553 2.50535772983806 -0.717443854779076 1.5400092648461 0.445060298242887 -0.714490687214696 0.472762892043315 0.278470640123748 0.142728804676275 -0.89835300744206 -0.0622384049400971 -1.06317863259418 1.62041918909493 0.0945129320184116 1.91511296755903 -3.36186734051318 0.797519278679549 0.717965788450998 0.0837574988342611 -2.22120418333476 -0.339575703376243 -0.881897698606269 0.197451364740701 -1.1698045395641 -0.77653034598317 -1.67175740781773 -0.707366935368424 0.155461158059148 -0.849750183958461 -0.683122730642389 0.385057466345824 0.48149872473833 0.927925563604993 0.527847206135521 0.738174391741327 0.921208817178746 -1.37310413253216 -1.60997871588522 0.661367866710219 -2.34168318697618 1.91764087488038 -0.19679419111241 2.03570278568942 0.0198815591372827 0.0275791809124855 1.58118674623852 0.771573004540647 -0.383849819815274 -1.07116010401165 -0.690870231793135 -0.936065414895322 0.712496283523516 0.391521473461973 1.13541888077143 0.702258927358538 0.03440699893788 0.0253184110714969 -0.512488986451498 0.359129961250297 0.982521625459278 -0.538784930439569 -0.0254366817557747 0.542592989363131 0.796055036186153 -1.16340326733266 -0.646022245425174 -0.359105792893075 -0.0995003553523701 0.216335850587485 0.134407433596599 -1.17201697269065 -0.915233319410702
0.387695416825586 0.256722975276708 -0.316243468470064 -0.128694702435797 0.619719616572339 -0.0775732275974478 0.31286504066265 0.353566611105942 -0.228811608007511 -0.291220476999078 -0.341369561124518 0.0158991795095024 0.197342607133202 -0.149632984426084 -1.54636297169365 -0.464746967861295 -1.82953538573781 -0.110166828413129 0.458021993909186 1.37955939790208 0.312622585759881 -3.05784329061048 -3.63437842370024 -0.326168949982804 0.737855060893777 -1.14124808284523 0.841017179475461 -1.69854031849281 -1.63754735528019 -0.25283366953525 -0.30962776634582 1.18796654579606 -1.22567638214749 0.373815323584852 0.121453451235797 -0.984965200640531 -0.131861014342061 0.0672314846980863 1.12665425173589 0.0242956267626771 0.441247868446211 -1.071090427152 -0.297891457812713 -1.30843372236905 0.700029524959902 -0.463367314618176 -0.816022213014446 0.387035672095462 1.21995490924046 -0.0216448207737549 0.50536960547834 -0.152128238754163 0.640003296036166 -0.533904464941827 1.95624262645737 0.141435797564899 0.481423905675016 -0.0384577698743949 2.68810187787863 0.736299030064974 0.617780748680733 1.19947042672354 -0.142402017633412 -0.0748653431478524 -0.455530082013489 1.31153935627208 -0.103761956639119 0.723314194482187 0.22124536953593 0.0716584078326413 0.491984192230108 0.605548474604209 -0.116961736335072 -0.326418603970704 0.273977125451741 0.719372952483721 0.299395295274324 0.307647503714716 0.253067382691791 1.05058743270189 -1.01010954811799
0.257109926102443 0.0847571432265918 -0.0243689031648927 0.00714637754239494 0.227715290186293 -0.0520175038268456 -0.0337400551226265 -0.128824800188503 -0.137063638899368 1.3928162560587 0.554187630185288 0.301924488146587 0.483691360380768 1.192096506669 -0.13698933405642 -2.83123280288145 1.17066277335567 1.02660393770163 -0.393759874717022 0.592585750497178 0.522547136818776 2.61430611309294 0.197513585405038 1.30112330852977 3.5152489914105 1.47015525627924 -1.356648309476 3.37624211374641 0.154844350729621 0.869007736681087 4.33315196541515 -2.50377238844837 0.878027933238736 -1.65404508729621 1.17815676386577 -2.52349093972949 0.507094300587331 -0.330931401906452 0.602930578718738 -0.42720476734932 0.996777099567502 -0.236332595086847 -1.12825913349951 1.45252341124507 -0.67856982351806 -2.01689826110961 0.0338557547050721 -0.467862371951282 -2.59769602392686 0.59598166179705 -0.459996857226442 0.0743454663573965 -0.0114036079560296 1.45426687539744 -2.50082127776545 -0.223476314595666 -0.0195213477706018 -0.908460008744148 -2.27851455739322 0.160496660997367 -1.95238134572588 -0.78333219588006 -1.13060166437876 -0.955829474678876 -1.98731850586155 -0.911548673375082 -0.147973338193446 0.993135133822295 -0.212596697193024 1.32958771980306 -0.932339117010021 -0.861369250248023 -0.611719119001312 -0.665139673097949 0.191343198118119 0.214570274959364 0.486830418607611 1.00506247522153 0.0547094474450818 -1.53672648202684 0.895643580331365
-0.713487957500167 -0.173359626353312 0.295032649685572 0.334295688653789 -0.464497828093762 0.156164097300051 -0.477575223342506 0.464492428779915 -0.0104777541862809 0.219022652002057 -0.812421642008736 -0.67729250012786 0.183786986943683 0.408729858024394 -1.53792307281951 0.805911097949426 -0.524932347988439 0.143078731635628 -0.412598080730828 -0.262297895379307 0.672969192397139 -1.98746762976781 1.19702402333027 0.0931430489622548 -4.58780417527626 0.863900500001751 3.87352946061546 -1.40373392576846 -1.53772226976642 -0.669068316697437 0.178161930355357 -1.72566235749954 -0.891829350763406 1.01129611161352 -0.929977045756847 2.3020565942089 -1.23706533482308 -0.217537069363455 -0.235814775177857 1.382678915755 2.00479762744689 0.049292392994975 -0.89950948904615 1.72099915010661 0.44801680823965 -1.1621529405117 -0.120244262044148 0.198336852211685 2.00191542229308 -0.209432442168226 -0.433881661697169 3.15662579433132 -2.07273076583497 -2.84879111440322 -0.381303914781103 -1.14643502368136 -1.35217716338993 0.147708000484371 0.00838976238841119 1.04622915798625 0.733677020416572 -0.365612994520003 0.101813318560551 -0.717587065151126 1.0528998816897 -1.39362486758491 1.52639888018756 0.346702283434531 1.40811945416352 0.166099348999753 -0.750007116593138 1.60557004757367 0.240433759619272 0.673931298702721 -1.19098553356734 1.35470867025384 -0.381193100292138 -1.12195504891732 0.537565456840592 2.95219671632841 -0.0295298758725197
0.0168569149419694 -0.298617794080289 -0.0190739760518119 0.459340969149066 -0.452841995048001 -0.206012105400949 -0.140026062430344 0.238421101105083 0.151547683960468 -0.0864885232003456 0.632424202055424 -0.287207758369679 -0.585018740695047 -0.730502995204812 -0.95656043892975 0.626512210502633 -0.150956587649263 -0.319589500394393 -0.894846795873589 -0.762043215599871 -0.643819325375408 2.67648126892797 0.588212820501097 -0.758806712613591 -3.65205166347391 -0.709280606462075 -3.05515700341627 -0.6535985111939 -2.25896261351082 -0.41898958277531 -0.766713107857562 -0.163156465842702 0.964787964792554 -0.752318022919854 -1.148682680903 0.679324441905789 -1.81673566948693 -0.98001197296094 1.93889514528583 0.0405902417339605 1.94373781558664 -0.337857436021833 0.292340963177519 1.11821229598029 0.290837897046458 0.265447752233845 0.12373299012016 0.132663712334051 2.05381979763931 -0.146052210904482 0.758414362474008 4.52128668555696 0.537873989060447 0.460785928378721 0.516171061385286 0.924914803359573 0.847554462993826 -0.854177878423566 -1.62533796400997 -1.24564355897578 1.023553582488 2.32668363599774 1.68131625020921 -1.22503669201166 0.593619076323509 -1.33922240969858 0.327354742147781 -0.241633178623959 0.401816936528356 -1.8032736374041 0.511503226009061 1.64877484276072 0.450300203776761 -0.68340452340319 -0.416627511522136 -0.810006348947637 1.20192582897322 0.905353860620757 0.770235517367575 -0.389776723758692 -0.857506426855437
0.314687437641261 -0.018923052374266 0.178457092845685 -0.165923999854802 0.486966687004713 0.419476806572498 -0.150458051004013 0.0229393705462305 -0.0589723342827471 -0.836474042538094 0.576239199268885 -0.0937760542333242 -0.501252500114556 0.0533814733487886 -1.03418123191109 -0.863748804993656 0.387438563752556 0.445926502450131 0.375926712409394 -0.368307766350254 -0.232639721525364 -2.06910011293782 -0.46518996870697 1.86848809271489 0.384340128934661 0.781011262256199 -0.0148972211255228 -1.48840827951606 0.588632938540467 0.497549085035562 2.86118819610719 -3.29272604137419 -0.366301535590646 -0.267693095463841 -0.717086471624411 -1.06089600838762 -0.399988111795165 0.26693590597428 -0.600426068424063 0.406961968404624 -0.628954757243153 0.111678122070053 -1.17809737141344 1.51964536700511 1.03513151114825 -0.0848090794836007 -0.337181493350168 -0.159506786791998 3.06540053022565 -0.45133892891694 -1.73198521112511 0.859261975186412 -0.562279144761173 0.089373042345808 0.719936795115506 1.17991925417169 -0.153929295587567 0.525240623098111 -0.319905745919745 -0.30291796189452 -0.0665617126708174 0.0612791268465308 0.274242463160816 -0.580818588742085 1.02832066239494 0.421959976721966 -1.26550917728171 2.39782730924359 -0.422155380461208 -0.546529089157933 -0.581172115244003 -0.422952936249533 -0.242362085993366 -0.15793352958092 0.439248322551366 1.59598575127405 -0.831490218746701 -0.6791236388527 -0.401195758325714 -0.61804788616109 1.55313011171581
-0.069794616114533 -0.317273194753831 0.130756468994979 -0.169630757366179 -0.387330577475607 -0.0380055130621239 0.356278352208285 -0.206190025647732 0.174513022635203 -0.15864495345787 0.161471365701926 -0.354071318395588 0.429401773864872 0.582600619421932 1.79238990623853 0.794084286631829 -0.439485121030105 -0.58697097831618 -0.562571221929302 -0.866604784908782 -0.455216921810336 -0.164988118787908 0.944744426239847 -1.329628343212 -2.6515222978926 -1.95743253238528 -1.384976195242 0.0172024710282072 -1.61273519415944 2.29666782187895 2.01245899668626 0.408202010818258 -0.741345074520705 -0.00515891582616134 -1.15880613725682 0.845828739444102 1.05088979427735 -0.754625329704004 -2.08794886046914 0.167554335526554 0.424315363110377 0.563261305661045 -0.548104403250477 -0.250017284588339 1.56342686033311 -0.663010029450398 0.387584602336621 0.225208723010153 -1.41375428093881 0.168054414832902 -0.0465528839928445 1.0564654857105 0.706881768452702 1.23017221081115 0.605775760006169 1.45114195823067 0.902742649600049 -0.269277408412797 0.175522180104313 0.872710894649898 -0.381902210177439 1.96029905381792 -0.136329332216113 -0.13018825549008 0.491966451627466 -0.963688304538953 0.1945413916871 0.351694848972154 -0.750818556331358 1.00221189462025 1.41429909741703 -1.57196831772961 -1.10082316295907 -0.436030845718643 0.159387744777171 0.448666525672628 -1.49366566854239 -0.45691307768899 0.153839821243809 0.251418535086848 0.147367072381431
0.0286155920610156 0.400646056754006 0.118709314250369 -0.394735350752131 -0.570087323915157 -0.549298165831133 0.15554857552144 0.0539136914280387 0.0588509782762708 0.793057388560077 -0.940994474217691 0.0108608483592677 0.284195712573343 -0.412655159191501 0.740473985219981 1.73067472052127 -0.522752567855163 -0.472439704543017 0.561242733612642 0.938735504147985 -1.67114574269187 -0.10569156856413 -0.354966318943351 -0.338153884063078 -2.41824982820635 1.83829075880675 -1.61713357806366 0.183425747136269 -0.542237405979748 1.00230753960841 -1.03703721182622 3.37173085847176 0.697492104561776 0.144184562533625 -0.421947635433172 -0.7157235305432 1.19300384850556 -1.01393817585621 0.136203605336522 0.113932207046278 -0.145713082572824 -0.563195999674509 -0.619566121792961 1.0548282080638 0.305741288816378 -1.08389477138617 -0.322855571051743 0.141775954337289 0.592180030628068 -0.29062835224714 -0.417518398306968 -0.695799548225688 0.302514813127243 1.03987313714705 -0.474650852118645 0.187927489334139 -0.113714948941463 0.11018688300742 0.546239840201819 0.536208429293595 -0.746178488854919 0.954368831728045 -0.591797964895814 -0.660018552468719 -1.0984839745122 0.726698021603448 1.46122787649774 -1.19959872470497 1.02014532989933 -0.60161983100472 0.554642715209574 0.382859431389539 0.30575105900334 -1.59981515034282 -0.873568357110913 0.460224399738585 0.261923028732183 0.749702183915848 0.71999078825398 -1.02908787918165 0.25578837976073
0.169318111383392 -0.321821731005045 0.0315337926404789 -0.0734142132738003 -0.357906116778204 0.493879094280385 -0.147445490987311 0.141939733523996 0.0469511476666408 -1.31087549777902 0.278211215948886 -0.89041627319647 0.462045254056097 -0.908087713198856 0.812749457492332 -0.229889413895539 0.318968579301935 -0.889509702690462 -0.636941113754104 -0.685567848484741 0.900517103854161 -0.344828978639644 1.98947797429035 2.52779933506959 0.436027503286261 2.82394604317902 -2.33927432166966 0.493360503040845 1.301634443574 0.510496125421417 -0.221363383110025 -0.805554229015127 -1.72363067283179 0.0822922279001323 -0.404092104539604 -1.68372974349903 -2.34944714317865 0.0859858727921649 1.64877921363384 0.668262019162883 0.599534153198499 0.948006640244449 0.0194737823867075 0.747513662036342 1.59288577379506 2.07572995612214 0.12476940126869 0.268952164031033 -1.20706443309491 0.568250785876469 -0.177778579072187 2.25413511271082 -0.0411160320586303 0.581756012470079 0.0462839467412041 -0.328870663788003 -0.553229123422271 0.351791779511225 -0.0375925941078845 0.1265244353793 -0.366076049959969 -0.793025506897359 -0.393845235297848 0.792415384432595 -2.07817404552376 -0.402812724267938 -0.0686913563183676 -0.490102145688991 -0.301433664806834 0.372759114952215 0.167097193620802 -0.291178568039215 0.131345765534903 0.353756872641519 0.219973445459577 -0.467517330085411 -0.896637568299665 -0.779963281149425 -0.931686571365027 -1.35253788897698 -0.284001851495201
-0.0484853241298706 -0.0444283825489585 -0.123524730871758 -0.271232988466312 0.0578222804332371 -0.198772139751864 -0.00674528565658324 0.00116573757068605 -0.0766183203769961 -0.719536731670427 -0.275886939892644 0.975751400114923 -0.596446774118482 -0.27293505787918 0.370007778881656 0.867922988818113 0.63594044092104 0.553377733108168 1.46944923171614 -0.563659055114475 0.211722008349735 -0.605583441589125 0.894342859914493 -0.9725339232822 0.487131494632153 0.613071004344644 0.133779827639377 1.23491100859794 1.6125274491314 -2.84649203514494 0.189187586342064 -1.64612172278015 -0.666334464119337 -0.32290493620692 -0.120103879884114 -0.324278933026008 0.447337266025419 -0.468261664065812 0.858909477125228 -0.934324264734606 -0.898683136917305 1.45418974234247 -0.365060207626096 0.904219747602606 -1.07415158099333 1.16950192087846 0.354891242769853 1.09616252666798 0.439287660409398 -1.06512598512183 0.176357273979388 -1.59461946776046 -0.0423180221651493 -1.02122596399937 0.565620034481837 -0.353967188771387 0.505298900177957 0.603029309029091 0.492215848505182 -0.068723237981086 -0.0254940173266311 -0.25513454856482 0.538705483392957 -1.33211537001422 1.07750249801114 0.715040388786405 -0.662868875959815 -0.340446792676968 1.08533767373436 -0.0120031889032814 -0.0389809890972326 -0.727299145211799 -0.204070152187144 0.106641590691101 -0.0340251903158093 -0.0526181132148303 -0.718093572212054 0.0942370527918245 0.280730638634187 0.353805209355963 -0.634897859128113
-0.135494238341038 -0.151117024403587 0.121386602588162 -0.0962965053593576 0.397227005537644 0.879810478138949 -0.0790030173262932 0.244771208410069 0.131716775529279 -0.19605397089494 -0.39378455729461 -0.0353845318544544 -0.139805204782965 1.63245271699983 2.56709888368382 0.894342345694126 -0.319933256709349 -0.10999405037001 -0.21100852759132 0.258403961654552 -0.0847450590479808 3.17748925725829 2.21743880470161 0.61396626200259 1.55431667521133 0.122400645150752 0.0463464245157247 1.72607167691121 1.61678030867192 -0.480617608140461 -1.39132193167387 0.752029802404472 -3.60825937151822 -1.30425002546782 -0.0224495756472104 -1.17776827037893 -0.0892082347183687 -2.16968984413646 -3.21641471055595 -0.0803741859333661 0.380294757311993 0.35083661518059 0.0459273349170881 1.08098197012055 0.518532875528277 0.424804386678847 0.213622052603676 0.635221817958961 0.00224740011146156 -0.453044597872372 -0.573104254804974 -1.59349949580239 -0.534669624847068 0.159094896278492 -0.835596011262423 0.173228500159873 0.709058720373963 -0.488106456446895 -1.72299535356908 1.18508999706628 -0.617235675092322 0.318912786392178 0.462485169579574 -0.339688574746674 0.306218485316421 -0.410564339181616 1.37611823520996 -1.96557726876909 1.94816756693321 -1.01050112692703 -1.72638046624125 -0.0473069881602071 -0.318014186301849 -0.531595615496578 0.556934852492915 -0.113259092586627 -0.519277723729044 -1.03178959298685 -0.162600336516413 0.795751646169962 -0.109798903740952