10.510898 0.000000 0.000000 0.000000 6.370522 0.000000 0.000000 0.000000 4.996358
10.237268 0.000000 0.000000 0.000000 6.315002 0.000000 0.000000 0.000000 5.041145
10.442410 0.000000 0.000000 0.000000 6.305332 0.000000 0.000000 0.000000 5.007624
10.436360 0.000000 0.000000 0.000000 6.356884 0.000000 0.000000 0.000000 4.995073
10.503018 0.000000 0.000000 0.000000 6.265496 0.000000 0.000000 0.000000 4.962799
10.364040 0.000000 0.000000 0.000000 6.343369 0.000000 0.000000 0.000000 5.095413
10.407620 0.000000 0.000000 0.000000 6.528597 0.000000 0.000000 0.000000 5.129462
10.193045 0.000000 0.000000 0.000000 6.193816 0.000000 0.000000 0.000000 4.874952
10.342149 0.000000 0.000000 0.000000 6.376144 0.000000 0.000000 0.000000 5.072574
10.488033 0.000000 0.000000 0.000000 6.412135 0.000000 0.000000 0.000000 5.083349
10.501872 0.000000 0.000000 0.000000 6.402865 0.000000 0.000000 0.000000 5.102422
10.186814 0.000000 0.000000 0.000000 6.244917 0.000000 0.000000 0.000000 4.916952
10.489436 0.000000 0.000000 0.000000 6.311144 0.000000 0.000000 0.000000 5.039616
10.546506 0.000000 0.000000 0.000000 6.427923 0.000000 0.000000 0.000000 5.128381
10.471287 0.000000 0.000000 0.000000 6.474336 0.000000 0.000000 0.000000 5.130815
10.184863 0.000000 0.000000 0.000000 6.241308 0.000000 0.000000 0.000000 4.926795
10.503731 0.000000 0.000000 0.000000 6.414785 0.000000 0.000000 0.000000 5.062965
10.556919 0.000000 0.000000 0.000000 6.501554 0.000000 0.000000 0.000000 5.130915
10.621627 0.000000 0.000000 0.000000 6.444543 0.000000 0.000000 0.000000 5.121311
10.181926 0.000000 0.000000 0.000000 6.314191 0.000000 0.000000 0.000000 4.918773
10.519992 0.000000 0.000000 0.000000 6.494720 0.000000 0.000000 0.000000 5.057960
10.156512 0.000000 0.000000 0.000000 6.359616 0.000000 0.000000 0.000000 4.965542
10.526352 0.000000 0.000000 0.000000 6.427900 0.000000 0.000000 0.000000 5.113230
10.564855 0.000000 0.000000 0.000000 6.430725 0.000000 0.000000 0.000000 5.123030
10.406300 0.000000 0.000000 0.000000 6.218700 0.000000 0.000000 0.000000 4.946900
10.406300 0.000000 0.000000 0.000000 6.218700 0.000000 0.000000 0.000000 4.946900
10.406300 0.000000 0.000000 0.000000 6.218700 0.000000 0.000000 0.000000 4.946900
10.406300 0.000000 0.000000 0.000000 6.218700 0.000000 0.000000 0.000000 4.946900
10.406300 0.000000 0.000000 0.000000 6.218700 0.000000 0.000000 0.000000 4.946900
10.406300 0.000000 0.000000 0.000000 6.218700 0.000000 0.000000 0.000000 4.946900
10.406300 0.000000 0.000000 0.000000 6.218700 0.000000 0.000000 0.000000 4.946900