-0.0917151 -0.141466 -0.103626 5.29636 0.0602593 2.55019 10.5759 3.14335 -0.0745937 3.11765 4.56464 4.79684 2.25743 1.60734 2.52151 7.38057 1.58824 0.0258216 8.25356 4.66125 2.50183 1.11007 4.6691 2.25162 3.95887 1.4856 4.72801 9.29348 1.45981 2.75794 6.36786 4.67377 0.274362 1.25473 4.73921 3.77697 3.78734 1.39146 1.28759 9.16278 1.50511 1.1931 6.56908 4.75971 3.67231 4.84528 4.68955 0.663616 0.246741 1.57021 3.1635 5.4439 1.46479 4.31091 10.1172 4.64917 1.81074 1.59348 6.01818 1.6323 3.34847 0.232137 4.00725 8.47647 2.56199 3.46286 7.24477 3.57192 0.895541 8.62643 0.224804 3.32052 6.93793 6.04352 0.902946 1.93741 3.48892 1.59475 3.15998 2.64133 3.99567
0.136325 0.0405731 -0.0543102 5.33556 0.0757891 2.42598 10.2706 3.19918 4.92855 3.07586 4.68577 5.02533 2.30436 1.67123 2.49233 7.40017 1.48393 0.184144 8.02383 4.5334 2.41935 1.18214 4.67425 2.12389 4.00457 1.5895 4.71878 9.22433 1.52922 2.798 6.32538 4.59436 0.124806 1.24834 4.80871 3.69315 3.82669 1.57236 1.24846 9.16788 1.48418 1.22117 6.30981 4.66759 3.73203 4.87826 4.6284 0.755819 0.499727 1.57179 3.28509 5.55475 1.57695 4.34285 9.9286 4.54244 1.63742 1.84501 5.94862 1.47776 3.37507 0.325823 3.92157 8.57166 2.82766 3.33927 7.11843 3.44505 0.802783 8.53412 0.36449 3.50496 7.05702 5.81209 0.824339 2.00224 3.5028 1.44979 3.28544 2.80112 4.20562
10.3752 6.27372 5.02032 5.12028 -0.0781781 2.54704 10.4407 3.09398 -0.088847 3.06391 4.71174 5.02338 2.29404 1.613 2.41776 7.36532 1.56799 -0.084792 8.02513 4.60574 2.54257 1.14462 4.76167 2.22389 4.07235 1.58639 4.75432 9.20131 1.45291 2.68145 6.3709 4.71449 0.251225 1.16583 4.75173 3.76786 3.93195 1.41185 1.23448 9.11971 1.46075 1.21191 6.43873 4.69061 3.75248 4.82195 4.60086 0.700432 0.292401 1.59327 3.11484 5.54254 1.69612 4.22299 10.1417 4.66663 1.6572 1.89616 5.90836 1.56116 3.39931 0.270972 4.08066 8.46325 2.68853 3.38528 7.17842 3.46629 0.885686 8.56312 0.230818 3.45432 7.06831 5.8975 0.985245 1.84193 3.44743 1.56732 3.25469 2.74324 4.14322
0.232512 0.0959558 0.0704296 5.32064 0.100552 2.41143 10.2803 3.13086 0.0450221 2.89403 4.62829 4.84425 2.40453 1.44093 2.59613 7.36702 1.66186 4.9811 8.09334 4.63618 2.55972 1.10178 4.57837 2.21091 4.04789 1.54453 4.76474 9.25916 1.54669 2.68118 6.31611 4.77623 0.221852 1.10622 4.63255 3.72185 3.9793 1.45827 1.25488 9.18163 1.65303 1.13523 6.45475 4.72125 3.71562 4.87394 4.73849 0.774754 0.242954 1.49384 3.3774 5.54402 1.4924 4.17318 10.0143 4.70911 1.68497 1.96522 5.82045 1.57339 3.38976 0.276854 4.07545 8.63689 2.84346 3.41725 7.21179 3.6228 0.868102 8.29536 0.449262 3.19784 7.08504 5.97924 0.775491 1.75033 3.3062 1.57597 3.27423 2.74266 4.13104
10.5266 6.17156 5.01027 5.01707 6.05264 2.47338 0.132448 3.03727 -0.124338 3.0017 4.65505 4.90309 2.2873 1.70286 2.45655 7.35051 1.50693 -0.0219196 8.19166 4.68998 2.50763 1.12965 4.73283 2.23632 3.96797 1.55658 4.65123 9.24868 1.50676 2.66651 6.40084 4.62493 0.324467 1.21528 4.7413 3.76104 3.80561 1.38961 1.17915 9.18466 1.49344 1.16061 6.55611 4.67239 3.70296 4.90105 4.54011 0.728335 0.263561 1.45228 3.1668 5.53736 1.69813 4.33484 10.0987 4.80809 1.90089 1.80547 5.92312 1.46146 3.34567 0.310142 3.81706 8.60052 2.74196 3.40792 7.27328 3.49246 0.851759 8.58185 0.263528 3.37802 7.078 5.88513 0.934754 1.75534 3.4189 1.54079 3.10912 2.71431 4.06861
10.3287 5.89719 4.98079 5.02229 -0.00789451 2.48792 0.319449 3.01131 -0.00423519 3.17489 4.78678 4.85549 2.03287 1.41472 2.46429 7.42709 1.68671 -0.0586332 8.11819 4.58262 2.43004 1.15743 4.59527 2.13945 3.98278 1.65137 4.882 9.24395 1.48017 2.80087 6.48056 4.78664 0.188847 1.31457 4.68333 3.70346 3.74109 1.43318 1.34239 9.30322 1.58039 1.24856 6.52293 4.65393 3.63666 4.97118 4.87435 0.537839 0.334382 1.37907 3.35565 5.50725 1.7603 4.53716 10.0737 4.52688 1.65958 1.87148 5.78128 1.36138 3.24316 0.386395 4.14416 8.49665 2.74228 3.48996 7.19707 3.58929 0.804467 8.50864 0.217361 3.41095 7.17291 6.07898 0.710092 1.8149 3.26581 1.60758 3.32637 2.92599 4.2612
10.2343 6.06607 4.83162 5.49919 0.159818 2.3586 0.24221 2.8216 -0.0138439 2.96876 4.82417 5.02432 2.20512 1.37907 2.42552 7.45446 1.58077 4.95825 8.05064 4.64994 2.49443 1.07591 4.57952 2.22416 4.02159 1.67051 4.84735 9.22167 1.43616 2.60192 6.45533 4.82412 0.201294 1.21159 4.67692 3.72431 3.79868 1.28941 1.26776 9.1815 1.43213 1.00567 6.60237 4.80798 3.75564 4.95986 4.96424 0.537594 0.214101 0.973536 3.15593 5.56629 1.78816 4.54393 10.0204 4.79767 1.69459 2.07549 5.63518 1.5843 3.21336 0.457623 4.09887 8.9191 2.82723 3.37586 7.26621 3.52847 0.767485 8.20462 0.5495 3.3296 7.23059 5.97251 0.860597 1.68669 3.21701 1.82688 3.36728 3.0212 4.47283
10.0871 6.25103 0.135274 5.36348 6.22566 2.51745 0.263708 2.96049 0.068425 2.89053 4.52383 4.88502 2.49468 1.62414 2.52741 7.39399 1.62157 -0.10689 7.97548 4.69614 2.3876 1.17956 4.78358 2.30499 4.12258 1.40786 4.71428 9.18273 1.65379 2.72668 6.26501 4.60109 0.246596 1.19991 4.70428 3.86943 4.12551 1.45569 1.35145 9.26224 1.70664 1.16756 6.32067 4.70451 3.59602 4.78115 4.79401 0.694629 0.393759 1.43883 3.28577 5.5347 1.39769 4.14493 9.89706 4.52987 1.81137 1.69639 6.03946 1.58475 3.28954 0.226937 4.10298 8.46704 2.85134 3.3451 7.11218 3.45935 0.886711 8.33607 0.457532 3.26651 7.09893 5.88515 0.865098 2.08247 3.58833 1.66286 3.43014 2.71532 4.05589
0.126535 -0.0565978 4.82543 5.39152 0.250759 2.53538 0.275427 2.97176 4.91672 3.02461 4.68267 5.01917 2.21542 1.51637 2.55435 7.3963 1.5404 0.0570979 8.09058 4.53809 2.55861 1.11926 4.6118 2.17018 4.04716 1.51502 4.90274 9.20317 1.43065 2.71612 6.39883 4.73765 0.112923 1.30017 4.75754 3.69907 3.70225 1.31762 1.29903 9.15672 1.48232 1.12108 6.55424 4.60735 3.66988 4.92427 4.9287 0.397373 0.460339 1.50854 3.21617 5.45372 1.76262 4.50395 9.95778 4.46155 1.63559 1.76995 5.92988 1.4209 3.42291 0.34206 4.09415 8.53809 2.67526 3.42935 7.07376 3.5558 0.930178 8.48628 0.231137 3.26229 7.26563 6.03496 0.760816 1.85366 3.4807 1.46357 3.17985 2.7907 4.26459
10.3283 6.18844 5.00896 5.16921 -0.00584737 2.36629 0.206816 2.86009 -0.0205226 3.0501 4.82379 4.93623 2.14635 1.51907 2.52271 7.47584 1.64045 5.10304 8.13634 4.60004 2.44891 1.1003 4.63624 2.17909 3.94436 1.59111 4.83395 9.32422 1.4868 2.79394 6.49895 4.80529 0.0701278 1.09762 4.55679 3.74305 3.63341 1.3515 1.23136 9.29751 1.62959 1.26448 6.58686 4.78959 3.6039 4.98514 4.82085 0.280764 0.363622 1.416 3.219 5.50305 1.54134 4.48425 10.0882 4.64863 1.64973 1.77342 5.78065 1.37922 3.1867 0.38635 4.02462 8.66247 2.70235 3.53239 7.17344 3.55281 0.797662 8.63851 0.184655 3.53963 7.10314 6.04489 0.934626 1.7848 3.32878 1.63379 3.06489 2.8448 4.37629
10.4342 0.081617 -0.023003 5.10963 6.18011 2.46555 10.4204 3.03498 5.00712 3.10248 4.57871 4.94204 2.29597 1.56221 2.48873 7.32849 1.61601 0.0662242 8.24206 4.69824 2.46656 1.00003 4.67449 2.20401 3.94099 1.42139 4.76276 9.35508 1.60232 2.85359 6.42227 4.75818 0.14149 1.00227 4.65665 3.72555 3.71555 1.45841 1.24095 9.28232 1.67926 1.27931 6.72271 4.8169 3.67091 4.92399 4.49658 0.43562 0.351688 1.60145 3.29075 5.38018 1.21096 4.35239 10.1185 4.59828 1.67982 1.61748 6.01824 1.59403 3.20209 0.203803 4.18434 8.50556 2.79395 3.48836 7.15449 3.64653 0.737814 8.76844 0.306631 3.37287 7.00344 6.05174 0.795904 1.78706 3.44017 1.50927 3.41261 2.57244 3.94453
10.4019 6.18861 4.94031 5.28585 0.0756511 2.48013 0.0807832 3.2188 -0.183319 3.03086 4.58891 4.97802 2.4811 1.4978 2.51742 7.24633 1.69519 0.174279 8.01771 4.58027 2.48133 1.14644 4.54124 2.23641 4.08742 1.51793 4.63579 9.12511 1.48875 2.70266 6.32738 4.79836 0.210851 1.28011 4.653 3.79283 4.05154 1.56897 1.27131 9.21812 1.55104 1.24226 6.42549 4.85972 3.6704 4.92419 4.69761 0.811181 0.521108 1.44837 3.16185 5.5072 1.7851 4.06533 9.90095 4.5333 1.64377 1.9876 5.6201 1.61476 3.54606 0.265245 3.91474 8.43246 2.7535 3.43273 7.29901 3.63855 0.743008 8.33823 0.27997 3.3547 6.89361 6.18795 0.778255 1.80452 3.18657 1.55899 3.33822 2.78931 4.0439
10.4183 6.12878 -0.148131 5.24226 6.17236 2.51298 10.4645 3.0494 -0.113167 2.94551 4.82241 5.00055 2.23316 1.57928 2.54265 7.40625 1.68569 0.0634809 8.25046 4.57323 2.48006 1.08018 4.61981 2.12584 4.05265 1.57245 4.73711 9.25504 1.42896 2.68185 6.34056 4.7552 0.16655 1.06918 4.59245 3.77166 3.74076 1.49198 1.25431 9.13693 1.4587 1.16001 6.56632 4.7552 3.78229 4.86479 4.62708 0.587032 0.333186 1.46178 3.04116 5.60215 1.81917 4.51361 10.0617 4.60075 1.61426 1.74711 5.88523 1.4665 3.62576 0.222796 4.02726 8.62054 2.72517 3.27081 7.14947 3.67649 0.989906 8.63991 0.299031 3.3997 6.88872 6.11894 0.905965 1.82685 3.41912 1.47769 3.08102 2.65359 4.06157
0.361928 0.035177 -0.0493631 5.10668 6.11607 2.46365 9.76053 3.46526 -0.0414786 2.97498 4.49432 -0.122208 2.18326 1.58567 2.51527 7.21929 1.24406 0.0296843 8.39774 4.94056 2.63745 1.13423 4.75215 2.26513 3.85443 1.43702 4.73006 9.45789 1.63795 2.69507 6.535 4.5542 0.123722 1.18508 4.71231 3.75987 3.64074 1.45792 1.10584 9.42347 1.62893 1.20479 6.59417 4.99623 3.68964 4.87678 4.52491 0.611693 0.379995 1.53782 3.26816 5.3008 1.25779 4.43328 10.1572 4.83596 1.78496 1.68399 6.05816 1.66602 3.15559 0.137342 4.08597 8.71265 2.94088 3.23939 7.27809 3.30929 0.439493 8.63402 0.425189 3.47603 7.21937 5.72133 0.923146 1.76554 3.5267 1.51242 3.27277 2.68948 3.90705
-0.0167729 -0.0877816 -0.00421752 5.26415 6.31485 2.55752 0.13899 3.27367 4.95915 3.18631 4.75584 4.76054 2.21927 1.46404 2.48967 7.30291 1.49867 -0.0223582 8.32718 4.58137 2.60394 1.07585 4.77405 2.10681 3.90689 1.41697 4.9634 9.28356 1.42243 2.6321 6.50443 4.8111 0.176188 1.00805 4.86432 3.62282 3.70377 1.38264 1.35817 9.09681 1.34178 1.12945 6.56228 5.02217 3.76936 5.03506 4.6989 0.492947 0.274617 1.40561 3.14055 5.40169 1.36737 4.57722 10.0362 4.86342 1.66614 1.83021 6.0267 1.49112 3.12556 0.27476 4.25136 8.56021 2.61176 3.3769 7.23313 3.52421 0.603916 8.62107 0.211328 3.33516 7.0228 6.04494 1.01144 1.74784 3.52878 1.58029 3.08675 2.70776 4.31615
10.3126 -0.0104203 -0.201561 5.082 6.14855 2.37839 10.2484 3.09832 0.110304 2.94796 4.52902 4.79525 2.53281 1.5843 2.4063 7.43952 1.59931 0.00454888 7.96438 4.73248 2.6088 1.2307 4.62974 2.18109 4.18462 1.45557 4.64993 9.24012 1.59343 2.77409 6.20233 4.78447 0.295343 1.15869 4.70046 3.79532 4.15487 1.56091 1.26724 9.15772 1.49264 1.25877 6.23534 4.69005 3.62245 4.74753 4.69804 0.789347 0.618541 1.63885 3.38824 5.55112 1.35947 4.13244 9.9243 4.87534 1.6663 2.04729 5.72701 1.55424 3.24355 0.222498 4.0144 8.65222 2.89446 3.42605 7.10189 3.54802 0.876506 8.59992 0.42196 3.61212 6.87979 6.02857 0.894578 1.77912 3.33442 1.66617 3.28821 2.67582 4.23332
-0.135008 -0.257365 -0.164336 5.1575 0.0666758 2.408 10.5946 3.12342 0.147248 2.98039 4.63972 5.01002 2.23102 1.5357 2.45757 7.38933 1.49159 -0.235318 8.14239 4.67787 2.47314 1.09256 4.83609 2.23787 4.00151 1.38686 4.68854 9.35494 1.39233 2.78853 6.37154 4.75675 0.195533 1.19067 4.69803 3.80554 3.63052 1.46726 1.09343 9.52259 1.4576 1.19418 6.51722 4.78541 3.66662 4.89933 4.92107 0.55942 0.331914 1.4462 3.23517 5.54274 1.57015 4.4132 9.97515 4.71672 1.80495 1.75349 6.14977 1.60506 3.36427 0.214934 3.87137 8.53391 2.57875 3.4984 7.24214 3.60839 0.944759 8.78959 0.19411 3.56949 6.95197 6.09843 0.858399 1.94503 3.68115 1.55401 3.24821 2.67031 4.07092
0.0349359 0.0595366 4.97309 4.80521 6.18779 2.36519 10.4254 3.21386 -0.0588994 3.05051 4.7108 -0.0502524 2.18536 1.48854 2.40653 7.3636 1.36142 0.00195365 8.13946 4.66006 2.27465 1.03998 4.72237 2.22662 4.0542 1.56793 4.90829 9.34312 1.6795 2.84167 6.45881 4.62094 0.0474349 1.0061 4.74332 3.75033 3.69012 1.54237 1.30051 9.19616 1.62408 1.24475 6.61611 4.624 3.62822 4.94111 4.86658 0.474879 0.317203 1.51333 3.27319 5.56817 1.29126 4.64495 10.2596 4.86984 1.41911 2.0674 5.69827 1.43034 3.26667 0.336073 4.26126 8.8591 3.06364 3.35288 7.16327 3.2755 0.577949 8.47279 0.567423 3.58209 7.31682 5.74954 0.723212 1.67138 3.35352 1.58791 3.55159 2.96678 4.2562
0.292884 0.132939 -0.0232498 5.19105 6.18345 2.37217 10.3386 3.1336 5.03861 2.97443 4.5176 -0.0406959 2.21756 1.73222 2.4181 7.30275 1.42882 0.135243 8.29002 4.68766 2.43153 1.00752 4.68271 2.09228 3.98031 1.47752 4.77581 9.33158 1.57774 2.67793 6.41391 4.6668 0.119697 1.2742 4.73671 3.66704 3.83111 1.75054 1.30564 9.14655 1.67932 1.14609 6.72513 4.6999 3.64931 4.93359 4.76216 0.496342 0.309304 1.64858 3.13481 5.47111 1.36488 4.41605 10.1059 4.66298 1.63697 1.80585 5.91288 1.57703 3.32396 0.149654 4.2754 8.5284 2.70647 3.33264 7.02385 3.43559 0.866476 8.75322 0.286986 3.4266 7.08538 5.81102 0.919344 1.53222 3.42009 1.44036 3.15001 2.66558 4.13563
0.388974 -0.0208002 0.114371 4.72315 5.82494 2.44616 10.07 3.11297 4.92513 2.98437 4.73547 0.076463 2.47273 1.45846 2.55439 7.19864 1.58356 0.157849 7.99197 4.74544 2.34511 1.28973 4.52888 2.30777 4.18329 1.60773 4.52516 9.20491 1.5119 2.82619 6.32991 4.66661 0.161404 1.40376 4.57979 3.84234 4.10927 1.60204 1.18011 9.04515 1.70182 1.29221 6.48822 4.77812 3.52548 4.85656 4.79934 0.614548 0.566259 1.53219 3.29988 5.5922 1.8296 4.00609 9.97974 4.69599 1.74058 1.9986 5.9054 1.73862 3.52133 0.332682 3.89775 8.47667 2.79233 3.47649 7.05023 3.55273 0.945503 8.47434 0.280543 3.43969 7.14571 5.88779 0.761827 2.03022 3.32773 1.47419 3.42243 2.82306 3.75968
0.214386 0.0617429 4.88012 4.88873 6.36793 2.45897 10.1732 3.0634 0.128762 3.01858 4.67822 -0.0711549 2.25627 1.73012 2.49781 7.38683 1.36513 0.164747 8.04462 4.70511 2.44312 1.02413 4.66158 2.27377 3.92533 1.36267 4.77725 9.35319 1.59396 2.68232 6.42433 4.69624 0.0848238 1.17214 4.52484 3.83209 3.75893 1.40603 1.20356 9.14586 1.2943 1.23531 6.58743 4.96452 3.5997 4.9839 4.38289 0.394859 0.399219 1.35869 3.24944 5.42054 1.27288 4.55974 10.2169 5.1632 1.83874 2.11824 5.8077 1.74347 3.37336 0.0824914 4.01414 9.01501 3.09361 3.12586 7.32183 3.53928 0.609445 8.49676 0.601087 3.47571 7.06848 5.87241 0.864675 1.65736 3.4414 1.50428 3.29992 2.62755 3.96838
9.67893 6.21908 0.0365605 5.63583 0.102597 2.73304 0.439477 2.80129 -0.0717242 3.091 4.74287 4.78504 2.2564 1.77179 2.36675 7.25074 1.68168 0.00139095 8.27578 4.29292 2.6983 1.2444 4.89282 2.30039 3.98935 1.52694 4.71331 9.06364 1.36306 2.67615 6.4183 4.72659 0.145362 1.27017 4.87992 3.83447 3.93525 1.40453 1.35949 8.94898 1.73486 1.08507 6.45452 4.60674 3.62782 5.08185 4.98485 0.848072 0.483284 1.39767 2.97584 5.47801 1.78449 4.30546 9.91654 4.6043 1.68346 1.74329 6.16543 1.82558 3.50096 0.13929 3.98581 8.61754 2.46923 3.69969 7.07786 3.47449 0.904436 8.18057 0.16754 2.88259 7.13561 6.095 0.480361 1.97719 3.64451 1.67061 3.00525 2.65747 4.2601
-0.0673864 0.116204 5.08768 5.26585 6.16962 2.41348 9.88755 3.47261 5.16445 3.08858 4.59191 5.09055 2.28145 1.55662 2.34182 7.13365 1.2663 -0.0205168 8.2491 4.91657 2.49698 1.20147 4.79645 2.2159 3.86725 1.42487 4.81446 9.34703 1.73796 2.77806 6.45038 4.40426 0.0207296 1.35615 4.74811 3.73094 3.8429 1.56123 1.21759 9.1461 1.43214 1.26798 6.61309 4.80161 3.72164 4.9972 4.27296 0.536644 0.412127 1.54365 3.31984 5.47453 1.40982 4.33626 10.2324 5.00872 1.76766 1.74809 5.99605 1.29949 3.36197 0.115381 4.24827 8.69296 3.13986 3.15586 7.26467 3.18844 0.606672 8.51515 0.515164 3.66729 6.98473 5.71397 0.938977 1.70801 3.49962 1.46427 3.20189 2.54126 4.09159
0.0416644 -0.111256 -0.0389472 5.26064 6.31996 2.64608 10.3326 3.33264 -0.0279618 3.11578 4.79314 5.13478 2.19301 1.56558 2.44994 7.2458 1.42288 5.00386 8.14498 4.70473 2.62402 1.22869 4.78667 2.1953 3.8976 1.39963 4.76444 9.31082 1.51691 2.59321 6.40303 4.62566 0.125124 1.28353 4.67172 3.7944 3.71319 1.40558 1.16072 9.11026 1.63038 1.12806 6.57583 4.7578 3.72056 4.97493 4.85009 0.45008 0.328139 1.45155 3.01206 5.32941 1.58449 4.28174 10.2873 4.92484 1.76976 1.96045 5.97767 1.42641 3.4356 0.0711031 4.20469 8.89572 2.97445 3.46656 7.14007 3.29097 0.690017 8.48454 0.360036 3.42288 7.37399 5.7449 0.858447 1.9827 3.53299 1.61117 3.02687 2.46455 4.0702
10.4695 6.35475 -0.0397651 5.12868 -0.0499248 2.59294 -0.0859479 3.18932 4.81084 3.01233 4.63796 4.92983 2.35311 1.60202 2.38059 7.21238 1.57263 0.232109 8.27323 4.56269 2.47714 1.13769 4.71372 2.13486 4.00647 1.58244 4.67134 9.31028 1.45215 2.73617 6.34034 4.68721 0.290561 1.17742 4.71864 3.68027 3.9196 1.4758 1.32824 9.07137 1.50002 1.25138 6.5409 4.79752 3.79321 4.80534 4.64929 0.624648 0.342635 1.58731 3.16462 5.47774 1.63021 4.22301 10.0791 4.67063 1.56575 1.92606 5.97898 1.52852 3.36307 0.260719 4.03665 8.50402 2.72132 3.42162 7.0755 3.42112 0.947984 8.7216 0.21781 3.41958 6.96932 5.88597 1.04991 1.79929 3.47016 1.55635 3.15117 2.79421 4.05968
10.3156 6.12902 0.134922 5.2869 6.39604 2.42312 10.3673 3.13438 0.077172 2.97605 4.62734 4.98568 2.40798 1.53654 2.34708 7.36801 1.67599 0.0858772 8.06348 4.48776 2.60863 1.12789 4.65499 2.25919 4.09274 1.58485 4.59996 9.27412 1.55437 2.76698 6.29697 4.70147 0.236809 1.2714 4.77228 3.8368 3.98509 1.34647 1.13371 9.2174 1.46459 1.21001 6.4722 4.90033 3.61839 4.82047 4.48254 0.537818 0.370349 1.5764 3.22721 5.57085 1.80146 4.31788 9.92819 4.71799 1.79937 1.84186 5.85398 1.57972 3.48832 0.374385 3.77775 8.40319 2.65049 3.34014 7.22476 3.61391 0.802445 8.57522 0.275623 3.57055 6.87714 6.00447 0.998106 1.84052 3.39136 1.66015 3.36581 2.80465 4.0257
10.2305 -0.0481878 4.92482 5.48668 6.44135 2.47523 10.4349 3.075 0.00644642 3.00786 4.69522 4.82395 2.30248 1.46039 2.48719 7.40024 1.63374 0.198179 8.07316 4.4987 2.35047 1.08677 4.70201 2.23358 3.97901 1.52805 4.68646 9.30336 1.58844 2.85479 6.3969 4.60461 0.198706 1.16635 4.78251 3.72666 3.84719 1.38582 1.33634 9.22564 1.65767 1.25833 6.58602 4.65872 3.62512 4.89381 4.84682 0.612377 0.372463 1.66514 3.31904 5.53756 1.63759 4.35363 10.02 4.52268 1.76705 1.60359 6.09511 1.44051 3.35001 0.274478 3.86962 8.47686 2.80596 3.45838 7.02212 3.47739 1.01533 8.49301 0.321043 3.43259 7.1201 5.83576 0.87135 1.944 3.63668 1.58894 3.25688 2.66644 4.05
10.2393 6.15608 0.00626033 5.18801 0.0748703 2.45944 10.7317 2.93625 4.90425 3.02018 4.70218 4.78168 2.25955 1.61075 2.48871 7.40751 1.58803 0.094705 8.1166 4.59263 2.4863 1.09992 4.68073 2.07342 4.02484 1.62839 4.71534 9.18969 1.49898 2.83593 6.42815 4.65904 0.292592 1.25815 4.69741 3.59351 3.95724 1.45469 1.29015 9.13309 1.68208 1.23708 6.55909 4.75731 3.76071 5.01374 4.76907 0.729948 0.263665 1.52316 3.23836 5.47316 1.62628 4.29659 9.88855 4.42181 1.75104 1.72953 5.98925 1.42051 3.34789 0.569072 3.86727 8.46559 2.72433 3.49193 7.23157 3.50247 0.919817 8.5625 0.292096 3.48237 7.16653 5.80326 0.921142 1.86918 3.47692 1.54109 3.22332 2.81744 4.01578
-0.268524 -0.214786 4.86581 5.47525 6.31706 2.55003 0.253261 3.02131 -0.107883 2.94304 4.70892 5.00519 2.51152 1.71226 2.5847 7.43551 1.55314 0.176286 7.97118 4.4611 2.37744 1.12695 4.64234 1.97553 4.21152 1.63629 4.6579 9.23609 1.53932 2.72118 6.25349 4.66749 0.298787 1.16393 4.57309 3.51656 4.12792 1.48155 1.23338 9.13979 1.49854 1.20268 6.40176 4.72801 3.66037 4.84042 4.71998 0.788082 0.33416 1.42394 3.29641 5.69712 1.731 4.15396 10.0048 4.59182 1.65212 1.88174 5.87407 1.41821 3.46178 0.466039 3.8924 8.74547 2.8061 3.49048 6.85342 3.42299 1.09253 8.38297 0.310717 3.45102 7.03429 5.91944 1.04116 1.89136 3.41606 1.34849 3.22784 2.79814 4.16046
0.088018 0.246638 5.14274 5.27165 -0.307159 2.32286 -0.11976 3.33639 0.106268 2.96185 4.56289 5.00564 2.30855 1.5887 2.48003 7.38283 1.47472 0.0676515 8.16927 4.58258 2.50917 1.12624 4.68586 2.17163 4.11075 1.54281 4.59337 9.27425 1.52502 2.77114 6.37219 4.55627 0.200439 1.26349 4.73507 3.74286 4.00777 1.56098 1.18703 9.10642 1.48649 1.18292 6.58173 4.71561 3.62103 4.82823 4.48936 0.669345 0.389562 1.58911 3.09821 5.53931 1.73203 4.14692 9.95528 4.81733 1.82452 1.87125 5.94835 1.51802 3.46883 0.315024 3.98233 8.72144 2.84977 3.42121 7.22323 3.43877 0.825713 8.50777 0.422842 3.42282 7.04743 5.81151 0.888788 1.78304 3.47736 1.50079 3.17015 2.74585 4.09785
0.161368 0.0986004 0.131516 4.7966 5.82982 2.49649 10.2225 3.20216 0.18207 3.02351 4.50322 4.79901 2.46725 1.65105 2.53093 7.47019 1.57407 0.130635 8.11576 4.68991 2.40239 0.968042 4.63689 2.18744 4.19462 1.49939 4.64775 9.20833 1.68454 2.79098 6.38938 4.68529 0.125062 0.985154 4.68359 3.73966 3.95748 1.36908 1.30034 9.20647 1.63152 1.22999 6.51568 4.86411 3.57192 4.92122 4.63871 0.460179 0.293916 1.67482 3.41236 5.71473 1.33306 4.31682 9.9134 4.72977 1.75716 1.75167 5.86287 1.54062 3.23163 0.311376 4.14424 8.50122 2.98686 3.35138 7.19785 3.47186 0.782309 8.53964 0.51272 3.60275 6.94715 5.82795 1.02899 1.53429 3.29803 1.54641 3.57981 2.67227 3.94419