-31249.9394893712
-31249.895277834
-31250.1605760374
-31249.6483437678
-31250.0298322078
-31249.6664228659
-31249.2801937971
-31249.3108467251
-31249.1916131689
-31249.6603375873
-31248.8401867619
-31248.8073796459
-31249.4737908572
-31248.796880683
-31248.9184964586
-31248.5776330973
-31248.8564907263
-31249.015702819
-31248.73541877
-31248.5492659244
-31248.4603446098
-31247.1494612182
-31248.2489367558
-31248.3247212373
-31249.9354826331
-31249.3283249961
-31249.4456185177
-31248.8690064598
-31248.8613761196
-31249.5307411251
-31248.752411182