0.0294851387006407 0.223935770493067 0.401149992713102 -0.0147367843711981 -0.292985024186467 -0.294879926236744 -0.301939657647396 -0.375947538334234 0.255869369468442 -0.458333097230873 0.683847524248866 0.122305514382964 -0.722267756036511 -0.919275091490804 -0.582844616985801 -0.0641417916264202 -0.283524912105341 0.135736436133625 -0.838130089228167 -0.0132506875122291 0.453770419919582 0.792497145470857 1.89350285666001 -1.1824844424696 0.531483001236331 -1.3213272838368 0.871513275416494 -0.599436708439061 0.512886221684561 -2.66234406550402 -0.0337428833346418 2.99429388084618 -2.34856242703822 -0.0596539333784438 -0.784287103100511 0.994774982570825 0.324383319760393 0.559063981920099 -1.34166367088819 0.284410913796692 0.173220786854377 0.185014945178706 -0.252753194047905 -0.52312049252734 1.71605440706307 0.760743780733914 -0.725363362642391 -0.242647478296732 1.68006258095586 0.251664332421999 0.688542356194328 0.650155291620317 0.943613655654078 0.489469397528105 -0.544100940587673 -1.13695511411613 -0.0972084751792128 0.690081674861222 -0.197347492226683 -0.323429440980674 -0.633557286632842 -0.456318896055585 -0.0951762762911002 -0.396170539794823 1.97945556223854 0.526419730398324 -0.0252399924656171 -1.01860369724079 0.331287499510201 -0.487398117892144 -2.45359939307589 1.09806642757467 0.229593222964478 -0.731034956173879 -0.0436879052213062 -0.851511645823651 0.440025566635218 -0.0553087712821504 0.310218862657026 0.577430904968076 1.00026222810095
0.0977450641315775 -0.266655655874578 0.0640152934162796 -0.264566892746158 0.00493188753438459 0.0683977364891388 0.107360470763363 -0.121408199843552 -0.0635059581433354 0.00917909065087396 0.400853544671858 -0.239711537114627 0.563667539750521 -0.54693378058631 -0.337405950540112 -0.800566034350619 -0.14946380592553 -0.579212678537739 -0.104026523017645 0.29019537869861 -0.222989347908662 0.156234545490251 1.2432616902385 1.29138474612022 2.49949818876264 -2.6011888657658 1.53147912029765 1.00877514626712 0.858845713799791 -1.40209536257085 -1.37962907476173 0.707562596217849 5.69524329746976 0.0156502968521525 -0.952146628414538 -0.970877876592128 0.52408491282457 -0.788279510025437 -1.01286576928203 0.105846863114791 -0.0416829600126141 0.886858639591356 0.647255602974045 0.131205897595235 -5.67086359567717 0.0450747575495551 0.106596339298855 -0.555407618004632 -0.546696210777022 0.0308383095948888 -0.285139564055917 -1.01232738055839 -0.115128283618583 0.52524936484434 0.298445530257537 0.518500993865559 0.225215407874916 -0.186711358167543 -0.32662480633764 -0.343810308093755 0.24544278020862 0.9058647385548 1.10393548172686 -0.382551670500234 0.139977211495534 0.534368548822526 0.621997098575236 -1.26444422690284 0.264351691522809 -0.608468474954954 -1.13400066100083 0.208671396025917 0.503597087875272 0.903128829095235 0.537109343375573 -0.735612288765613 0.149482832079088 0.599045129630028 -1.42869932455841 1.9167109073477 -1.85144014490679
0.147812130108572 -0.062700174829147 -0.234917717748628 0.0940894715466604 -0.0763015606312781 -0.166792260943511 0.0159354320453353 0.0725870898144053 0.129009662410233 -0.847240788570306 -0.188397229638868 -0.40338428020522 -0.297978618164822 0.135373396554929 0.350240890886086 0.0156017030275254 0.298416476806833 0.24356201921842 0.593178389469483 -0.342268932545396 -0.368490314580335 -0.763785137091137 -3.10686520369271 0.153882244424039 -0.140703290652926 -1.35772020182981 -1.85452315311369 1.48682885166058 1.01321595335157 3.96399239302791 -1.27351867370914 -2.4628851844528 2.10629727158392 0.364440829194737 0.0785757002017938 0.0417258974132106 0.262101206089149 0.37191682199201 1.79579918726793 -0.487022994134837 -0.056082158713254 -3.41335365470151 0.0889578093999196 0.548925356065475 -1.2065484129572 2.34955050147231 0.525716534047238 0.0197679164363027 -0.6146553172936 -0.585473311498967 0.0617586373382224 -0.170257591992851 -0.586923155822103 0.491745593980086 -0.989662860798009 0.443793259260016 0.378201109090093 0.776738348121389 1.59434770229681 -0.673360256985806 0.35623310081604 0.750484313093181 -0.195544378511813 0.229378793071678 -0.324860002040069 -0.151103397563877 -0.493161499759038 0.835365383428081 -0.386490855617235 0.039407020670816 0.0435130702967216 -0.379291513377098 -0.310695287826519 0.853190318209846 -0.189054146156977 0.242583714971296 0.831697192444187 0.285438583198993 -0.674155498782482 0.753358804941498 -0.398566806702365
-0.278481181641259 -0.364912626380932 0.188909907344194 0.2487160499511 -0.457086369952475 0.125883716802734 0.255206796526303 0.4467019467627 -0.465117720745488 1.00359591873648 0.312701518586127 0.711745778898718 -0.553577250610341 0.142602820686501 -0.649220438994155 -0.102092797329703 -0.0454794489779318 -0.17253918775868 -0.163580954755186 0.141704220596173 -0.525757157456185 -0.70861829063012 1.41547383384413 -2.35098234808262 2.38886367692625 -0.64135132472675 -2.44505639301828 -0.448729517667515 1.22523132442035 1.29529642044762 -0.00792619272807883 -1.13606139911928 1.27747765631025 0.322583291367721 0.105253709922119 1.72577368620887 -0.352381333161332 0.294936747587234 2.00696609473211 0.510565288060701 -0.615029155499991 0.630457823374214 -0.222536319765841 -0.103689451567453 -2.02826227409743 -0.379957171641435 -0.0785214499531359 -0.671211072964331 0.19330803413823 -0.50859402428601 -1.58852132843502 -1.12403301341804 0.686598088988874 1.3122726345146 1.50702639921303 0.229059205113945 0.448464951288989 -1.04381900712882 -1.19162933746611 0.383249724647656 -0.954718244467031 -0.292709659180246 -0.313373861715228 -0.310850325266996 -0.142756315465879 -0.43827387495699 -0.21849711878757 -1.07544073145195 0.0714388357361777 0.295052190059496 -1.02871712629746 0.478324956636754 0.601113066833608 2.30299298949616 1.02455631220253 -0.0663192577680479 0.074520301281981 0.0522550736361341 -0.389912735045611 0.304201455929118 -0.0847579145571414
-0.507790812073654 0.476661453751368 -0.352220125076457 0.503377258668626 0.0282021588864097 -0.10315054862344 -0.419483234327079 -0.128221619698686 0.223104019050374 0.321461005417998 0.259160379813563 0.177681134312749 -0.744571035989474 -0.931565986689101 -0.157723470561236 0.538693142104162 0.267027694309686 0.0776380193636174 -0.53346609207945 -0.46149812358622 0.35376252906555 -0.777160780152407 -0.147654521566263 -1.29024163424566 2.10074754827928 -1.18577262460271 -1.12017276112729 1.40220669128018 -0.10595484939174 2.6309809940252 -0.476836802896319 0.160624444758424 -3.24302150075552 0.740031241484489 -0.270890003481907 0.589235090589551 -0.0759511194515593 0.118028229375038 1.13282566746355 -0.193278980687526 0.173620336079089 -1.46030587938074 -0.496776468935008 0.244505870700993 0.851429370565023 -0.184887418527833 0.19992502181339 -0.256763855795838 0.0230643260952718 0.279923312658899 -0.430451554742929 -2.26387393223055 -0.465524983275696 -0.27235964528915 0.406163898395932 -0.641785583826196 -0.727762714872132 0.226034818028815 -0.720057122681249 0.391777298094269 0.576012685197475 0.696134048574047 1.24286291234434 0.00711372454912693 -0.23514680292187 -0.450298404005478 0.570873823965604 -1.47363781371086 1.1015042478344 -0.415179724080466 0.52519974257898 0.137755779512577 -0.0724477360951041 1.05809273606005 0.725618673054322 -0.339428893461629 1.37259248326757 0.358595429179397 0.0853528675210954 0.908012122804992 -0.130299069979044
-0.432054122514894 0.975398130723189 -0.16142045788565 0.410230353053623 -0.190397803974446 0.107466914379213 -0.293889537811009 -0.545738218234372 -0.560641867114475 -0.48173398055597 0.207480975877642 0.204493612658895 1.49075235305641 0.0802654283258672 -0.536722649660021 -0.164212931585522 -0.320128146228224 0.0840912278520711 -0.361045432115231 0.291760151273642 0.814409360835153 2.26751229843319 -0.777675000518832 1.16683748804983 0.0565614120947623 -0.394654103934235 0.893360441904437 -1.18181029956922 -0.203719453897242 -0.293236220835465 -1.69338885886196 1.17072550824037 -4.32299868428008 -0.417132475921966 0.148599658599752 -1.04458699524607 0.31925474293585 0.421835792503474 -1.45074677987907 -0.500174951336712 -0.218334368041597 0.446413983357502 0.334818136546077 0.583945305680134 2.07784828692163 0.286224826139257 -0.0475543281564576 0.574019052836844 0.323256148717188 0.289065893663757 0.480575699180597 -0.757550729368597 -0.960355128123785 0.0549645007468287 -2.05870540534072 0.477440497606502 0.0931335358854759 -0.316142938388428 -0.481779746168582 0.699942878828159 0.892440244558719 1.22667654076019 -0.244400969746243 1.00600709803465 -1.24703606772806 -0.446827673642291 0.966867471954377 -1.0976110854402 0.955692177841041 0.348589215069129 0.807103574979166 -0.593566882956317 0.328066680245097 -0.11962976870627 0.552750898481496 0.00119581946212192 0.691466213197822 0.291657307200357 -0.373935651150596 -0.767150195169023 0.157491557175978
-0.308562301746587 0.109833356505502 0.42744002316696 -0.14499008873763 -0.104205985925528 0.27307595425958 -0.0246198427037082 0.190596293035886 -0.516396547015963 0.511254600461894 0.803202956389647 0.202137712050118 -0.0369842714144034 -0.546167592240337 0.083001594895616 0.169828732207253 0.493348418862234 0.291490699801635 0.390095026165509 -0.622624190312092 -0.394617594288219 0.590346063691212 0.664901846178477 -0.516472137409828 -0.399560280450299 -1.12198075993564 1.70910703280248 1.08488130315916 1.99795104037812 0.47544995056807 -0.208796351574958 -2.1983694566331 -1.45166234924149 -0.306714450859838 0.325726720467679 2.55441872366814 0.467618374387414 0.858275443413426 -1.22934765845358 -0.044621215186368 0.0103867371814237 1.8652027387938 0.082258032245765 0.202227186393876 0.312693548170447 0.170432684027619 -0.136262226458295 0.325327942573516 0.766849119144482 0.612959675635313 -0.948104342114069 -1.35292124026015 -1.08901563490521 -0.277250909414587 0.522958513111916 -0.108218704554927 -0.00783568994358799 -0.585737620767309 0.0269016955797203 -0.891186575305374 0.979705754732733 1.36571298609534 -0.22221210382481 -0.0795560613303835 -0.243910403516673 -1.23997479365631 -0.864483883007461 0.930593595976191 0.061307151856501 -1.21230151041677 -1.87209920523811 -0.00871989186365621 0.641094985874087 1.37438171303254 0.511844668332367 -0.461560858470924 -1.14361992428536 -1.00730884689226 -0.345912955172068 -0.780525324009927 -0.381408558625671
0.12362577517376 -0.855623608983771 -0.32051998214744 -0.404622779957755 0.0245067142230946 -0.811112694066001 0.375798928648337 0.802137234680231 -0.164952894692808 1.53829665391572 0.166918502043469 0.365715067262738 -0.494136718683964 0.0872719379285944 -0.12031008225105 -0.318255355653703 -0.126306663054119 0.897967342167241 0.052706044897489 0.083976299600175 0.462398266337648 -0.66878523838572 -1.69547787910056 -0.355882659636321 -0.655559490561263 1.32092259240842 -0.990082464617012 0.46575098312674 -1.14336075722068 -2.34610393946634 -0.376854108840242 2.44462521924104 0.261476942564309 -0.250745163517014 0.17109062898646 -1.38638901569875 -0.538083276749582 0.181482251261365 0.815388179302644 -1.3697570721671 -0.422901771323074 1.27656362960893 0.814604250354028 -1.08871018800756 -0.233027700791832 1.27070768807608 -0.823303573403027 0.359802304379398 1.45891337062846 0.724644739680312 0.413439602360483 0.952207049307593 0.264681306777688 0.163608208434606 0.792528770023392 0.469827979301943 -0.0341540025175988 0.719780215013929 0.343501004543351 0.369855569653194 -0.0433066108196018 0.445362659818346 -0.449384634414341 -0.505128950346853 1.2365135763699 0.918655713059445 -0.706707447748483 -0.659117124166376 -0.30960616909043 -0.318984263023111 -0.797485340135365 0.151594478013813 -0.467902738250047 -0.821451608753347 -0.0689734061893519 -0.922979535010532 0.537130683520779 0.613110856423042 -0.523110722340378 -0.870854816237286 0.520924000232155
-0.205921602616458 -0.357679859816977 0.727881499776776 -0.0279293649820211 -0.279449458591238 -0.0312396585908837 -0.263518654529201 0.252955796872276 0.265211210865289 -0.1230094820646 0.126116401518541 -0.200725920034097 1.19402971813658 -0.109367215743338 -0.262608484480628 -0.144356312136011 0.517876987450902 0.0415253514703048 0.820456849454497 0.0332456322403086 -1.28658604166074 -0.746143778980186 3.16315407899327 -1.3789341059365 -4.44090298654681 1.96354712676244 -1.3581110093083 1.99485491955188 2.50122236965127 -2.103579102727 2.01158507917352 0.98137491404215 1.95653856027825 -0.550690674583413 -0.481219503079362 -0.242174909779988 1.1538747639428 0.450728806452176 0.964444465587782 0.77385974251014 0.287404190549653 1.68242053844611 -0.0829193196369879 0.414293208168749 -0.370582163030953 -0.707862643801658 0.0921014956100604 1.03687574663116 -2.97249556529305 -0.426187382354348 -0.452714725507311 3.15384771880171 -0.288886430755874 -0.223705142658725 0.553987855572932 0.652164093481757 1.17862830394178 -0.834817738737838 -1.51149188887507 0.817741508809589 -0.41733610718707 -0.905214249791272 -0.839354705030808 0.263901491592004 -0.63635978762986 -0.00905464932219904 -0.16034239488744 0.0625487369312348 -0.645378184416226 -0.224367715600864 -1.74149211725957 1.12117626217237 -1.94366222519278 -1.81294689382711 -0.889930592060381 1.26093364446125 -1.67085083731172 -0.00874740265325996 0.664945554909623 -1.27758847079922 0.510983863438971
0.181867145205634 -0.196138045924851 0.0798530235919941 0.0640062945598671 -0.0600002607952312 0.208128893539338 0.105449370771544 0.429303557774885 -0.0868924432981726 -0.396133001708074 -0.183359926929367 -0.120218293915644 0.660464124416227 0.144360683009126 -0.250696055472021 -0.274974970072789 -0.255958329591833 -0.0316456355701764 0.856386712007546 0.24328434022055 -0.395193521098615 -1.3387549833855 -1.81121525674317 0.572506216518821 -0.289376996985444 -0.0207027690624638 -1.11273044976401 -0.0188253505046453 -1.64566689486605 1.3582380217388 -0.242335603644496 0.241357556507555 0.961096119671804 0.463094520713787 1.35332593168853 -0.638437752130584 0.987970818682286 -0.156348445301415 0.907789208276147 -0.732638809496759 -0.754487261535618 -0.313228080241346 0.924829185668563 0.0938418744402267 0.218818249406403 -1.30250630420527 0.144650189075423 1.05916025754075 -0.802730387872903 -0.184387339221484 0.464762137362105 -1.99501124254327 0.19349855278399 0.22752939952383 -0.453628495098448 -0.0678716890542858 0.514426311682005 0.777354898340733 0.772718944627226 0.316071204647312 0.839273458212913 0.39639833941715 0.00452359656344294 -0.167542765568309 0.0118211548935669 -0.0414592741532191 0.0760879020690284 0.589112449032158 -0.468621361212126 0.630678938131777 2.06281094074626 -1.55923159347363 0.0280340088265887 -0.885978808544403 -1.28640966407506 -0.0693724411936979 0.355174063971387 -0.0155435961261193 1.48833371756293 -0.809543036397488 -0.572595176642213
0.231065435873553 -0.544034091940038 0.0786690311983 0.0687126964635743 0.0468205356935688 0.0386205206203685 0.22585355534965 0.67691634792982 0.308661032056941 -1.16531436732448 0.146919186442275 -0.128721184784668 -1.20392074688477 -0.163956592732859 0.00812802422190074 0.0244558064068185 -0.000802440881806605 -0.196846127369418 -0.00576235342616137 0.0784988242570132 0.242004959948884 4.05319702820371 0.8907068077035 -0.314239294591922 0.702367427855854 -1.49245622224056 2.45983611479008 -0.0677359348775495 0.80035083312727 -2.5630298579243 -1.23270988831945 2.91494067945035 -4.08903793063337 0.903035498098728 -0.206933588297583 1.30668100225009 1.04305513277449 0.112717104320415 -1.74398865713857 -0.517214414508763 -0.27147287226725 0.331202653149741 -1.04685444995183 0.196327021909512 0.998751962884758 -0.373028052203855 0.944101650781815 0.0862162435163234 0.491291794506716 0.581179057218949 0.304692536379054 2.70493179625136 0.388861154396272 0.523985668293851 -4.67165294822556 -0.124630561769755 -1.38470854354128 0.345521890583402 -0.922711626199624 0.29814651111446 -1.3865445673596 -1.96495429079516 -0.787304291100512 0.827865479383769 -0.7873641977732 0.127790703031622 3.02617657200528 -4.51478231214204 2.46513078479298 -1.16760599038745 -1.54383326460102 0.987910654899415 0.00410502118517278 0.616611154457298 0.75207762489855 0.0986207814155997 0.985169346126002 0.213099861821571 -1.91191220288822 3.15781235782684 -0.323729488564483
-0.362597349181102 0.61791984528985 0.127016801380152 0.17716819949724 0.049944167309419 -0.245192354890171 -0.378869852676629 -1.10707119752132 0.746129123699742 0.544319484243404 -0.550258986585799 -0.0267330312995328 -1.12289607218788 0.528214102366965 -0.514582634673398 0.45289393130501 0.56847652861733 -1.13255827287301 0.0552069556495982 0.157168626785863 0.246008679721871 0.799037771421603 -3.60268547985635 0.355522962490007 1.72338744659847 3.24861467568113 0.60720606395538 1.7611448483338 -0.014999036758075 4.47107486654681 0.597327890716351 0.547955022234031 3.19904691767994 -0.286563440250548 -0.0454123432201133 -1.33287538771579 -0.284374918371042 -0.865349572994338 -0.676456377812052 -0.947918451451607 0.154996045737716 -3.90451586567588 -0.255642341176665 -0.678170017183164 -3.74647075027545 -0.767735377946015 -0.412472868071603 -0.129162642969244 -1.76937494529843 -0.257033821488212 0.671116970637276 0.742839141795354 -0.699523532119339 0.657157430349929 -0.378289297882935 0.771353175334 0.711505895097781 1.37004272158065 2.66466988422136 -1.54637865541483 -1.25025560144225 -0.924301595572611 0.379170928701171 0.524443324419969 -1.06489741416895 -0.859637356053903 -0.674083507931183 0.96003142640312 0.731392339328544 1.15175360493129 0.598768993293258 -0.647929231654062 0.0952950611957444 -1.79677877706597 1.01523426828979 -0.420461024353836 1.93534831030841 0.721380468794245 -1.09579794442818 -0.784506418086792 0.123528844634689
-0.242789660228049 0.464546421918389 0.226351063554167 -0.00121176029348111 0.125484938908571 -0.317186291511905 -0.0385595855069471 -0.420176660491203 0.0728254309542434 0.555108341751372 -0.660915095677582 -0.124150279947514 0.202613880109427 0.0921369768153437 -0.812452238120539 -0.127036084643893 -0.30271870150253 0.486006380470414 -0.821092168717216 0.201240654620889 -0.129496629097238 -0.787744463734172 0.166942413290508 2.15837262520199 -0.0153458783952288 0.613574426083374 1.76355885584398 2.97849188898593 3.0122221739216 -1.08284293362665 -0.111790222109934 1.80695288412588 6.05224644328452 0.693464730651934 0.525549926648516 -2.92564443348768 0.735300928333743 -0.184958638048583 -1.31539266658789 0.064110167073885 -0.104508604611169 -1.43735108222351 1.05338299172396 -0.141639428830003 -5.03664347899201 -1.12934465269303 -0.0554172717794662 0.0083329410379212 -0.942576730285181 -0.0737767386321301 0.470901157206672 -2.15411205235598 -0.184703070526469 -0.585699568460194 0.706402515071193 0.144414676147601 0.354694810589879 0.117277210529874 -0.249856333613648 0.213375998158341 -0.500160296056269 0.311165285241431 -0.103379119576316 -0.271465930292303 0.388002663494525 1.11852108531033 0.649906923183333 -0.836754035527613 -0.458666312028316 -1.56498700492484 -3.34322762356081 1.47531057256284 -0.0177344319972741 -1.09880767623287 -0.705085339602595 -0.179661911164219 0.15877865075314 0.190851860557999 1.14955299887318 -0.353552470045865 0.442641662749406
-0.431322129823287 0.444020544661976 -0.243506740529029 -0.307038409690686 0.0952446675998348 -0.0849664309157268 0.464177725915662 -0.0013256601046443 0.325748831943435 0.569855667640082 0.206416025498776 -0.0283564249963373 0.358503640843991 -0.267017667012541 -0.703605413388023 0.293912934837681 0.0981968067234821 -0.598576417766032 -0.566648475214688 -0.2232261463874 0.125962906739163 -1.56365028908232 0.454637909677741 -2.15999499045806 -1.68698372997777 -1.07651108114467 -0.465555065167132 -1.49376979816659 0.310952912230098 3.25543452329085 -4.77420340168139 2.37295472722978 -2.40085683853238 0.226548267064691 -0.678575994162457 2.54039413450444 -0.533438581289846 0.429699507457032 1.27202949152798 -0.232593184582203 -1.11405533853811 -2.08325222875239 0.355526819142755 -1.15281726975924 1.99860641423513 2.73944061082179 0.201125469258809 -1.09952732763568 -0.612407917182138 0.348206892226691 0.103598948782963 3.67036073673066 0.0952215276833456 -0.507710593696491 -0.103936020233154 -0.264946901596947 0.0158989223993191 1.44085935067345 0.222493896585611 -0.382669426964145 -0.239935737194389 0.985638315100182 0.0323575736674922 0.597021415377962 -0.742540893982827 -0.381235266362185 0.71318251060251 -2.49986097123115 0.679217226959389 0.790724627867789 1.16003306705111 -0.767809425678781 0.115067862725528 0.954062356389656 0.593846361725469 0.364179605248592 0.252391954240491 -0.0955724830834309 -0.153434101374699 -0.610418912804805 1.06009948104002
-0.0341527169666827 0.198451009133032 -0.659240022833952 -0.115621935170351 0.195091350368992 -0.250892230541812 -0.310315793196097 -0.593400275557595 -0.144147795777426 -0.260735436795924 -0.598582331300246 0.675908990231992 -1.29476034571562 0.236441609804529 0.806936967580445 0.66561841225909 0.0881211728637457 0.0546860504184095 -0.984061972566905 0.800080610324713 0.188099496046708 -0.0993661438367331 2.16852204968431 0.800461390506051 -0.96413619047811 2.64283737301386 -1.0224554648955 -0.859875954303924 -0.892289577991357 2.08675432655793 0.215138745574447 0.609341364026961 -1.15664409772618 0.957158734326085 -0.257966103012541 1.9620039514428 1.275034081129 0.086728407001283 -0.129639839469287 0.358430621551958 1.05572346572174 -1.39397582298499 1.46586562998253 -0.61984534345193 -0.558309877752736 -3.43126909226776 -0.0808889205201578 0.75801918412241 1.61863818685582 0.716950460337491 -0.263900977371638 -0.382714164136024 0.153376765803843 -0.112730731160125 -0.38194231936602 -0.701600211069148 -0.967438770781476 -0.425737696643909 -0.78901921602254 -0.0415338361063508 0.195842369214156 -1.07831316641881 -0.782401971237196 -0.0990198164199457 1.29833983368631 -0.41039901733381 1.01002855841028 -0.718796768563141 0.854837366043506 -0.541146230362194 -0.992554064808235 0.718694952930589 0.61466894413331 -0.278518976838192 -0.528088889707741 0.562740657540039 -1.59802926301023 -0.872569998269498 1.24569112435968 -1.05020151031689 0.387967182289241
0.515795680517795 0.0303372018478074 1.6150944372006 -0.133768771901499 0.12867413362114 0.630431598135527 0.0744094867930164 0.256173273704999 -0.059324061013382 0.183908600060342 0.659923935921297 0.326844121323921 -0.856428106747043 -0.450155193633429 0.736303915158455 -0.614479711038466 0.63900802251695 0.537935952614601 0.409248449263934 -0.465655081028402 -0.66652832519748 -3.84338277741342 1.53255409797367 3.37378002663197 -4.94203721597709 -0.493687804304075 1.37026306500766 3.50473704156985 0.763300227285598 2.03016206124118 0.753484531821089 -3.23484668248028 -1.67177489131019 1.03137487426133 -1.04003254546064 -2.2817618590072 -0.192737763751864 -0.620595590966544 0.370737714691797 -0.165630637135757 0.0537419418256527 -0.0108356515613129 0.704617399069148 0.355178177734318 1.56269152520912 0.131059344790804 -0.195748781107467 -0.308602410935168 -1.9878031585569 -0.535793196347707 -2.1042437325506 2.92169213575133 0.292605272445862 -1.47986399390754 0.112809921096555 -0.754014693018874 0.581254904722997 1.63680559240162 2.03682610007987 -0.863756518299152 1.78787479431113 1.5941227308865 0.508356454476721 -1.03682123927232 -0.220683326675427 -0.307393993074069 -0.726988813220662 0.937809650378236 -0.427358005018515 -1.42117782325871 -0.209621161042704 -1.34381645445222 0.827731524978315 0.735047417693095 0.696421497758879 1.13807740006585 -1.95358205028149 -1.26532508639052 0.187629241521612 0.15911392243205 -1.5496917772357
0.4568547136774 0.276522002045179 0.867544265518241 0.299739308699462 -0.257621061146669 -0.208558524655486 -0.229590394752462 -0.470585940122054 -0.549012773527767 0.543051159709616 -0.432086518397978 -0.388542851989454 -0.315645173073728 0.565150037066925 0.556727621685245 0.759506823642479 -0.116240028050795 0.905200365841379 -0.622306916346008 -0.197104265993364 0.408465034535685 -0.628694047517376 0.315139180233166 0.402272792883192 -0.36309254339397 2.99010658440238 -0.976529158419141 1.29286390100425 1.88764408691514 -2.19137708809045 1.88562628619729 0.910886614653309 -0.650719391362285 -0.0993203782241213 0.285099969087702 -1.04015004481437 0.934813545413259 -0.761942171297869 1.26865697725478 -2.09930695992274 -0.355751790553066 1.95778683021775 0.337468428314633 -0.277696481362094 1.46802149886876 -1.79909276871488 -1.06560523850334 0.162294889618756 1.53817992589254 0.755277361128631 1.05819840834535 -1.55179570986493 -0.595955436558362 -0.186563519812196 3.31842806083904 0.10608289026298 0.145420234074145 -1.26052021128665 -1.98673949372895 0.173575084686844 0.311512641098952 -0.487440798182557 0.476812120318731 0.368669263267851 0.0810953799972775 -0.866191351734176 -1.29297497260339 0.612392490571145 -1.41743841275406 -1.91339701419627 -1.34969990677468 -0.764189314299147 1.0551819916759 -0.229414017166779 -0.0717147149627649 -1.01759402555131 0.201077903874915 -0.0962373700172187 0.0914355802355397 -0.402591866620559 -0.443751864520518
-0.0357699400190901 -0.371730159998998 0.408104566058821 0.226321238772914 -0.116692799083432 0.351738300593117 0.0638260603214351 -0.119354660810232 0.0244835743066055 -0.351417427084467 -0.13960877260299 0.0728804525334509 -0.952355144773124 0.54040960968729 0.447932476099556 1.34848326138772 0.118511082299112 0.50139519626624 0.20777768102907 -0.362947019030271 0.362249221993032 1.42312800399837 -2.06503494383105 -3.44452775019567 -1.36272973663953 0.58725585639918 -0.630835518233353 -0.154657688736608 -0.0868664751696681 -2.03252233272308 -0.542938288339186 -1.32428662204558 -0.983109636448285 0.350603159134233 0.598171212117289 -0.0675868109712862 1.4469266367769 -0.137662448516071 -0.478406974785199 0.190511960895792 -0.721406436922749 1.43068987159684 -0.43834586580829 0.722620511207879 0.0902050508986841 1.99480144063377 -0.309622109921789 -0.0294874526922896 -0.561281300140124 -0.341847271844927 -0.276319142110624 -1.45226938638406 0.150016078599071 -0.169940318026767 -0.970540033811387 0.715195169116699 1.63287180659847 -0.604376309278942 0.994507073759918 1.55587810535398 0.038926995958758 0.916265359686117 -0.86662303973179 0.140057172762513 0.014454991610397 -0.105098672481642 -0.875863065496085 1.66173602420665 0.580052400396112 0.809962125996124 0.474048442959378 -0.451650546458993 0.156587814881986 0.468706721792953 0.631556198076899 -0.402523475311824 0.338123287951275 0.900400375830982 0.307154109273131 -2.20296170161546 0.545670598256187
-0.284571350551017 -0.097945095854117 -0.608501899278772 -0.174838781237334 0.169996368046707 0.402312130741223 0.0534020421634456 0.310303451907303 -0.571799934845536 0.181890542232306 0.656221035062669 -0.612795896448606 0.0574142465724786 -0.405955382037346 0.209610362415009 0.161521502187653 0.379438837512079 -0.27478779385941 -0.629639441661048 -0.0291200422404788 0.282673620288724 -0.208293444056594 2.01880936110143 3.86066495259842 -0.852172676104691 -0.543770039781879 2.84965963260212 1.03579048454782 -1.65171104105301 1.83873221699132 0.661900856120019 -1.35736461844643 -1.77207383089162 -1.29274691587088 -0.705152702470597 -0.706367805196459 0.120732257171886 -1.1298429322281 -2.28652585359194 0.505253905895895 -1.15550947048766 -0.441035495434877 -0.990886705270101 0.381454067128099 2.48093354798377 -1.63537888799498 -0.154338357889058 -0.566412190956316 -1.75362951767849 -0.167401612077725 -0.601628829861132 0.648474819462839 0.521819515000284 0.0138808645712832 0.355275365383573 0.883221816049814 0.437800535109696 -0.144452728454716 0.0126523921158933 -1.33248766555951 -0.384333958290264 0.554919108656528 -0.0937423727993234 0.241408978544197 1.49522427047303 0.777411719691223 0.570792320037526 -0.91478903301411 -0.631213984423042 0.487565239511232 0.218152591142066 -0.976169975493193 1.19849880734118 2.27969392180362 0.206496243875938 1.64298652120605 -1.40080389812057 -1.59015757764099 0.428037033012379 -0.168201996078066 -0.294474720588001
-0.656565305597991 0.398050529454474 -0.0335816752497675 0.883177850208484 -0.011557616955774 -0.20583932735783 0.617695388099906 0.499307718688736 0.364466797323241 0.809082037838987 -0.760736324538601 -0.0818417708591438 -0.478078645081236 1.0799658706765 -1.21472631655465 1.03416631952047 -0.141861314918116 -0.170546069618416 0.938495106126681 -0.099783176553904 0.488928694812809 0.0366142898607604 1.16249978214885 -2.77738955964361 -0.936818233511768 2.57576555373955 1.62349217000469 -0.616625552627558 1.70447236463989 0.0965487304490892 0.264230592626516 1.77812697593499 -1.0199573823554 -0.99470093483806 -0.237361550040064 -0.43572488460062 -0.233380970183566 -0.548549460977618 -1.44971833914622 0.49866700011217 -1.33267432755252 0.201395177840999 -1.11582065705605 -0.650228568022532 1.48198746691069 0.10745303042932 -0.563721275778812 -0.796497265701279 -1.31332292961302 -0.152989557867925 -0.430159734684983 1.63885193234981 -0.934935929860468 0.0713632453423132 1.17130272060168 -0.60146942154754 0.899144135475805 0.00995607762454251 -1.91639311916125 -0.255116550851995 -0.765433727585896 -0.258082831035719 0.954173427988804 0.490553374060529 -1.10285407629627 -0.170103325882924 -0.00380368805044759 -1.71440324546648 -0.539259812947963 0.725823589870342 0.176837298691446 -0.262260871512924 -0.399887838823712 0.868158244635752 0.557045924092063 -1.55191063811683 1.99988682294753 1.52792225802309 -0.159719931133882 -1.21546910787395 1.57625434448377