5.203180021 3.1093652028 2.4734653355 2.8787375233 4.6922721699 4.9248447376 2.2190940475 1.5326379181 2.4242500754 7.5276215631 1.5264586977 0.0220841364 8.1872651462 4.6860919639 2.5226819569 1.1280940877 4.6568715196 2.2018496827 4.0782240026 1.5294698605 4.676466232 9.2782631434 1.5618593743 2.7450865944 6.3281396351 4.6892598707 0.270444336 1.3723464114 4.6535144096 3.7227374966 3.8622766372 1.5787277967 1.2583017194 9.0340126785 1.5652163858 1.2241884877 6.5440820885 4.6400033122 3.688641146 4.8079951239 4.6329084449 0.6073650613 0.3883169469 1.5645385269 3.0465490684 5.5983614029 1.5858222826 4.3395663955 10.0180449391 4.6541920354 1.9003809509 1.8593681921 5.8763393994 1.5020375047 3.3541699001 0.3101802523 3.9998264649 8.5270065863 2.7595202414 3.4533699717 7.0412959946 3.4804110061 1.012600297 8.5469926374 0.3423925885 3.4448915215 7.0521916483 5.9085533786 0.9471054018 1.8793545853 3.4592085273 1.4935590121 3.3650650577 2.7383178347 3.9343314136