0 0 0 -0.0726074015188791 -0.00665863952484059 -0.0467930249039651 -0.0294458008426092 -0.00228982329169165 0.00497302516369861 0.0726074015188791 0.00665863952484059 0.0467930249039651 0.0294458008426092 0.00228982329169165 -0.00497302516369861 0.0450521318534324 -0.000186661993012366 -0.0482109875643827 0.0184350572465285 0.00434181966391161 -0.0117085406333198 -0.0450521318534324 0.000186661993012366 0.0482109875643827 -0.0184350572465285 -0.00434181966391161 0.0117085406333198 0.0149581562389441 0.000666172484703914 0.0236073428022169 -0.0101224279130811 0.00170181230268437 0.0161205513772484 -0.0149581562389441 -0.000666172484703914 -0.0236073428022169 0.0101224279130811 -0.00170181230268437 -0.0161205513772484 0.0195090064818076 -0.000781100736599957 0.020897658581339 0.025462392774096 0.00152260650498517 -0.0110287413089056 -0.0195090064818076 0.000781100736599957 -0.020897658581339 -0.025462392774096 -0.00152260650498517 0.0110287413089056 0.0142297630899028 -0.0203505281114626 0.0202322574271847 0.00433924856207949 -0.0107436061157228 0.00256338852662988 -0.0119350547047301 -0.0217191256167034 -0.013655636050789 -0.00296859417537298 -0.0137530808102266 -0.00320616398466144 -0.0142297630899028 0.0203505281114626 -0.0202322574271847 -0.00433924856207949 0.0107436061157228 -0.00256338852662988 0.0119350547047301 0.0217191256167034 0.013655636050789 0.00296859417537298 0.0137530808102266 0.00320616398466144