-9.41308103925964 0.277736842381042 -0.601430140695638 0.277736842381042 -5.06719879336923 -0.449574025436939 -0.601430140695638 -0.449574025436939 -2.20391177803086