9.920982771 -0.082487719 -0.091937468 -0.049293830 6.283643642 -0.246863466 -0.043704819 -0.196376876 5.227832696
10.104132354 0.070952927 0.006459250 0.042400754 6.144134664 -0.027480174 0.003070569 -0.021860144 5.112394117
9.595986614 -0.416517952 -0.013560337 -0.248906930 8.241846823 0.376668367 -0.006446252 0.299635091 5.336150848
10.241915367 0.043111012 -0.004627035 0.025762706 6.117322782 -0.007308450 -0.002199579 -0.005813783 5.040882642
9.411698405 -0.315777633 0.463038896 -0.188705531 9.003443551 -0.006953028 0.220117344 -0.005531049 5.321365531
10.009829313 -0.189532003 0.071492536 -0.113262415 6.429420336 -0.121214839 0.033985800 -0.096424926 5.176220380
9.394069254 -0.320088722 0.446458636 -0.191281794 9.062361489 -0.080588751 0.212235495 -0.064107369 5.308886102
9.731575552 0.214738192 -0.115578031 0.128325379 6.501181385 -0.074801712 -0.054942963 -0.059503849 5.036505774
10.083535383 -0.233803421 0.108871040 -0.139718568 6.522137801 -0.139070738 0.051754624 -0.110629076 5.134870018
9.761010903 0.191789808 -0.096867674 0.114611656 6.387738188 -0.108125366 -0.046048518 -0.086012410 5.057676059
10.248497949 -0.240746445 -0.042519432 -0.143867649 6.475579159 -0.178047106 -0.020212696 -0.141634301 4.899172327
9.860776862 0.142118755 -0.041330873 0.084928736 6.262663230 -0.083958716 -0.019647684 -0.066788135 5.106151948
10.074080030 -0.152498202 0.045557620 -0.091131389 6.426679423 -0.256437593 0.021656976 -0.203992977 5.036150254
9.540491664 -0.433863132 0.044829839 -0.259272235 7.884275318 0.286769327 0.021311007 0.228121501 5.211662097
9.642124450 -0.464444521 0.019082743 -0.277547365 7.535196748 0.131316605 0.009071468 0.104460758 5.337582350
9.812559687 -0.526303614 -0.024450687 -0.314513735 7.259622348 0.018583127 -0.011623257 0.014782651 5.400587954
9.903641730 -0.099271806 -0.092838573 -0.059323831 6.288287415 -0.175492691 -0.044133182 -0.139602295 5.260104902
10.118923739 0.068088059 0.005315534 0.040688738 6.139722647 -0.024504580 0.002526875 -0.019493095 5.106993463
9.791648157 0.152060959 -0.085359881 0.090870097 6.487201964 -0.052126565 -0.040577996 -0.041466047 5.058337261
10.020124289 -0.541775881 0.056640202 -0.323759806 7.098189178 -0.118385838 0.026925364 -0.094174491 5.260545565
10.080265182 -0.530568103 0.089274601 -0.317062151 7.080493711 -0.135825388 0.042438957 -0.108047439 5.194230226
10.015900949 -0.542329567 0.054108711 -0.324090684 7.099300937 -0.116613529 0.025721955 -0.092764640 5.265029436
9.398671135 -0.319711613 0.453654350 -0.191056437 9.050864314 -0.065440795 0.215656161 -0.052057354 5.313619869
10.053661955 -0.073770901 -0.135739352 -0.044084747 6.402171820 -0.009109002 -0.064527162 -0.007246100 5.188412386
9.855902378 -0.539115348 -0.017612804 -0.322169899 7.204948660 -0.009162273 -0.008372695 -0.007288477 5.379841747
10.183397809 0.054916241 0.000057275 0.032817392 6.122747939 -0.013835320 0.000027227 -0.011005828 5.075731928
9.866369911 0.139583870 -0.039260928 0.083413914 6.258911704 -0.082754901 -0.018663683 -0.065830514 5.107769226
10.162108941 0.059357846 0.001734246 0.035471651 6.127775250 -0.016929112 0.000824418 -0.013466902 5.087125093
10.109019637 -0.518921736 0.098870583 -0.310102399 7.072049113 -0.137531489 0.047000652 -0.109404622 5.153364774
9.452438973 -0.293420197 0.345204567 -0.175344953 8.852766101 0.229634595 0.164101792 0.182671520 5.289038309
9.770067117 0.173606635 -0.090597570 0.103745575 6.493327308 -0.057209751 -0.043067864 -0.045509659 5.044425109
10.119838802 -0.174518034 0.035066028 -0.104290218 6.465223791 -0.241529575 0.016669530 -0.192133831 4.986758383
10.200229169 -0.322748773 0.090844688 -0.192871414 6.764608986 -0.131616803 0.043185338 -0.104699561 5.043556997
9.589908595 -0.424109616 -0.002063713 -0.253443632 8.113188447 0.354552224 -0.000981039 0.282041970 5.294541717
9.883612038 0.131804366 -0.032745508 0.078764961 6.247870560 -0.079010403 -0.015566412 -0.062851812 5.111953250
10.206306603 -0.334627351 0.085227419 -0.199969933 6.789090460 -0.126965265 0.040515026 -0.100999320 5.033753926
10.364712960 0.015392016 -0.013093086 0.009198114 6.182839988 -0.001743135 -0.006224132 -0.001386643 4.952635549
9.470412276 -0.331903170 0.203513326 -0.198341989 8.679217676 0.322499812 0.096745248 0.256544667 5.270398657
9.964974991 -0.163689629 0.030250229 -0.097819273 6.375074930 -0.117123456 0.014380217 -0.093170280 5.210561856
9.449084152 -0.287958664 0.392057691 -0.172081195 8.884752157 0.189050400 0.186374619 0.150387288 5.295380831
9.811733925 0.164259356 -0.060430297 0.098159736 6.304485038 -0.094728583 -0.028727082 -0.075355432 5.084572454
10.209758730 -0.343097071 0.080853926 -0.205031352 6.807827370 -0.123484216 0.038435975 -0.098230188 5.025583549
9.982816920 -0.015081171 -0.108398759 -0.009012356 6.425085900 -0.020707489 -0.051530114 -0.016472555 5.172955650
9.491648507 -0.350793163 0.144848139 -0.209630459 8.573948460 0.350758446 0.068857256 0.279024066 5.263774652
9.579848319 -0.424716533 0.006896833 -0.253806319 8.076009874 0.343873817 0.003278586 0.273547427 5.275315666
9.826601506 -0.530959621 -0.023315245 -0.317296118 7.240985587 0.010098806 -0.011083496 0.008033477 5.394711039
9.904447788 -0.101220141 -0.089817775 -0.060488136 6.290311911 -0.172197575 -0.042697169 -0.136981071 5.259515291
10.075997732 -0.531786742 0.087434072 -0.317790398 7.081802810 -0.135136609 0.041564015 -0.107499524 5.199506041
9.919321457 -0.126853813 -0.045682123 -0.075806560 6.313034927 -0.140500499 -0.021716162 -0.111766433 5.247002076
9.541518556 -0.433246317 0.043489542 -0.258903633 7.893760137 0.289574464 0.020673863 0.230352954 5.213562221
9.901360514 0.123989622 -0.025859833 0.074094949 6.236969163 -0.075067981 -0.012293131 -0.059715663 5.115287083
9.761629841 -0.507535633 -0.021250116 -0.303298179 7.334123158 0.048028851 -0.010101784 0.038206366 5.406319543
9.598158243 -0.417885344 -0.014618320 -0.249724070 8.229913526 0.375440007 -0.006949191 0.298657946 5.336540581
10.360960380 0.016640605 -0.013574547 0.009944258 6.179599123 -0.001822794 -0.006453007 -0.001450011 4.954675134
9.957181347 -0.547904577 0.022114965 -0.327422253 7.119434237 -0.084350371 0.010512912 -0.067099691 5.321956899
10.394898372 0.003604796 -0.004364802 0.002154190 6.208967968 -0.000989027 -0.002074920 -0.000786759 4.944989078
10.049430111 -0.213485124 0.095884058 -0.127576558 6.474740502 -0.130926234 0.045580932 -0.104150222 5.152540124
10.266308761 0.038593650 -0.007190194 0.023063177 6.121554517 -0.005463872 -0.003418042 -0.004346444 5.024412496
10.123928816 -0.509885041 0.101822699 -0.304702161 7.067485091 -0.136072963 0.048404016 -0.108244382 5.127767636
9.724413576 0.215879629 -0.119490533 0.129007491 6.460022948 -0.113607169 -0.056802871 -0.090373118 5.049457423
10.159856642 -0.477883964 0.102222151 -0.285578641 7.043088337 -0.125931205 0.048593906 -0.100176737 5.057421911
9.926645728 -0.548090381 0.008203837 -0.327533288 7.138107604 -0.062454953 0.003899903 -0.049682153 5.343226115
10.269146599 -0.251211464 -0.063884031 -0.150121439 6.456925763 -0.152437170 -0.030368903 -0.121261910 4.890121718
9.909183218 -0.082838236 -0.105701174 -0.049503295 6.271599356 -0.233146768 -0.050247748 -0.185465410 5.241198477
9.373890962 -0.292034196 0.368851723 -0.174516692 9.070959191 -0.163080037 0.175343070 -0.129728180 5.216679617
9.966001181 -0.095569894 -0.024328309 -0.057111606 6.318733416 -0.272341510 -0.011565082 -0.216644349 5.180195424
10.215930550 -0.369227758 0.068164049 -0.220646787 6.868967588 -0.115379072 0.032403519 -0.091782645 4.996098522
9.666838713 -0.472171281 0.007293516 -0.282164798 7.492158708 0.111403344 0.003467159 0.088620001 5.357149266
10.191621422 -0.186529130 -0.171393128 -0.111467928 6.365946397 -0.018428730 -0.081476093 -0.014659830 5.163108295
9.933462040 -0.083449255 -0.074933866 -0.049868434 6.295940664 -0.256201910 -0.035621723 -0.203805494 5.217695270
10.071654190 -0.088440213 -0.142760001 -0.052850980 6.396868782 -0.007395857 -0.067864606 -0.005883314 5.189327391
9.581048059 -0.408896225 -0.001318339 -0.244352263 8.294038272 0.379983681 -0.000626706 0.302272384 5.324752079
9.912623127 -0.117024203 -0.063560031 -0.069932484 6.304346409 -0.150859279 -0.030214881 -0.120006717 5.252479966
9.858222456 0.092696336 -0.083946335 0.055394396 6.467753319 -0.039805246 -0.039906030 -0.031664587 5.112320956
9.376914239 -0.289424047 0.364077514 -0.172956894 9.067099172 -0.166544741 0.173073528 -0.132484310 5.214391855
9.906335896 -0.105397331 -0.083168358 -0.062984383 6.294341903 -0.165755626 -0.039536199 -0.131856579 5.257959775
9.553702833 -0.428581125 0.030557868 -0.256115761 7.970893371 0.311851206 0.014526462 0.248073831 5.234253355
9.453963540 -0.297677845 0.321215248 -0.177889280 8.833375501 0.246905365 0.152697857 0.196410206 5.285541608
9.778292331 0.165195800 -0.088123742 0.098719345 6.491020000 -0.055158796 -0.041891867 -0.043878150 5.049177755
9.471712144 -0.333505530 0.198526184 -0.199299543 8.670756832 0.325402450 0.094374483 0.258853680 5.269368681
9.546000024 -0.442942449 0.056204174 -0.264697943 7.743839113 0.234906830 0.026718087 0.186865518 5.224435618
10.082106965 -0.156496891 0.044828197 -0.093520965 6.433515505 -0.254615218 0.021310226 -0.202543301 5.026829577
9.422102690 -0.305744297 0.459632178 -0.182709710 8.953105631 0.058431138 0.218497873 0.046481257 5.311695284
9.598359530 -0.423179985 -0.010222557 -0.252888094 8.154150593 0.364109798 -0.004859553 0.289644904 5.315993519
10.219162946 -0.224583348 -0.017855056 -0.134208745 6.493796613 -0.197073506 -0.008487856 -0.156769571 4.922430052
10.028024287 -0.129765824 0.036304252 -0.077546749 6.384099420 -0.265327724 0.017258152 -0.211064968 5.088850813
10.173514753 -0.200146625 0.010689988 -0.119605606 6.496527388 -0.216436073 0.005081758 -0.172172256 4.949622645
9.591643992 -0.423994314 -0.003648633 -0.253374729 8.120240166 0.356389613 -0.001734471 0.283503590 5.298349288
9.733244095 0.210510789 -0.116146274 0.125799126 6.442439229 -0.114242893 -0.055213092 -0.090878828 5.054067599
9.924243764 0.035505613 -0.092266885 0.021217796 6.445786991 -0.030229365 -0.043861416 -0.024047091 5.151396623
9.697253935 -0.483001506 -0.005115487 -0.288636832 7.439779943 0.088883201 -0.002431777 0.070705502 5.378896548
10.216120963 -0.371801846 0.067361427 -0.222185036 6.874539805 -0.115030174 0.032021972 -0.091505101 4.993560480
10.058783906 -0.535771933 0.079046584 -0.320171907 7.087119235 -0.131399495 0.037576809 -0.104526696 5.219370873
10.203738882 0.050685955 -0.001483423 0.030289416 6.119016924 -0.011238345 -0.000705183 -0.008939966 5.064227770
9.388936710 -0.281598455 0.348259578 -0.168280398 9.055894342 -0.177770204 0.165554069 -0.141414029 5.212323816
9.722568659 0.220981525 -0.124325567 0.132056332 6.496735736 -0.088851937 -0.059101328 -0.070680632 5.038641486
10.073884934 0.076648496 0.008225037 0.045804369 6.153683563 -0.034046758 0.003909981 -0.027083780 5.120779611
10.251310282 -0.242223658 -0.045234238 -0.144750417 6.473297801 -0.175294965 -0.021503248 -0.139445006 4.897128265
9.718911621 0.219902523 -0.123235007 0.131411531 6.480122821 -0.106294552 -0.058582902 -0.084556020 5.041995188
10.186394836 -0.182474975 -0.170876046 -0.109045206 6.366852038 -0.017661771 -0.081230285 -0.014049723 5.164555740
9.889482124 0.129188140 -0.030482308 0.077201530 6.244230542 -0.077718059 -0.014490542 -0.061823768 5.113146312
9.451387080 -0.290875602 0.363343202 -0.173824328 8.865632290 0.215301120 0.172724454 0.171269415 5.291902896
9.375276113 -0.314898722 0.410862441 -0.188180302 9.088629021 -0.125464507 0.195313936 -0.099805485 5.274564753
9.565570702 -0.400774497 0.017863369 -0.239498800 8.336698335 0.379217993 0.008491808 0.301663288 5.311447121
9.831192702 -0.532389559 -0.022710855 -0.318150635 7.235078959 0.007229556 -0.010796184 0.005751023 5.392521379
9.414268729 -0.314150408 0.462920706 -0.187733117 8.991312622 0.007828990 0.220061159 0.006227866 5.320856565
10.164609815 -0.195674889 0.015339100 -0.116933342 6.493480653 -0.220472398 0.007291832 -0.175383104 4.954546067
10.140908230 0.063707892 0.003489775 0.038071194 6.133439923 -0.020429544 0.001658954 -0.016251453 5.097547102
10.169079198 -0.197906022 0.013035935 -0.118266644 6.495141271 -0.218428025 0.006196964 -0.173756830 4.952047626
9.594749942 -0.423730087 -0.006562481 -0.253216830 8.134043665 0.359761753 -0.003119643 0.286186087 5.305757969
9.429637018 -0.296480274 0.451799511 -0.177173624 8.930649937 0.098240609 0.214774416 0.078149206 5.301179136
9.793101907 -0.519358057 -0.024418178 -0.310363140 7.286843089 0.029889828 -0.011607804 0.023776994 5.405904636
9.799625690 0.169935677 -0.066667779 0.101551848 6.319435700 -0.097605885 -0.031692228 -0.077644291 5.077088033
10.179224495 -0.455763347 0.095655036 -0.272359583 7.010953887 -0.120521282 0.045472060 -0.095873210 5.024415410
9.441066108 -0.288360758 0.428166933 -0.172321483 8.909156875 0.145568959 0.203540067 0.115798331 5.295997758
10.214308497 -0.393524505 0.066183660 -0.235166278 6.914192369 -0.114885471 0.031462090 -0.091389991 4.982012251
9.457552125 -0.307507272 0.280698832 -0.183763246 8.791650367 0.273819641 0.133437346 0.217820184 5.281533971
9.460067860 -0.313675467 0.259905413 -0.187449298 8.765377272 0.287198749 0.123552664 0.228463102 5.279649322
9.901394407 -0.092582092 -0.102682228 -0.055326125 6.280366485 -0.188935835 -0.048812615 -0.150296152 5.260914161
9.914152702 -0.119468367 -0.059232530 -0.071393092 6.306408749 -0.148129834 -0.028157693 -0.117835476 5.251190428
9.956465921 0.007501176 -0.100049743 0.004482627 6.434341092 -0.025228031 -0.047561196 -0.020068591 5.164190774
10.167420815 -0.469545814 0.100503406 -0.280595846 7.032376861 -0.123473866 0.047776856 -0.098221954 5.043590302
10.149067279 -0.488986391 0.103336149 -0.292213339 7.054283247 -0.129655541 0.049123473 -0.103139401 5.078650830
9.729887558 0.212592526 -0.117499607 0.127043151 6.448779993 -0.114370355 -0.055856434 -0.090980223 5.052780275
10.215370733 -0.387879335 0.065538354 -0.231792781 6.905056237 -0.114572900 0.031155327 -0.091141345 4.983185867
9.720217092 0.218544570 -0.121533215 0.130600033 6.471917975 -0.110496761 -0.057773912 -0.087898825 5.044914383
9.913755584 -0.082549267 -0.100715599 -0.049330610 6.275943936 -0.239527790 -0.047877727 -0.190541435 5.235252399
9.464942345 -0.323657698 0.228835390 -0.193414578 8.720295561 0.306988608 0.108782737 0.244205693 5.275360495
9.418251534 -0.310490331 0.461758985 -0.185545893 8.971152302 0.033295723 0.219508905 0.026486341 5.317458257
9.779576566 0.180305075 -0.080435940 0.107748496 6.351029440 -0.102808281 -0.038237275 -0.081782733 5.064675527
9.903623343 -0.084025927 -0.110346820 -0.050213047 6.268823978 -0.220506018 -0.052456174 -0.175409848 5.250760886
9.608187734 -0.455806254 0.035554265 -0.272385224 7.595801579 0.161188911 0.016901626 0.128223812 5.307182799
10.059738273 -0.078721689 -0.138141666 -0.047043288 6.400363516 -0.008432213 -0.065669163 -0.006707722 5.188902002
9.565379207 -0.447190180 0.052570207 -0.267236345 7.684209718 0.206056518 0.024990588 0.163915447 5.256219449
9.931793153 -0.548209111 0.010444993 -0.327604240 7.134507504 -0.066309319 0.004965293 -0.052748254 5.340040243
9.369692407 -0.309050483 0.397391879 -0.184685454 9.089183571 -0.138988107 0.188910361 -0.110563344 5.253229191
10.294081612 -0.265262584 -0.096506721 -0.158518247 6.418847919 -0.104708951 -0.045876930 -0.083294694 4.922369456
9.795922252 0.171736639 -0.068846791 0.102628084 6.324578580 -0.098519945 -0.032728077 -0.078371414 5.074710968
10.216008209 -0.382378838 0.065533480 -0.228505740 6.895436014 -0.114452873 0.031153010 -0.091045864 4.985570489
9.594715983 -0.415790185 -0.012821183 -0.248472024 8.247741451 0.377221344 -0.006094876 0.300074978 5.335587029
9.578995073 -0.407879629 0.000884648 -0.243744755 8.299877607 0.380082075 0.000420540 0.302350655 5.322923000
10.160115439 -0.193458081 0.017595680 -0.115608599 6.491555575 -0.222562431 0.008364555 -0.177045699 4.957136786
10.382950962 0.008616854 -0.008956150 0.005149345 6.198742031 -0.001375534 -0.004257534 -0.001094221 4.945776535
10.298003488 -0.268127953 -0.108044567 -0.160230562 6.402112547 -0.090093884 -0.051361739 -0.071668586 4.948439465
9.539957397 -0.440765458 0.055408204 -0.263396995 7.777526633 0.249656224 0.026339702 0.198598481 5.212368604
10.215311974 -0.364123778 0.070117595 -0.217596700 6.857439404 -0.116345480 0.033332186 -0.092551410 5.001623607
10.154220154 -0.274567000 0.109785473 -0.164078472 6.654464741 -0.144091423 0.052189324 -0.114622970 5.086919664
10.162431382 -0.475090679 0.101739191 -0.283909401 7.039719934 -0.125061896 0.048364318 -0.099485213 5.052588808
9.473090971 -0.335091723 0.193563679 -0.200247436 8.662232056 0.328219781 0.092015430 0.261094832 5.268364056
10.344365447 0.021680038 -0.014550558 0.012955772 6.165716890 -0.002219633 -0.006916979 -0.001765691 4.965397354
10.019657111 -0.195371059 0.078433545 -0.116751776 6.440390095 -0.123376403 0.037285385 -0.098144424 5.169745372
10.287972701 -0.258332956 -0.139174039 -0.154377171 6.374404527 -0.055396421 -0.066159927 -0.044067177 5.041782629
9.570865031 -0.425505601 0.014847586 -0.254277859 8.043474566 0.333826693 0.007058178 0.265555063 5.260582198
9.816003043 0.162308856 -0.058486342 0.096994136 6.299808142 -0.093746802 -0.027802974 -0.074574438 5.087041684
9.390379213 -0.319987456 0.439920470 -0.191221279 9.069881454 -0.091033223 0.209127411 -0.072415819 5.304330777
9.450227555 -0.288968278 0.380282113 -0.172684531 8.876966698 0.200449808 0.180776797 0.159455377 5.294229678
9.412578551 -0.315274737 0.463059133 -0.188405005 8.999400391 -0.002047051 0.220126964 -0.001628404 5.321321550
10.127422802 -0.507417847 0.102306291 -0.303227791 7.066248732 -0.135471694 0.048633903 -0.107766080 5.121313691
9.966719540 -0.547411956 0.026808778 -0.327127868 7.114952096 -0.090574927 0.012744236 -0.072051250 5.314021079
9.584958261 -0.410813362 -0.005190240 -0.245497925 8.282471582 0.379603501 -0.002467313 0.301969955 5.328216648
10.070102634 -0.150511422 0.045694595 -0.089944109 6.423276697 -0.257249788 0.021722091 -0.204639069 5.040772796
9.464021631 -0.321977593 0.233973239 -0.192410564 8.728192571 0.303744514 0.111225144 0.241625056 5.276227746
9.435762444 -0.291185898 0.441050718 -0.174009758 8.919007577 0.124076075 0.209664703 0.098701004 5.296981832
10.058672692 0.079478644 0.008624620 0.047495636 6.158839989 -0.037538558 0.004099933 -0.029861465 5.123628841
10.194328045 -0.313428510 0.094898209 -0.187301719 6.746071748 -0.134895199 0.045112283 -0.107307485 5.050594677
10.387512759 0.006726090 -0.007369453 0.004019444 6.202679265 -0.001262350 -0.003503257 -0.001004184 4.945073680
9.917498984 -0.124392420 -0.050280446 -0.074335656 6.310731267 -0.142948168 -0.023902092 -0.113713524 5.248452847
10.214888305 -0.361578662 0.071245628 -0.216075764 6.851501311 -0.116963930 0.033868426 -0.093043380 5.004549458
9.583037481 -0.409873200 -0.003342341 -0.244936093 8.288241209 0.379823021 -0.001588867 0.302144581 5.326522775
9.599044455 -0.418522996 -0.014943100 -0.250105124 8.223870055 0.374764890 -0.007103584 0.298120899 5.336339396
9.844612881 0.149426360 -0.047254087 0.089295687 6.274273599 -0.087435254 -0.022463435 -0.069553678 5.100610961
9.432609317 -0.293626317 0.447090468 -0.175468127 8.924735455 0.111145148 0.212535852 0.088414610 5.298650849
9.377571523 -0.316304111 0.415483280 -0.189020149 9.087022741 -0.120587743 0.197510569 -0.095926079 5.280737950
10.294869771 -0.265124744 -0.125761626 -0.158435875 6.381885689 -0.070194979 -0.059783995 -0.055839250 4.999416197
10.238814999 -0.221472789 -0.171116073 -0.132349907 6.362627693 -0.025463954 -0.081344388 -0.020256265 5.144592373
9.880818861 -0.544005894 -0.009911167 -0.325092439 7.177821262 -0.027283431 -0.004711526 -0.021703637 5.367281248
10.134262954 -0.261979971 0.112892291 -0.156556590 6.614129959 -0.144748758 0.053666229 -0.115145871 5.102851840
10.106922557 -0.168510694 0.039366020 -0.100700292 6.454588873 -0.246853912 0.018713641 -0.196369276 4.999352126
9.877797461 0.134416444 -0.034966209 0.080325912 6.251525108 -0.080280700 -0.016622079 -0.063862317 5.110664661
9.501353534 -0.357597213 0.125447328 -0.213696491 8.537220435 0.357015281 0.059634585 0.284001302 5.266583938
9.647040543 -0.465885502 0.016673193 -0.278408481 7.526604791 0.127241504 0.007926027 0.101219064 5.341599207
9.561884197 -0.446507511 0.053552326 -0.266828389 7.693041270 0.210470380 0.025457463 0.167426620 5.251050869
10.184532083 -0.300955343 0.100018543 -0.179847880 6.720505170 -0.138690916 0.047546364 -0.110326932 5.060309597
10.176923254 -0.458531279 0.096835321 -0.274013671 7.015533586 -0.120995647 0.046033139 -0.096250561 5.027931148
9.451119403 -0.290341027 0.367700117 -0.173504872 8.868584855 0.211634522 0.174795625 0.168352681 5.292554519
9.382607157 -0.318448335 0.425264187 -0.190301516 9.081822033 -0.109750096 0.202160173 -0.087304863 5.291781103
9.454702362 -0.299776808 0.311292906 -0.179143599 8.824283677 0.253679643 0.147981019 0.201799062 5.284353511
10.007337865 -0.543416538 0.049029615 -0.324740246 7.101552817 -0.112803309 0.023307477 -0.089733657 5.274108068
9.901293261 -0.086167622 -0.110184969 -0.051492902 6.271138090 -0.208648177 -0.052379234 -0.165977080 5.256773216
10.368229591 0.014180567 -0.012539341 0.008474164 6.185896805 -0.001671463 -0.005960895 -0.001329628 4.950891007
9.937889247 -0.084223363 -0.068396364 -0.050331033 6.299635564 -0.259035607 -0.032513955 -0.206059666 5.214139029
9.383911059 -0.318842106 0.427762381 -0.190536829 9.080148930 -0.106829290 0.203347753 -0.084981398 5.294217094
10.297304412 -0.267475606 -0.118661840 -0.159840726 6.388531911 -0.078142929 -0.056408931 -0.062161747 4.977697821
9.796334612 0.147592733 -0.084684930 0.088199930 6.485853640 -0.051123534 -0.040257141 -0.040668148 5.061873202
9.523158017 -0.372691145 0.086422796 -0.222716472 8.463266536 0.366678900 0.041083279 0.291688592 5.279510102
9.971421643 -0.547094771 0.029195105 -0.326938321 7.112975301 -0.093508174 0.013878637 -0.074384612 5.309868666
9.496363168 -0.354129298 0.135162172 -0.211624099 8.555665909 0.354048692 0.064252784 0.281641416 5.264803402
9.537700841 -0.436282657 0.049516476 -0.260718119 7.847256624 0.275290253 0.023538919 0.218990038 5.206510138
10.143376355 -0.494359134 0.103428709 -0.295424036 7.058481388 -0.131491754 0.049167474 -0.104600087 5.090124222
9.528797954 -0.376629902 0.076794157 -0.225070234 8.445267084 0.368744335 0.036506061 0.293331621 5.283549306
10.116648718 -0.125582929 -0.157882193 -0.075047092 6.384001714 -0.007807299 -0.075053326 -0.006210611 5.184010723
10.297985599 -0.268096674 -0.115155797 -0.160211870 6.392612362 -0.082035038 -0.054742244 -0.065257872 4.967534585
9.895400336 0.126579331 -0.028184007 0.075642532 6.240598368 -0.076403828 -0.013397986 -0.060778313 5.114253869
9.943873643 -0.150239256 0.002146952 -0.089781465 6.345866918 -0.121896673 0.001020609 -0.096967316 5.227844794
10.283689100 0.035391376 -0.009306644 0.021149529 6.127449540 -0.004443728 -0.004424150 -0.003534931 5.011870348
9.553210172 -0.393271931 0.036472605 -0.235015343 8.371362429 0.376565559 0.017338183 0.299553309 5.301759861
10.094599206 -0.107276552 -0.151059746 -0.064107386 6.390261728 -0.006701898 -0.071810101 -0.005331278 5.187969909
10.029576054 -0.201355357 0.084837496 -0.120327932 6.451498140 -0.125781422 0.040329667 -0.100057587 5.163642963
9.632326997 -0.461721085 0.023911345 -0.275919867 7.552402873 0.139614433 0.011366867 0.111061578 5.329344988
10.208494920 -0.411023726 0.071656513 -0.245623636 6.939810784 -0.116357306 0.034063750 -0.092560818 4.985468455
10.265653942 -0.240481203 -0.162223278 -0.143709143 6.366273404 -0.033608413 -0.077116971 -0.026735083 5.114117097
10.294650519 0.033296084 -0.010690271 0.019897404 6.132413791 -0.003910268 -0.005081893 -0.003110571 5.003629058
9.763457317 0.190166058 -0.094649098 0.113641319 6.382669386 -0.107419590 -0.044993862 -0.085450974 5.058194256
9.557673519 -0.427616725 0.026801690 -0.255539445 7.989815518 0.317431570 0.012740867 0.252512942 5.240423077
9.792375221 0.173501381 -0.071077909 0.103682677 6.329785919 -0.099413542 -0.033788696 -0.079082260 5.072431064
10.213167498 -0.353868149 0.075089170 -0.211468039 6.833129257 -0.119333963 0.035695551 -0.094928712 5.013631280
9.972079579 0.098371938 -0.001276531 0.058786079 6.196146910 -0.058427060 -0.000606831 -0.046478014 5.124595480
9.893228826 0.062500885 -0.087296721 0.037349899 6.456495640 -0.034649397 -0.041498722 -0.027563173 5.135651212
9.718184118 -0.490898014 -0.011815709 -0.293355705 7.404454355 0.074698744 -0.005616898 0.059421940 5.391334892
9.603473456 -0.454767142 0.037724236 -0.271764261 7.604570359 0.165624783 0.017933177 0.131752495 5.302435338
10.181739278 -0.297898106 0.101235368 -0.178020906 6.713875240 -0.139512132 0.048124813 -0.110980200 5.062886106
9.397554055 -0.319850841 0.452043018 -0.191139639 9.053893756 -0.069364040 0.214890173 -0.055178248 5.312554297
9.956310512 -0.090509900 -0.039416940 -0.054087804 6.312127433 -0.268933715 -0.018737847 -0.213933490 5.194580747
10.242744965 -0.224265007 -0.170437956 -0.134018508 6.362862856 -0.026245083 -0.081022027 -0.020877643 5.141816632
10.295595786 -0.265839567 -0.123961981 -0.158863046 6.383359274 -0.072220343 -0.058928488 -0.057450402 4.993803292
10.239578834 -0.235937433 -0.034327627 -0.140993832 6.482284078 -0.185433523 -0.016318513 -0.147510106 4.906287040
10.275865723 -0.254607576 -0.071552131 -0.152150922 6.449488700 -0.141480078 -0.034014130 -0.112545676 4.891976072
9.930598706 0.029965676 -0.093578403 0.017907186 6.443539347 -0.029288128 -0.044484880 -0.023298349 5.154152080
9.538188637 -0.435688166 0.048447679 -0.260362857 7.856362921 0.278212634 0.023030839 0.221314757 5.207382265
10.270764585 -0.244201341 -0.158862505 -0.145932260 6.367551769 -0.036510914 -0.075519342 -0.029043987 5.103443869
9.503939581 -0.359383034 0.120576701 -0.214763679 8.527953364 0.358394100 0.057319209 0.285098135 5.267740134
9.410796060 -0.316243689 0.462949107 -0.188984042 9.007468472 -0.011827348 0.220074660 -0.009408511 5.321289318
9.425204792 -0.301679956 0.457086370 -0.180280901 8.941931580 0.076474762 0.217287659 0.060834740 5.306776402
10.188172540 -0.444446505 0.089942530 -0.265596752 6.991702943 -0.119086027 0.042756474 -0.094731482 5.011515949
10.128638413 -0.178572912 0.031716551 -0.106713372 6.472070294 -0.237546882 0.015077271 -0.188965648 4.979070502
9.947175724 -0.548197973 0.017385350 -0.327597584 7.124837374 -0.077463532 0.008264569 -0.061621295 5.329581972
10.051098967 0.080895524 0.008653205 0.048342350 6.161521511 -0.039312529 0.004113522 -0.031272637 5.124712119
10.389542005 0.005867117 -0.006589529 0.003506130 6.204416939 -0.001201799 -0.003132501 -0.000956017 4.944918845
9.601214834 -0.421198383 -0.014616676 -0.251703909 8.192885051 0.370741785 -0.006948410 0.294920568 5.331093273
9.548079337 -0.443500301 0.056111797 -0.265031310 7.735436875 0.231016183 0.026674173 0.183770555 5.228279629
9.372186406 -0.312292292 0.404118413 -0.186622726 9.089716231 -0.132357402 0.192107990 -0.105288699 5.264375707
9.506578667 -0.361202900 0.115697833 -0.215851213 8.518668560 0.359712332 0.054999915 0.286146772 5.269059083
9.929143927 -0.082933286 -0.081063650 -0.049560096 6.291975282 -0.253247522 -0.038535673 -0.201455315 5.221058272
9.922950381 -0.082540393 -0.089403459 -0.049325307 6.285729477 -0.248532033 -0.042500213 -0.197704201 5.226094790
9.627449192 -0.460437825 0.026309946 -0.275153003 7.561029703 0.143837523 0.012507104 0.114420995 5.325107192
9.368059238 -0.302773573 0.386617521 -0.180934436 9.084675939 -0.148931420 0.183788495 -0.118473128 5.235536757
10.377669774 0.010709639 -0.010498899 0.006399972 6.194144137 -0.001485819 -0.004990919 -0.001181951 4.947153459
9.481271282 -0.342871285 0.169061589 -0.204896424 8.618761948 0.340821146 0.080367736 0.271119065 5.264389114
10.229473735 0.045505543 -0.003517090 0.027193654 6.116888135 -0.008450137 -0.001671938 -0.006721981 5.048786287
10.187189010 -0.304046760 0.098773914 -0.181695279 6.727028252 -0.137815643 0.046954698 -0.109630663 5.057802834
9.931287317 -0.083161852 -0.078052564 -0.049696685 6.293987685 -0.254740887 -0.037104276 -0.202643268 5.219389873
10.165129941 -0.165604981 -0.168116546 -0.098963868 6.371270409 -0.014394009 -0.079918486 -0.011450259 5.170504384
9.978999251 -0.103191589 -0.006073602 -0.061666254 6.329929922 -0.274157422 -0.002887242 -0.218088886 5.158420085
9.740901749 0.205533300 -0.112294567 0.122824628 6.428111626 -0.113171024 -0.053382085 -0.090026169 5.055708896
10.130145297 -0.259614047 0.113211357 -0.155142738 6.606005342 -0.144657532 0.053817905 -0.115073303 5.105901096
9.776674939 0.181965438 -0.082842132 0.108740712 6.356379592 -0.103616739 -0.039381119 -0.082425852 5.063150972
10.391464648 0.005049453 -0.005813957 0.003017502 6.206055895 -0.001135700 -0.002763812 -0.000903435 4.944864977
10.256823941 -0.234202862 -0.166461491 -0.139957270 6.364528017 -0.029971926 -0.079131714 -0.023842301 5.127851124
9.721215122 0.221255987 -0.125027645 0.132220348 6.494505381 -0.092448162 -0.059435078 -0.073541385 5.039008265
9.601161480 -0.421622513 -0.014175710 -0.251957364 8.186544212 0.369792513 -0.006738785 0.294165434 5.329196805
9.726927783 0.214380480 -0.118582502 0.128111614 6.454624167 -0.114170039 -0.056371216 -0.090820874 5.051217271
9.384490357 -0.284228805 0.353824572 -0.169852269 9.059548572 -0.173834968 0.168199531 -0.138283597 5.212321223
9.489405447 -0.349168766 0.149685283 -0.208659735 8.583017116 0.348976155 0.071156715 0.277606275 5.263545632
10.064172693 -0.222433705 0.102486352 -0.132924141 6.493760652 -0.134696449 0.048719500 -0.107149382 5.144898415
9.826270116 0.120375743 -0.082875527 0.071935331 6.477223548 -0.045236341 -0.039396995 -0.035984957 5.086450392
10.297695530 -0.267835492 -0.116909569 -0.160055790 6.390510463 -0.080088095 -0.055575944 -0.063709102 4.972561910
9.368200022 -0.301418239 0.384441298 -0.180124502 9.083277081 -0.150812756 0.182753972 -0.119969708 5.232347680