5.2224049851 2.6127992259 2.2583098581 2.6709474421 4.4463555075 4.9412078488 2.0418343810 1.5843029597 2.3645917354 7.1112481068 1.3714915304 -0.2567755110 7.8223382213 4.4877083688 2.7678240019 1.1120746350 4.5998468917 2.0921543051 3.8981813611 1.2020810065 4.7505062140 8.6888605221 1.3081758945 2.6808964238 5.9096681304 4.7569833005 0.2865914613 1.3085449406 4.5752176805 3.6129816076 3.6191951724 1.5472439760 1.0110969624 8.4133506700 1.4736368432 1.1868565832 6.2799322356 4.3382759710 4.0603658750 4.4242219310 4.3227185799 0.5381499676 0.2685776701 1.2137264056 3.0959948673 5.2979274185 1.7473075117 4.3465235156 9.5009868095 4.4475211623 1.8315154714 1.8369254559 5.7896946018 1.3702935417 3.5749215909 -0.2031084773 4.2417327390 8.0528497125 2.5188195748 3.4606104928 6.8285726251 3.8842719390 1.2060857076 7.9961746735 0.1008053609 3.4001564642 6.1577259805 6.2951012214 0.5277910176 1.7999520865 3.3440782744 1.3784131661 2.9833991794 2.2919514518 3.9460368321
5.2390828459 3.0387756775 2.6073074840 2.7712318171 4.7379122347 4.9782249977 2.3072370257 1.4771021796 2.7247788974 7.4373633409 1.4144663374 -0.1070881942 7.9005952748 4.5737625236 2.6039155397 1.0424606227 4.3793918491 2.1880239901 3.9936972224 1.6520285310 4.9665462119 9.0961001886 1.4978531502 2.7353263503 6.1102603771 4.7519763462 0.2752105697 1.2486614923 4.6767019716 3.6904394619 3.8882773008 1.4543023499 1.3921575719 8.8549676660 1.5663912545 1.2110758726 6.2221463606 4.5819529970 3.8484426758 4.5863640863 4.7535327416 0.6210422708 0.4547692429 1.3727895836 3.1822061105 5.4840430884 1.6217848020 4.5262219409 9.6399188664 4.2823388415 1.8747948387 1.7264511447 5.5922377113 1.4124385310 3.1513829234 0.4737260424 4.2247008528 8.3596604700 2.6690641272 3.5366083269 6.7981978969 3.5923301677 1.0922275459 8.2573880188 0.2252301751 3.3375547229 6.8394954133 6.0042623298 0.8031259646 1.8123108234 3.1466148281 1.5745232774 3.3517872531 2.8894357030 4.2665477826
4.2861770552 4.1102148519 2.6584004805 2.6319742132 7.0469839226 6.1935465101 1.9209526250 1.6802326538 2.6549696694 6.7185723146 0.9847521978 -0.3157277353 7.6036578913 5.1599509987 3.0190248616 1.1357890054 6.6573616988 3.3922566691 3.4928915036 2.0742674799 5.2559933819 8.2351534120 1.9302804669 2.4257661321 5.8316936283 5.9832326964 0.2924119042 1.3276832046 6.5142513195 4.9286798444 3.1080586063 2.3463977604 1.3036912984 7.8546456615 1.8725001483 0.9062081085 6.1929234831 5.8481106599 4.1761007119 4.2831975436 5.7087787878 0.5331571954 0.1839624414 2.2886494310 2.4503915242 4.9775407632 2.2981972768 4.9503480846 9.2015608750 6.1361671345 3.1470575952 1.7714770886 8.0300486716 2.8487076671 3.0331045821 0.5810859709 5.1247095835 7.7719872763 3.2411906004 3.1632972775 6.6530247359 5.1852577058 1.3223866012 7.5688205222 0.7946532603 3.2866549946 5.9967980825 7.5239642775 0.4596434463 2.0767674083 5.7247790885 2.5638929230 2.6587811574 2.7734290103 4.1035196609
5.3524269656 2.8264335100 2.5298083270 2.7920195879 4.6774641804 4.9355224566 2.2750043621 1.4767432984 2.6735116491 7.5557338460 1.3909584324 -0.0843615192 8.0100025350 4.6411203251 2.6118971679 1.1224023962 4.3805362230 2.1646885672 4.0442886779 1.5871010088 4.8522173742 9.1805778308 1.4909992493 2.7122693333 6.0640540794 4.6685289929 0.2254513280 1.2899643595 4.6642918147 3.6885647609 3.9181289725 1.6216676160 1.3539570088 8.9532612401 1.6296654893 1.2104818407 6.3335079759 4.4283264759 3.7568153268 4.6091122971 4.6920452713 0.6862140290 0.4092321938 1.3513448159 3.1355532220 5.5064448116 1.6205018249 4.4043696961 9.8417373798 4.2720780889 1.8821454774 1.7709961912 5.5692245095 1.3352839292 3.1481207617 0.5025406273 4.1696210223 8.4195048347 2.6218407282 3.4841758653 6.8755178250 3.6087882060 1.0841113667 8.4214323311 0.2955047041 3.3704712018 6.9211460961 5.8926328946 0.8084630608 1.9302039860 3.1858088349 1.5816361298 3.3551898785 2.8601280100 4.1553740119
3.4796749007 4.4812604934 2.3673226541 2.9582639104 7.3823243553 5.9283312512 1.7571372349 1.5896555395 2.7964540819 6.6608512805 1.0817989309 -0.0405783176 7.7296594354 5.5301412821 2.9196660751 1.2605024795 7.2850643905 3.2668067962 3.6579093603 1.6757083997 5.5769850208 8.2199693350 2.2829552707 2.5309002007 5.9156856665 6.7143081741 0.2559188112 1.4656909778 7.0396000532 4.7853134421 3.0888038808 2.3773438621 1.6286158264 7.5634733089 2.0959348739 1.1615661022 6.3903807258 6.3289854285 4.0884854832 4.3757561151 6.3779524613 0.5289150043 0.3327506933 2.4182431607 1.9655783285 5.1110995926 1.9920562677 5.1576653674 9.2597828646 6.5328293289 3.3576648543 1.3730146093 8.8005060293 2.9882816008 3.5875000052 0.1263904689 5.7136358546 7.9815067229 3.7213201367 3.0254633618 6.8356263022 5.9331471137 1.2375929461 7.6806411487 1.2381103565 3.5661886780 6.2563911825 8.2533444529 0.5086247967 2.3778976047 6.5793103022 2.3987420842 2.6277762972 2.2043276054 4.5108244523
5.0719224994 2.9862263797 2.6050355843 2.7401791845 4.8394489885 5.1889998670 2.2331851059 1.4380527397 2.2350197126 7.1523694080 1.3842704180 -0.1019559055 7.9078493873 4.3844504125 2.9073557702 1.0830248253 4.5742145223 2.2993799610 3.9344027761 1.3303466765 4.8128986682 8.8405142360 1.2742131232 2.7638993282 5.8886007034 4.9375619495 0.4151873299 1.3228485136 4.6075988279 3.7945244805 3.7376830701 1.5483508232 1.1747253967 8.4329387455 1.3753903445 1.2768808681 6.3504146111 4.5864911577 4.1403691139 4.4238422538 4.3789188505 0.5119390709 0.3551339196 1.4025139854 2.8001495609 5.4013937227 1.8488006265 4.5379236683 9.5896998803 4.5970039190 2.0583674740 1.8090405051 5.7896891568 1.4942644475 3.6033727426 -0.1301209434 4.3551508203 8.2455641711 2.5254122587 3.5637114042 6.7730422001 4.0905288878 1.3783688560 8.1494006729 0.0689907165 3.5605704385 6.0186858372 6.4530973118 0.7936673460 1.7613471747 3.3863335669 1.5523343369 2.9903408440 2.2694951065 3.9678951919
3.4187851004 4.5054516688 2.2611483446 2.9711317924 7.3172295319 5.8845602421 1.7684325881 1.6002682341 2.8156639682 6.6046797688 1.0896462092 -0.0938694494 7.7202507256 5.5291252693 2.8157109577 1.2084622703 7.3172126291 3.2182106157 3.6353969572 1.5836594224 5.5212051222 8.2235278201 2.2406088404 2.5567296601 5.9496865383 6.7967695791 0.1806584902 1.4192821714 6.9817585957 4.7172524213 3.0844939856 2.4099763930 1.5247419361 7.5853939178 2.1123340085 1.1491049259 6.4576222594 6.3302037155 4.0109459189 4.4649687003 6.3885556800 0.5024194069 0.3628077345 2.4693418549 1.9074646709 5.1011669017 1.9866005634 5.1565604388 9.1664444794 6.6135689137 3.1828756518 1.1819327526 8.8324926571 2.9135305815 3.5925912086 0.0784733308 5.8633773786 7.9680096660 3.6980309678 3.0398323959 6.9411531192 6.0037277400 1.0835057171 7.6481318375 1.1983174130 3.5228618466 6.1658544198 8.3195790129 0.4182988495 2.2522378051 6.5849350305 2.3100591432 2.6706329847 2.0889639017 4.4142089200
4.3298736127 3.7670110059 2.3990260962 2.7425482780 5.1277815178 4.9339057153 2.1230292010 1.5899286634 2.3312120529 7.1096269693 1.6112942614 -0.0491255125 7.7388856751 4.8583610218 2.4945074859 1.1908986585 4.9204177430 2.2398256206 3.7858609386 1.5430195052 4.5664953087 8.7131088176 1.6316141696 2.7279845047 6.0201881094 4.9096702680 0.1203066625 1.2963262950 4.9531492571 3.7756088831 3.5732126685 1.7079243565 1.0750095693 8.5879017390 1.4891525525 1.1875412844 6.1475100674 4.7820701394 3.5985727318 4.5071400487 4.7607076422 0.5064871636 0.4724857458 1.4571604345 3.2489212566 5.2724682483 1.7701151724 4.2421875414 9.4297782022 5.1014737057 1.6670931231 2.0365212649 6.1257345897 1.5692818591 3.1472530847 0.2288261380 4.0150032507 8.0355869147 2.8697263178 3.4581937519 6.7098430427 3.7439404104 0.8907793604 7.8720352980 0.4319811135 3.3931065203 6.6632694703 6.2014517129 0.7048685142 1.8688775604 3.6762647575 1.6216519807 3.0766682167 2.6955069362 3.8477955047
4.9948337559 3.1010911930 2.6294262209 2.6922487294 4.9216378701 5.1372449216 2.1820520081 1.3991759022 2.2276108180 7.2168933387 1.3352297595 -0.0933236442 7.9541872765 4.4126957896 2.9511190954 1.1118775459 4.6787747021 2.2837830186 4.0481410612 1.3202166136 4.7724381282 8.9311794950 1.2224312965 2.7665267026 5.9590739029 4.9913964927 0.3938729815 1.3596764778 4.6113795632 3.8237161041 3.7710477350 1.5210950248 1.1749861652 8.5071578325 1.4017413903 1.3081653182 6.3717097586 4.6676854938 4.0042395502 4.4930197008 4.4295299186 0.5253455066 0.3735982023 1.3551309367 2.7876948002 5.4760507450 1.7743271268 4.4420898183 9.6851301297 4.6167559747 2.1147977092 1.8018560400 5.9097369186 1.5238251252 3.5747361485 -0.0721820294 4.3543415737 8.2830743797 2.4729372075 3.5231221627 6.8320100777 4.0875863155 1.3518709097 8.2046373721 0.1140672904 3.5888523335 6.1244371065 6.4395744093 0.7578491175 1.8070960080 3.5069853408 1.5010885917 3.0604352216 2.1781551943 3.8898364293
4.6123560801 3.5435227017 2.5429256606 2.6561986225 5.0014162073 4.8692443705 2.1319937410 1.5463790016 2.4698015522 7.2322417332 1.6287370708 -0.1434408140 7.6763275573 4.6049097117 2.3925404332 1.1046465631 4.6146152698 2.1264517497 3.8321664417 1.5659052462 4.7750848018 8.6877365083 1.5147365902 2.6310262257 6.0673577626 4.9906013786 0.2300622544 1.1936353381 4.7610840091 3.6621301450 3.8189406849 1.6699480209 1.2396009117 8.6065178963 1.6494761391 1.1049750047 6.1828271294 4.8213821454 3.7373928934 4.5111047269 4.9049445187 0.5266562579 0.4122904641 1.3300530455 3.1537015466 5.3470008347 1.7559044036 4.3699238609 9.3895987604 4.9352745476 1.6503258850 1.9007107099 5.8280513246 1.4417908680 3.2121192415 0.3337057334 4.0421210411 7.9324510063 2.7867071716 3.1628397786 6.7282716939 3.7031679644 0.8745356553 7.9982239926 0.3894936822 3.4326929195 6.7858900721 6.1986736207 0.9056873547 1.8563991809 3.3593266158 1.5359841559 2.9959043603 2.7642035408 4.1097020637
5.2769126049 2.6747036476 2.4298115719 2.7316295072 4.6409179080 4.7714864122 2.0151178656 1.6963671334 2.0165418809 7.3943954645 1.2191781566 0.0248658229 7.9427978174 4.3618267211 2.4336505588 0.9611441228 4.7878227477 1.9928676840 3.9723156597 1.2383083149 4.4422600936 9.1172731879 1.4312261613 2.6817524452 6.0832245525 4.7190140468 0.2704525063 1.3178557668 4.5940848492 3.4824062768 3.6951282028 1.6012088616 1.0407220470 8.9378166493 1.4971094684 1.1546970219 6.3618771670 4.4640522544 3.6506345328 4.6277221108 4.4523347466 0.7002462003 0.3921757056 1.6685120766 2.9768657893 5.5342604843 1.4258200867 4.1893491537 9.6973121539 4.6907791167 1.7460830714 1.7206157241 6.0340472403 1.3901390426 3.5525411107 -0.1492827863 4.0046036348 8.2714951828 2.6003631267 3.3009436229 6.8927559043 3.5548869622 1.0160279452 8.4607148166 0.2076228600 3.4877981940 6.5976837405 6.0161714756 0.8856818603 1.5254896741 3.6314103911 1.0984653693 3.1790274843 2.2919199902 3.5188352485
4.8767025539 3.3372495650 2.6068890139 2.6523918076 4.8926451651 4.9279238695 2.2357512430 1.5125057418 2.5825467378 7.2622584746 1.5534029022 -0.1631998589 7.7019850451 4.5105153059 2.4784221329 1.0564744556 4.4893292149 2.1588873220 3.9211816051 1.5919508097 4.9298756705 8.8192693401 1.5112207035 2.6707479456 6.0726483811 4.9125493679 0.2254433886 1.2888833140 4.5889156680 3.6708724616 3.7809640554 1.5460930514 1.3776921698 8.7154441847 1.5662515135 1.1308501239 6.3572188573 4.7963954380 3.8084680658 4.5595706159 4.8480251676 0.6353258357 0.4348344895 1.3566330123 3.1479483256 5.3992009770 1.7345789876 4.4899964896 9.4316280016 4.6524812346 1.6999797139 1.7406852574 5.6883026613 1.3508291722 3.2072837306 0.3705220812 4.1595847707 8.0278151826 2.7224520261 3.4053281406 6.7394122836 3.6691674750 0.9498929513 8.0490146469 0.3133659887 3.4136534017 6.8054642144 6.0795196468 0.9142007297 1.7537305596 3.1918130666 1.6676930834 3.2097270513 2.7915978309 4.2785812780
5.2954118629 2.5501636206 2.2480439726 2.8107912903 4.5163705439 4.7842993874 2.0018702334 1.6307728156 2.1646754333 7.2938515232 1.2647322983 -0.0141144966 7.9417097122 4.4442767527 2.8033304478 1.0302416053 4.8359170141 1.9986760520 3.9347080364 1.1142461185 4.6654992168 8.9453289884 1.3784778618 2.7451869321 6.0407175590 4.8307450777 0.2798177448 1.3722060279 4.5930887657 3.4920592759 3.5390961668 1.5102781604 1.1374490901 8.7787414972 1.4424685514 1.2079149533 6.2417196297 4.4975578145 3.7539507853 4.5322783088 4.5344787362 0.4999893790 0.3628538103 1.5060460136 3.0775872489 5.4767830209 1.3524279966 4.4152574706 9.5646902456 4.7539887139 1.8950115672 1.6867293237 6.0355311054 1.2238463549 3.4484382508 -0.2383003502 4.1331455214 8.3120157638 2.5983757281 3.5192451788 6.9234042678 3.7856907231 1.0399885783 8.1020050627 0.1499186933 3.3210015643 6.5188914588 6.2101042579 0.7173673193 1.6604929882 3.6219083331 1.2331971082 3.1202446452 2.2189420832 3.8271018275
4.3853881219 3.9454943481 2.6208769051 2.6678345413 6.5230684359 5.9653265804 1.9598123894 1.6739017138 2.4631729093 6.7310794628 1.0603002259 -0.3499305561 7.4955702510 4.9262953456 3.0127338620 1.1124881690 6.3071609637 3.1377084434 3.6019713007 1.9625484575 5.0793397908 8.1688761349 1.7254183070 2.5184858448 5.6701762616 5.7036207941 0.3481979850 1.3527772951 6.1957256465 4.6726511515 3.1917280032 2.4744769174 1.2007591003 7.6699416758 1.7109154315 1.0808424757 5.9769349146 5.4480004076 4.1095619333 4.1766313987 5.2285902229 0.6076734904 0.1470110899 2.0605983903 2.6008353729 5.1318845889 2.1863469647 4.8835399675 9.1500788365 5.7547037524 2.8300525733 1.6681746183 7.6751884221 2.6178858008 3.3197185992 0.4780651586 5.1817403028 7.6504688062 2.9901605777 3.2777892636 6.5581670559 4.8873912554 1.3265417165 7.5295568890 0.5538628544 3.3196205572 5.8464014665 7.1881668183 0.5746452548 1.9248090800 5.2681427422 2.2985262132 2.8278613115 2.5931766255 3.8651451252
4.4265670275 3.7878349399 2.6881272010 2.5682623291 6.0475962149 5.9550393418 1.9499699305 1.6802554364 2.4241655037 6.7656241906 0.9531594803 -0.3695140279 7.4807662458 4.6520734482 2.9753659396 1.0956405800 5.9054801135 2.9845033969 3.7781250500 1.7214312070 5.1163379738 8.2425743295 1.5536264452 2.6140667814 5.7352020944 5.3477534143 0.2690360698 1.3337238292 5.6274245877 4.4828313747 3.1972494361 2.3087636934 1.0635178782 7.8540950337 1.6946602870 1.1332750588 6.0576231575 5.0715583597 4.1536387125 4.2617114259 5.0000068723 0.6514484753 0.1507651163 2.0615610061 2.7158890305 5.2382638979 2.2327707934 4.7573344741 9.2328557654 5.3119381540 2.6336140545 1.5727414428 7.2965029664 2.4133214429 3.6144792626 0.1955078614 5.2906448490 7.6701963115 2.7476878264 3.4682579163 6.5865522635 4.5564186186 1.2962016845 7.6277805684 0.3104616235 3.3290555526 5.9011372904 6.8529287786 0.4775662014 1.9138214422 4.8741906739 2.1211273997 2.9828768577 2.2513897574 3.8845080101
4.4248982199 3.6254767194 2.7444812346 2.4862099416 5.7410467876 5.8060248662 1.8952850266 1.6744080325 2.3346299789 6.9620349941 0.9093952640 -0.3371848491 7.5834918264 4.3904374078 2.9176132828 1.0537874483 5.5254816361 2.8523799010 3.7852074806 1.4761108124 5.1104782251 8.3861274312 1.4241489226 2.5821148006 5.8088820535 5.0977959624 0.2431914156 1.3590373581 5.3885095109 4.3660707681 3.2490438928 2.0693746641 1.0479283350 8.0218682836 1.4811416340 1.0944264369 6.0945586316 4.7330457275 4.1692757221 4.2907073922 4.7929418708 0.5210614313 0.1128696262 2.0991651861 2.6946887970 5.2882078646 1.9150928778 4.9193658906 9.3333226951 4.9446767895 2.6628430296 1.6158018341 6.8989645170 2.2693093818 3.8003550853 -0.0543640924 5.1402770295 7.7763580145 2.5921235125 3.4277548636 6.7038780235 4.2517646126 1.2042463408 7.7931373007 0.1974062798 3.3462073430 6.1987280500 6.5551316340 0.4911067360 1.9106164204 4.5211687563 2.0263331099 2.9468191402 2.0541270282 3.9138492925
5.1963607437 2.7542190906 2.4099839117 2.6838310700 4.5591372979 5.0933342649 2.1182660038 1.5456143945 2.3514403513 7.0490986574 1.4264333933 -0.2330383956 7.7921914722 4.4337899074 2.7457598473 1.0868057756 4.5372581095 2.2385811687 3.8734880268 1.3424375541 4.8043080566 8.7412833587 1.3188156018 2.6706181807 5.8639850706 4.8176496755 0.3021368830 1.3413528251 4.5892339463 3.7464952906 3.6090247047 1.5615767388 1.0634142359 8.3215965635 1.4300745953 1.1854335190 6.3718543385 4.3626735361 4.1617165053 4.4268175931 4.2670002767 0.6871674142 0.3477189321 1.3662378898 2.9419158847 5.3261271176 1.8285233540 4.3901190290 9.4697164385 4.3726865401 1.7927811899 1.8669000478 5.6940868758 1.4872622423 3.6607546736 -0.1101826815 4.2348985939 8.0733862366 2.4691228189 3.5307883749 6.6883916556 3.9551733906 1.3202918293 7.9910996834 0.0938682790 3.4123060275 5.9088476480 6.3447933808 0.6574922651 1.6538675118 3.2908639924 1.4968854192 2.8757595934 2.2895199299 3.9913024214
5.2534428642 3.0199140505 2.6017509167 2.7760933465 4.7314678226 4.9755909282 2.3060976281 1.4760025852 2.7252240546 7.4505082298 1.4096328124 -0.1047733771 7.9117384817 4.5812140359 2.6073671385 1.0465292071 4.3766579792 2.1901566870 3.9944609181 1.6466675867 4.9619109325 9.1092590768 1.4949745894 2.7320535345 6.1081948680 4.7424736201 0.2687010405 1.2465225014 4.6810624841 3.6906469311 3.8956765752 1.4696656546 1.3808389778 8.8624162447 1.5744403389 1.2094653668 6.2290390406 4.5633649523 3.8425858777 4.5767072311 4.7447604574 0.6276944727 0.4542208999 1.3715355797 3.1812471026 5.4933940605 1.6229098278 4.5170284740 9.6623177504 4.2742190638 1.8775660530 1.7313146702 5.5897470381 1.4053409135 3.1435188633 0.4774687790 4.2165482644 8.3704384612 2.6675192464 3.5329134734 6.8049996669 3.5989625558 1.0912855847 8.2705253805 0.2262827914 3.3391682052 6.8501885619 5.9932353421 0.8029586224 1.8264076434 3.1447728711 1.5660389731 3.3547171526 2.8917002574 4.2614837302
4.3359978202 3.7360453794 2.3712568682 2.7187159914 5.1219989263 5.0547015445 2.1404870323 1.6124552515 2.3112993142 7.0999497018 1.5055453024 0.0029654450 7.7794436068 4.8822435647 2.5670288171 1.1686837712 4.9065759213 2.2681330890 3.8162659438 1.5057918803 4.5933044822 8.7542950362 1.5893015736 2.8389857696 6.0873098905 4.8075831547 0.1374583522 1.2805085332 4.9589224741 3.8032956524 3.5876435127 1.7009199411 1.0245104982 8.5151358863 1.5359080075 1.3155622844 6.1494433188 4.6800012721 3.6542200813 4.5483742857 4.6360332156 0.3952391115 0.4901916160 1.4656479788 3.2511215822 5.3444178508 1.6701713135 4.3514850499 9.4793950208 5.1285268254 1.8410674884 1.8645381916 6.1141074462 1.5382008701 3.2465299717 0.2068857284 3.9689947865 8.1521290880 2.8361285597 3.5200624725 6.8117528385 3.6362521232 0.8965762732 7.9434033194 0.4244989648 3.4990005311 6.6337871684 6.1534657249 0.6534898126 1.9855101989 3.7003425162 1.6616275289 3.0776707039 2.6536565868 3.7822832334
4.3868799158 3.5510297839 2.7095547538 2.6136163786 5.4102885521 5.5751779046 1.8791240217 1.6318970100 2.2133349056 7.1674553860 0.9738993354 -0.2850531485 7.7319743305 4.4060371940 2.8215095495 1.1047208191 5.3289302666 2.5960297298 3.9153262370 1.2957815577 4.9016099075 8.6442656939 1.2986480980 2.6364535815 5.9340026441 4.9291035095 0.2675340664 1.4671533815 5.1859586189 4.0547535314 3.3785665677 1.7352853498 1.0720486144 8.3259428797 1.4200531659 1.1451464638 6.2579125712 4.5378896246 4.0395455536 4.4174632403 4.7066910498 0.5379878779 0.1657522183 1.9472246423 2.6994624187 5.4654385917 1.5851547788 4.9302349838 9.5901110236 4.7315068079 2.5253301208 1.6318974729 6.6237507256 1.8148672691 3.7140552882 -0.2523373972 4.6716837730 7.8957499217 2.4296745139 3.4341656718 6.6683318732 3.9519505502 1.2534740571 8.1634516494 0.0589816454 3.4519012133 6.4327166735 6.3902166819 0.5289890397 1.8057262210 4.2434934905 1.6922045077 3.0920604179 2.0213458489 3.8256732023
4.3960278057 3.5687892487 2.6677966291 2.7127952057 5.3398320682 5.5079837914 1.9361111588 1.6245663469 2.2129688766 7.1987287690 0.9786482201 -0.2493434613 7.7985982568 4.4643165163 2.7945627626 1.0535553824 5.2829292826 2.4926094056 3.9539716279 1.2449055427 4.8011557464 8.7198108983 1.3047253826 2.6792644339 5.9502337162 4.9455071985 0.3256780637 1.5257398807 5.1110748997 3.9670291306 3.4572072822 1.6768199186 1.0584496499 8.4448869811 1.4273628055 1.1505373977 6.3019221043 4.5312803215 4.0056894871 4.4244067845 4.7541737703 0.5813496122 0.1749917944 1.8971148214 2.7846483687 5.4467338373 1.5873760546 4.8222823992 9.5976309768 4.7602435842 2.4244817428 1.6124046881 6.5630735265 1.7463731236 3.6914273296 -0.2318090627 4.5638279981 7.9706653058 2.4129248606 3.5038917696 6.6818162486 3.9437151056 1.2655807752 8.2693899116 -0.0243463344 3.4046909616 6.4483028182 6.4014783576 0.5092792453 1.8097966630 4.1956089816 1.6245265001 3.1717142723 2.0869182855 3.7337419422
4.3870690823 3.5503522167 2.7117441419 2.6070646656 5.4161459433 5.5792841308 1.8762040292 1.6322212675 2.2135175417 7.1652901090 0.9731995643 -0.2871867975 7.7275592473 4.4017376433 2.8237791412 1.1074874265 5.3316860306 2.6017364474 3.9128653247 1.2954112120 4.9105318792 8.6393037723 1.2995552898 2.6334143034 5.9353468538 4.9305153131 0.2635286397 1.4628241218 5.1900195268 4.0631386154 3.3716637187 1.7422856375 1.0733584595 8.3173334434 1.4193653243 1.1443649934 6.2536850370 4.5376248547 4.0409797748 4.4144551354 4.7031613582 0.5362200851 0.1646708808 1.9513993345 2.6947161470 5.4641834718 1.5874702065 4.9340991261 9.5882505928 4.7297569814 2.5323178958 1.6332505577 6.6299921521 1.8219222166 3.7166494885 -0.2507018769 4.6800242452 7.8921362734 2.4322697601 3.4287064056 6.6672271913 3.9556222874 1.2520847245 8.1539700514 0.0626797240 3.4542968350 6.4294796185 6.3863366050 0.5313749097 1.8056593789 4.2455898135 1.6984186399 3.0864571640 2.0199287348 3.8305840129
3.4319447610 4.4970886823 2.2873679917 2.9701920991 7.3347296897 5.8958497113 1.7639669628 1.5971522361 2.8105338548 6.6223374694 1.0904036448 -0.0793546135 7.7261442356 5.5248729812 2.8439100252 1.2302010356 7.3055504402 3.2328603594 3.6441122650 1.6036853979 5.5452584430 8.2236857190 2.2484453217 2.5525421902 5.9399481856 6.7735821808 0.1981203590 1.4193593154 6.9999026571 4.7280125122 3.0897317829 2.4004150850 1.5384430629 7.5821491224 2.1097374467 1.1560887890 6.4462179565 6.3324691635 4.0272581608 4.4328010261 6.3844273104 0.5107648395 0.3526021660 2.4611485218 1.9195499068 5.0893755880 1.9889938222 5.1648769726 9.1897334919 6.6068140852 3.2274597210 1.2184212841 8.8247497687 2.9297955381 3.5982818252 0.0779025586 5.8350222460 7.9787852848 3.7018974351 3.0327312471 6.9169298600 5.9952608732 1.1138662707 7.6570626487 1.2039056293 3.5377577415 6.1930878452 8.3087916022 0.4484992163 2.2810086434 6.5869199969 2.3303031983 2.6558750902 2.1221268398 4.4337797404
4.6233713182 3.5322694777 2.4021594208 2.6049771740 5.0466883852 5.2700495046 2.0928772835 1.6279235895 2.3085933579 7.2855790634 1.2195214199 0.0647064819 7.8366420558 4.7132161063 2.6072050834 1.0544111117 4.9005278019 2.3628458943 3.9164048659 1.3534021585 4.6693404520 8.8859569465 1.5248620607 2.9153112572 6.1344147040 4.5666259645 0.0943634701 1.3447391599 4.7913753489 3.8664658621 3.6322860223 1.5325634605 1.0043315958 8.4876992921 1.4714201762 1.4378626609 6.3171174935 4.5135373138 3.7086722126 4.5709022376 4.3906384446 0.2871358234 0.3699214190 1.4123949927 3.0610226403 5.4585134659 1.5990110032 4.4213788467 9.5951241906 4.6593609147 1.9570688515 1.6950831564 6.1113471659 1.5795093676 3.4207833724 -0.0014728008 4.1485157139 8.3222625626 2.7605833199 3.6624304924 6.9199290006 3.4815624274 0.8616026104 8.3142253336 0.3224054599 3.7322104543 6.7175338151 5.8649680788 0.7976990305 1.8267699032 3.6965657268 1.6166713656 3.1547504510 2.4899135726 3.8666830512
4.4154708415 3.5956772774 2.7457342637 2.4890690756 5.6760667724 5.7460976676 1.8783340911 1.6623778298 2.2886191958 7.0247551115 0.9210863099 -0.3281910841 7.6114760495 4.3495509405 2.9020111581 1.0669901009 5.4711537772 2.7992999350 3.7897103367 1.4124809397 5.1006898328 8.4153812951 1.3887534324 2.5887668427 5.8206412466 5.0326205262 0.2326526204 1.3601311679 5.3445571818 4.2880274937 3.2520117055 2.0205936767 1.0484298491 8.0695122746 1.4350087889 1.1081004317 6.1067908269 4.6479630627 4.1283311994 4.3437727065 4.7440623457 0.5006721307 0.1050160120 2.0887040318 2.6742522469 5.2980111429 1.8369444453 4.9312730250 9.3924080042 4.8502821531 2.6760287719 1.6304447341 6.8253810462 2.1957829977 3.7936838071 -0.1634230524 5.0351523095 7.8095303605 2.5861472166 3.3753588940 6.7046907585 4.1661834526 1.2198711934 7.8688483717 0.1754701114 3.3588091862 6.2772143325 6.5142875148 0.5405796591 1.8856344441 4.4286425465 1.9718424691 2.9941598406 2.0373817059 3.9545152262
5.3093797271 2.9255280765 2.5695825685 2.7906187611 4.7025146781 4.9576647716 2.2952451452 1.4726303237 2.7108706354 7.5073613463 1.3939563117 -0.0949106771 7.9610882670 4.6124283405 2.6158029310 1.0783030618 4.3700023920 2.1851607224 4.0102287153 1.6085909314 4.9236481484 9.1513537045 1.4829270785 2.7182901220 6.0832715394 4.6992455023 0.2371308618 1.2527826805 4.6836671276 3.6928531577 3.9174797118 1.5497181613 1.3412585210 8.9038517778 1.6078358391 1.2108509320 6.2775718305 4.4826422721 3.8049284454 4.5645060065 4.7090076155 0.6610190785 0.4389720904 1.3618199294 3.1664992034 5.5142837565 1.6278509753 4.4639522546 9.7601910303 4.2551010460 1.8827967473 1.7525455588 5.5750586307 1.3666240943 3.1292337302 0.5007317492 4.1861968191 8.4068910210 2.6442821365 3.5077615553 6.8405292627 3.6198701884 1.0868297336 8.3458526857 0.2607812910 3.3488185694 6.8962679433 5.9378013692 0.8090675593 1.8857942947 3.1528016935 1.5521344670 3.3575292304 2.8908626683 4.2192696457
4.8875674977 3.3294736128 2.6084268873 2.6540799232 4.8882769764 4.9301737674 2.2398658737 1.5111697962 2.5870035236 7.2647360553 1.5496701056 -0.1628328524 7.7056729051 4.5091584449 2.4817460048 1.0521381447 4.4872004533 2.1602857957 3.9227366172 1.5927438220 4.9380533907 8.8252970788 1.5105974501 2.6735514988 6.0764198424 4.9064465144 0.2263495908 1.2908890908 4.5864184855 3.6709107203 3.7800262900 1.5377596145 1.3778561944 8.7209030703 1.5614958483 1.1335021649 6.3559003754 4.7950464135 3.8093935029 4.5580681472 4.8473918029 0.6368671398 0.4362069888 1.3578959396 3.1482634896 5.4047082497 1.7301413607 4.4916660394 9.4346876121 4.6394118755 1.7047666234 1.7377276660 5.6862836355 1.3514809636 3.2098154154 0.3761304552 4.1666303333 8.0348677798 2.7202153698 3.4153161908 6.7401963869 3.6654633043 0.9559053245 8.0544875304 0.3117548218 3.4091314012 6.8050857666 6.0805441176 0.9125187939 1.7515738608 3.1855212060 1.6695931494 3.2142299171 2.7957519331 4.2782838009
5.2920158059 2.9590181053 2.5815407582 2.7871700526 4.7122787635 4.9644328561 2.3000194716 1.4732667327 2.7185883156 7.4888047661 1.3980240156 -0.0982397174 7.9444657115 4.6023255934 2.6141845773 1.0649984196 4.3710220787 2.1894854271 4.0022228884 1.6222457855 4.9411486728 9.1397864915 1.4860027976 2.7221607053 6.0938582195 4.7132367332 0.2468727741 1.2473275099 4.6858868937 3.6919664922 3.9125335534 1.5218747050 1.3490774847 8.8884484608 1.5974104052 1.2091307979 6.2587690163 4.5086079175 3.8196703338 4.5612606178 4.7198647090 0.6497878428 0.4466906219 1.3657074387 3.1734060717 5.5117958761 1.6267867386 4.4833071570 9.7285242831 4.2581080650 1.8820518837 1.7456512159 5.5804389595 1.3800558867 3.1298100257 0.4927911127 4.1946670636 8.3968749539 2.6545091017 3.5171644048 6.8278789553 3.6155718277 1.0879745497 8.3181134473 0.2450672605 3.3446777113 6.8821121967 5.9572959545 0.8065494625 1.8670593992 3.1466806784 1.5516337981 3.3578646775 2.8943149465 4.2366358541
4.4115874376 3.5868479403 2.6363642307 2.7566601028 5.3200546432 5.4581437714 1.9699253060 1.6214980739 2.2115776865 7.2138559442 0.9833989819 -0.2314936086 7.8281755005 4.4952092216 2.7823896509 1.0374514028 5.2556057944 2.4476945736 3.9616668473 1.2170174387 4.7578000804 8.7621251967 1.3122863657 2.6860948138 5.9810395975 4.9709781140 0.3325199651 1.5318151793 5.0714644028 3.9091484161 3.4664976566 1.6811295174 1.0612844935 8.4960688778 1.4340540777 1.1604465337 6.3073613766 4.5275228265 3.9867246704 4.4277417113 4.7754580496 0.6140010776 0.1938666137 1.8836993730 2.8238054834 5.4635498682 1.6091115852 4.7255815593 9.6122700452 4.7756543217 2.3726143775 1.6072929093 6.5640506265 1.7271232380 3.6829714227 -0.2368614131 4.4997152618 8.0203367535 2.4150930775 3.5195420102 6.6888876688 3.9722410880 1.2700523498 8.2883896826 -0.0560878070 3.3696063454 6.4410002439 6.3985909374 0.5205837256 1.8040786214 4.1597834744 1.5998319685 3.2086162691 2.1287207692 3.6902336755
3.7495651024 4.5387013325 2.5809836369 2.9272544892 7.5067361322 6.1316304451 1.8555894346 1.7506019492 2.8885827142 6.5819417931 1.0331975922 -0.0953797091 7.6292091734 5.7209780082 3.0083722614 1.3722015891 7.1086086492 3.4038979848 3.6432387363 1.9343286483 5.3906235032 8.1817055711 2.3779938577 2.5091762659 5.8599409229 6.5578159444 0.4088576868 1.5851146165 6.8042130511 4.9045975326 3.3017485359 2.2902402561 1.5567931505 7.5621024673 2.0967242935 1.1109150196 6.3755150285 6.1907833808 4.2997008285 4.3586790204 6.3902400287 0.6223125710 0.2712214237 2.4277541537 2.0650932818 5.1130685766 2.2348614868 4.9522119874 9.3775813907 6.3696839032 3.3676667382 1.5651171864 8.6113866505 3.0088658011 3.3470056657 0.4098444365 5.3403892110 7.8670271302 3.7896054372 3.0597302914 6.5522274014 5.6903443934 1.4815867713 7.5886347048 1.3125608851 3.4726138275 6.3012366511 8.0264485785 0.5312818214 2.3880629657 6.3266801545 2.4987354139 2.7102823838 2.6423319888 4.3664087024