-28926.9076436492
-28926.8725627511
-28927.5266857159
-28926.636994738
-28927.2963399729
-28927.0122026578
-28927.3125413504
-28926.7532437512
-28927.1188641529
-28926.8639948431
-28926.8859500648
-28926.9497375976
-28926.8964454902
-28927.6522524463
-28927.6133152889
-28927.4874126341
-28926.7289216845
-28926.8651000329
-28926.8472388978
-28927.1768363438
-28927.0977884027
-28927.1861907965
-28927.3196194359
-28926.6505782457
-28927.1998966193
-28926.7534728709
-28926.9644233018
-28926.7912855184
-28927.0257260284
-28927.5793106005
-28926.8510718914
-28926.9470552368
-28927.170472965
-28927.5864205233
-28926.9952653488
-28927.1363768464
-28926.7614471629
-28927.462096264
-28926.8487625985
-28927.4270631218
-28926.8973766632
-28927.145231018
-28926.7255194469
-28927.6080044458
-28927.6327085601
-28927.4349823108
-28926.7277352688
-28927.1110147611
-28926.813381559
-28927.6566054491
-28926.9959310749
-28927.5213318788
-28927.5134786775
-28926.7480625703
-28927.1111871452
-28927.1469024764
-28927.1403929725
-28926.6556542547
-28927.0489229049
-28926.929946224
-28927.0246646489
-28927.1184408801
-28926.879232666
-28926.8597377603
-28926.7791767309
-28926.9011764589
-28927.1493581664
-28927.5792840694
-28926.9134374941
-28926.9581176111
-28926.6302739378
-28927.6651118594
-28926.7812091482
-28926.7231040297
-28926.7771411844
-28926.7328584895
-28927.7067853922
-28927.5962891347
-28926.8560051767
-28927.4702500149
-28927.6153890674
-28926.8968177417
-28927.1998174342
-28927.5345634074
-28926.9687991622
-28926.8775647451
-28926.9681156126
-28927.5785560292
-28926.9057042948
-28926.6590296891
-28927.5277423334
-28927.1447825746
-28927.1429520657
-28926.7196028788
-28926.8028960658
-28926.7983074124
-28926.8604330108
-28926.88195149
-28926.9391333267
-28926.9110271109
-28926.9989418769
-28927.4890519831
-28927.1134401105
-28927.7249182327
-28927.4058450562
-28927.2931633176
-28926.9810527142
-28926.8339249188
-28926.9745094682
-28927.5618762758
-28927.3446849172
-28927.4960344206
-28926.9157628417
-28926.976959852
-28927.3589378246
-28927.0974353352
-28927.5158162702
-28927.5100772562
-28926.7499043719
-28926.7920485252
-28926.6769047019
-28927.0013032796
-28927.0605979431
-28926.9115258953
-28927.115154835
-28926.9520829456
-28926.8821036016
-28927.471834533
-28927.2369458518
-28926.887640163
-28926.8143792639
-28927.571428419
-28926.6406828311
-28927.6313677199
-28927.1131519421
-28926.9764036516
-28926.8349023512
-28926.9177402919
-28927.1268764047
-28927.5364369103
-28927.6795304841
-28926.9870484674
-28926.9626089837
-28926.8788717072
-28927.6132329745
-28927.1582893462
-28927.1617347138
-28927.0157394556
-28927.481855256
-28926.7864386292
-28927.0594111192
-28926.9496582764
-28927.6783009383
-28926.8905618478
-28927.269468473
-28927.4290186669
-28927.297625438
-28927.0577627905
-28927.1341178945
-28927.6317877274
-28926.894422733
-28927.4800206655
-28927.3322807503
-28926.8492876419
-28927.2099097231
-28927.0301937271
-28926.8086137188
-28927.1619835618
-28927.6490585117
-28927.5094149315
-28926.9066571009
-28927.3471803359
-28927.1364556233
-28926.908559856
-28926.7801540273
-28927.0943388173
-28927.131541658
-28926.9120952932
-28926.9879924299
-28927.6026164585
-28927.6131102512
-28927.6331219008
-28927.2298483102
-28926.9826440351
-28927.4677932364
-28927.174759436
-28927.5717571324
-28927.2035400856
-28926.7861119567
-28926.7836943626
-28926.9766110023
-28927.1866384235
-28926.8950499551
-28926.8408913016
-28927.642578124
-28927.1494459231
-28927.6066729935
-28927.6439645433
-28927.0722516205
-28927.6621285409
-28926.6978143267
-28926.8923235118
-28926.9990334432
-28926.8162028338
-28926.7399286836
-28927.7195381367
-28926.6453503973
-28927.1009284587
-28927.6042914544
-28926.9870906451
-28926.8036544466
-28926.8065332735
-28926.8606355995
-28927.7101733438
-28926.9166989128
-28927.1646715009
-28926.9294251263
-28926.6800072062
-28927.5416810855
-28927.5708040541
-28927.2275722152
-28927.3233967822
-28926.9717752697
-28926.76945302
-28926.9033609877
-28926.9128286396
-28926.8591287699
-28926.6578889884
-28927.645457359
-28926.8356288947
-28927.6016705913
-28927.2933754302
-28927.2580127583
-28926.9369934246
-28926.9714464203
-28927.1030301289
-28926.8452079772
-28927.0600843285
-28927.5035035335
-28927.6191325356
-28927.060982984
-28927.6022882894
-28926.9391882937
-28926.9146013243
-28927.5967076456
-28926.8292147667
-28926.886649397
-28927.564964222
-28926.6617346353
-28927.2295179642
-28926.9485243786
-28926.8685282573
-28926.8186046454
-28926.8988034914
-28927.1316347209
-28926.8782485668
-28927.0888985842
-28926.7681743577
-28926.8215343575
-28927.5051072356
-28926.919686313
-28926.7821046743
-28927.6055156939
-28927.1310143017
-28926.7858168494
-28926.8937074821
-28926.8095730556
-28927.5490255703
-28926.8661585552
-28927.5500280371
-28926.8959480663
-28927.2069928003
-28927.5253930397
-28926.8733200435
-28927.113086907
-28927.1398339149
-28926.9083359064
-28927.5460323196
-28927.6048174502
-28927.6093561706
-28927.61661113
-28927.437244528
-28926.9153095002
-28927.1460106237
-28927.3347010656
-28926.8262426048
-28927.7249726555
-28926.9910017353
-28927.639323236
-28926.9060353211
-28926.7144659164
-28926.8077224104
-28926.7066721718
-28927.2799826742
-28926.924774295
-28927.034228493
-28927.0078850297
-28927.0326575806
-28927.6039759386
-28926.7774327542
-28926.9458342626
-28926.8925938568
-28926.7857786174
-28927.644227133
-28927.3366156576
-28926.6652906171
-28926.9646551427
-28927.5484587574
-28926.7693532903
-28927.5299615566
-28926.9560753977
-28927.3237754284
-28927.1913703447
-28927.6101501984
-28926.8812761038
-28927.1362210613
-28926.7521834601
-28927.1577117849
-28926.8882895623
-28926.6785184722
-28926.9558607
-28927.4670560804
-28927.1052205081
-28926.8253262619
-28927.0813622592
-28927.0360543759
-28927.2604470875
-28926.8752200774
-28926.8093163164
-28926.9111837123
-28926.8587761105
-28926.9812966641
-28926.8299809028
-28927.4959385005
-28927.241428925
-28927.5995777649
-28926.7507718703
-28927.5783773865
-28926.906058995
-28926.754140774
-28927.6130457603
-28927.1617958033
-28927.1172634441
-28926.8669298614
-28927.2840201612
-28927.5367380041
-28927.1370974034
-28927.1393758114
-28926.9609686823
-28927.2373024568
-28926.86868309
-28926.9978379117
-28926.9446572348
-28927.6237485363
-28926.6311193951
-28927.3304559558
-28926.9832984686
-28927.6878888645
-28926.9659166618
-28926.7750750251
-28927.1550906497
-28927.1255697147
-28927.1199267569
-28926.8742212841
-28927.6761991321
-28926.8816771994
-28926.8109287261
-28927.6909338168
-28927.1367846087
-28927.6959424776
-28926.9058700121
-28927.0438249908
-28926.6338685598
-28926.6397882573
-28927.627263565
-28926.9126139419
-28926.9845818928
-28927.1381363335
-28926.7789282911
-28926.6994021101
-28926.9409292771
-28927.5528769315
-28926.9223863612
-28927.6210853595
-28927.0999823194
-28927.0075008052
-28927.3467488996
-28926.6376057693
-28927.5436480594
-28926.7423790675
-28926.8546523634
-28926.9222979243
-28926.6675933793
-28926.9483468245
-28927.151357794
-28927.6027189093
-28926.8990358765
-28927.2261387202
-28927.2858339351
-28926.7351330879
-28927.4963576917
-28927.5194450424
-28926.8980325933
-28927.6111492638
-28927.4289817955
-28927.5306407524
-28926.9872310557
-28927.4966861329
-28926.7654262815
-28927.5346138845
-28926.8249044857
-28926.7740446666
-28926.9344944684
-28926.9583827859
-28927.7262600254
-28927.1504632202
-28927.5914046938
-28926.8923231037
-28926.9150107194
-28926.9758107159
-28927.4646655615
-28926.8508231795
-28926.6477943865
-28926.8822172091
-28927.2852144682
-28926.937518604
-28927.0275591223
-28926.7948345614
-28927.4252074425
-28926.8838505715
-28926.7403478748
-28927.7262205689
-28926.8971539382
-28926.8061106809
-28926.8830504212
-28927.4970349827
-28927.1211821535
-28927.3718221361
-28927.3732063785
-28926.6620483824
-28926.6923697398
-28926.7536587246
-28926.7628090919
-28926.8724026122
-28926.8118730967
-28927.5786157581
-28926.9603538414
-28926.6924316456
-28926.9372522047
-28927.2038006345
-28926.8840055403
-28927.6524717699
-28926.8723469649
-28926.8091165849
-28926.8728803078
-28927.5704373809
-28926.8156636405
-28926.9460681443
-28926.7920523348
-28926.8142343633
-28927.5857635047
-28927.1684058533
-28927.6081258085
-28926.7951431383
-28927.3880775282
-28926.8095172723
-28926.9597697494
-28926.7784610719
-28927.6444996549
-28927.3421146672
-28927.7156613329
-28926.8794605612
-28926.9445256678
-28926.8488928049
-28927.6796817793
-28926.8366627907
-28926.8208352974
-28926.7576164823
-28927.6837191302
-28926.8805256142
-28927.7022488486
-28926.7006191387
-28927.3320588415
-28926.8904398048
-28927.5080808941
-28926.901126254
-28927.6470103119
-28926.6859552035
-28927.1616464129
-28926.9947932315
-28926.9492890181
-28926.8774315454
-28926.9042531125
-28927.1403352843
-28926.8922678646
-28926.8157554789
-28926.8759694785
-28927.5626297586
-28926.8718379762
-28926.9443400863
-28926.9118141998
-28926.8328468043
-28927.603457562
-28926.9342403142
-28926.8168605326
-28926.7412595917
-28926.8884331023
-28927.5483386192
-28926.9572669836
-28927.6018710031
-28927.6675195214
-28927.5885362073
-28926.7778707212
-28926.8520729977
-28926.9647030347
-28927.1171780004
-28927.6311494847
-28927.6491910311
-28926.7331610799
-28926.8157870441
-28927.0401513198
-28926.7327127726
-28926.8432260371
-28927.2863766658
-28927.5625365597
-28927.5125881854
-28926.8699892358
-28926.9492386771
-28926.885797409
-28926.8326118341
-28926.9479913079
-28926.9953331051
-28926.8855617585
-28926.8264065533
-28927.165514101
-28927.1378903428
-28926.8595868733
-28927.147597999
-28927.1212466444
-28927.0851854567
-28927.3596579735
-28926.7432445251
-28926.8478457114
-28927.0322193415
-28926.8992771053
-28927.0744678505
-28926.8105413722
-28927.1389220619
-28926.7672867228
-28926.9637432897
-28926.9007671999
-28926.8832032131
-28926.8954268325
-28927.2008365
-28926.8362099935
-28926.9187340511
-28927.4134387971
-28926.8547961755
-28926.6681109395
-28927.5850591384
-28926.775550952
-28926.9018050416
-28927.2227560748
-28926.9250141632
-28926.8280512085
-28927.135985955
-28927.5321278538
-28927.1215346768
-28926.8659424969
-28926.7986661944
-28927.1715025072
-28926.9603530251
-28926.7445769299
-28926.7632236571
-28926.7322211992
-28927.2974040735
-28926.8619523577
-28927.5662250609
-28926.9251660027
-28927.1978403921
-28927.5069880855
-28926.8705399939
-28926.8120571816
-28926.9914259605
-28926.8803423457
-28926.8714261322
-28926.7787711455
-28926.7154387228
-28926.8051765146
-28926.8632529251
-28926.7566802751
-28927.6118236977
-28926.9545963237
-28927.1954727308
-28927.0995115627
-28926.7431065635
-28927.5428319904
-28927.27854156
-28926.8172790435
-28927.4301607281
-28926.7067676838
-28926.7652058694
-28926.8746483665
-28927.6873412357
-28926.7624054113
-28927.2115576437
-28926.7802680429
-28927.2004060161
-28927.1301251702
-28927.5065626357
-28927.2177849657
-28926.8869744368
-28926.8644255991
-28926.8832936909
-28927.2195391467
-28926.8233058177
-28926.8079439109
-28927.6113502198
-28927.12239442
-28926.8910862109
-28926.8013876035
-28927.1365251483
-28926.867788108
-28927.5129506408
-28927.4594139032
-28927.6092461006
-28926.8355547438
-28926.8347716005
-28926.8759462128
-28926.7429930921
-28926.8767312608
-28926.9299086723
-28926.7961510474
-28926.7886178518
-28926.899498878
-28926.7343547066
-28926.754181455
-28926.7221914964
-28927.280140228
-28927.595902053
-28926.8968348849
-28927.6973993743
-28927.1814932977
-28926.7289956994
-28927.2333026576
-28926.9244480307
-28927.2657309913
-28927.6420405634
-28927.0334488873
-28926.9069024115
-28927.5046283155
-28926.8778719615
-28926.6817890067
-28927.1236596126
-28927.1528578207
-28926.8259167486
-28927.0687146866
-28926.7623478592
-28927.6232795483
-28926.7808060117
-28926.8510913475
-28927.7027660007
-28926.9505162509
-28926.81106247
-28927.3501828384
-28927.2232812542
-28927.2514140011
-28926.9774835349
-28927.6210156984
-28926.8950502272
-28926.9027854672
-28927.1257659087
-28927.2899565937
-28927.6157723395
-28926.859229588
-28927.6000770935
-28927.1571676935
-28926.789489568
-28926.7696641802
-28926.8550814868
-28927.1982608078
-28927.4341131796
-28926.7524034641
-28926.8963271207
-28927.0713062975
-28927.7109658749
-28926.8588127098
-28927.2894137268
-28927.2021191079
-28926.8955569029
-28926.7604577575
-28926.814752876
-28926.7805634223
-28926.833970906
-28927.281549777
-28927.51183824
-28927.1315309096
-28926.8071252569
-28927.6275777203
-28927.6491349757
-28926.9444882522
-28926.8885812682
-28926.8061656479
-28927.2172118942
-28927.5484727713
-28927.3199337272
-28926.8192447929
-28926.8533700276
-28927.1383227314
-28927.1293703268
-28926.7553783471
-28926.9958012767
-28926.957502498
-28927.1445708701
-28927.2197630962
-28926.9129368048
-28926.835088613
-28927.4937939725
-28927.4958092465
-28926.995928762
-28926.842342756
-28926.8411344352
-28927.6065811551
-28927.4130279054
-28926.9682069067
-28926.7644651759
-28927.1645599343
-28926.969619585
-28927.6045416629
-28926.6317086573
-28926.7070539474
-28926.9301319416
-28926.7479126356
-28927.5915664654
-28926.9694342756
-28927.2097694485
-28926.6323568321
-28927.1399450733
-28927.12257143
-28926.9221473093
-28926.7744890282
-28926.9578488988
-28926.836723336
-28926.9136149122
-28927.5178708647
-28927.5809398813
-28927.2517387688
-28927.6125834391
-28927.125318962
-28926.7731966242
-28926.9524625442
-28927.3080668488
-28927.5128498227
-28927.3055325179
-28927.0702269585
-28926.8467078679
-28927.1539487245
-28927.4328990083
-28926.8876898237
-28927.0825251371
-28926.935460336
-28927.7226900297
-28927.3010471317
-28927.5186439397
-28926.7702982052
-28927.1346164068
-28927.5536772179
-28926.8602485177
-28927.4964270807
-28926.8179130684
-28927.3496923535
-28927.5450016889
-28926.8844836441
-28927.1565089063
-28927.6920458094
-28926.9970736803
-28926.8754014412
-28927.7174251739
-28926.9439742294
-28926.9903626762
-28926.8824377572
-28927.488321766
-28927.5945895126
-28927.3012257743
-28926.9702387797
-28926.8911490691
-28926.9047392436
-28926.9625436764
-28926.7791465263
-28926.8780907409
-28926.8811064409
-28927.5003019798
-28926.9262739136
-28926.7582850656
-28927.5379042834
-28926.9364813066
-28926.8446411644
-28927.603900291
-28926.7629861019
-28926.8487762042
-28927.6356601774
-28926.7392625493
-28927.7061070127
-28927.1636088969
-28926.6587378471
-28927.0524865059
-28926.896306304
-28926.9886235976
-28926.8071086579
-28926.8439852343
-28927.6218305429
-28927.0747547944
-28927.5288286112
-28927.3133103437
-28927.6712561867
-28927.7092922396
-28927.5732046412
-28927.0276634779
-28927.1489079543
-28926.8197344615
-28927.3375051972
-28926.852004425
-28927.3304005807
-28927.5260809432
-28926.8564843689
-28926.8522407558
-28926.8740381515
-28927.5339540088
-28927.1655641699
-28927.2966855573
-28927.6942540121
-28927.6272631568
-28926.8550202612
-28926.790552036
-28927.0833885539
-28926.8136906801
-28926.8960182717
-28927.4019863478
-28927.7111657424
-28926.6298335218
-28927.7025289897
-28926.6776790014
-28927.5057204438
-28926.6880141518
-28927.0358998153
-28927.1315827472
-28926.9401673588
-28927.6559934654
-28926.8501386775
-28927.0991888358
-28927.6328465218
-28926.8781451636
-28927.5129566273
-28926.7902399215
-28926.9912169772
-28927.113838485
-28926.9437330006
-28926.935493806
-28926.8700662439
-28926.6616452459
-28926.8972128508
-28927.7093395874
-28926.7758495967
-28927.630544848
-28926.8657933786
-28926.9918273282
-28926.8114792121
-28927.7220268886
-28926.8831490624
-28927.2095786968
-28926.8754452515
-28927.3202073375
-28926.8333500786
-28927.1337106763
-28926.6745775855
-28926.8639031408
-28927.6326623008
-28927.5126496831
-28927.193927125
-28927.59424352
-28926.8787095274
-28927.45765428
-28927.5795617614
-28927.2092396431
-28927.1525994488
-28927.5191180978
-28927.5138886168
-28927.4502457124
-28927.2869400773
-28926.9497205905
-28926.8701657015
-28927.4586210999
-28927.1397775873
-28926.7752270006
-28926.8225851246
-28926.8487787893
-28927.1337253705
-28926.8426686122
-28927.2791329992
-28927.5022700421
-28926.8948476385
-28927.5295559712
-28926.9211828023
-28926.8546806633
-28926.9272665844
-28926.7794636748
-28927.0100720075
-28926.9035624879
-28927.5034510155
-28926.8022712927
-28926.8673697332
-28926.9954619509
-28926.9120569252
-28926.9887531237
-28926.8419739059
-28927.1644355783
-28927.1842884496
-28927.1808040337
-28926.7371720358
-28927.0673362947
-28926.9303516734
-28927.5030286951
-28927.5368290261
-28927.2160747311
-28927.5943531818
-28926.9216843079
-28927.1079736184
-28927.147224659
-28926.9670200828
-28927.1209749389
-28926.8888114764
-28927.1801784443
-28927.4221950078
-28927.2106713694
-28927.6138527134
-28927.5579461376
-28926.9123758425
-28926.967623631
-28927.1072802727
-28926.713567669
-28926.6553986039
-28927.1245155463
-28926.8636302107
-28926.9002829736
-28927.065532589
-28926.6631466333
-28927.4329551998
-28926.9403030075
-28926.6931829515
-28927.1042169528
-28927.6688704299
-28926.8840267652
-28926.8971388359
-28927.5596646717
-28927.5749675298
-28926.9934985145
-28927.0427334067
-28927.4568754906
-28927.1458435459
-28926.8854564505
-28927.0527448778
-28926.6770732763
-28926.9484948543
-28927.7067153229
-28926.9127508151
-28926.7313228158
-28926.8210773426
-28927.7004851437
-28927.1188004783
-28927.1065009391
-28926.9197924374
-28926.8452658014
-28926.818895671
-28926.9246055845
-28926.8684583241
-28927.544298275
-28926.830024441
-28926.9017348362
-28926.708453156
-28926.8450170895
-28926.8985660722
-28927.4249560094
-28927.1343407556
-28926.8314504528
-28926.9038699764
-28926.8828857924
-28926.6696558651
-28927.0548074997
-28926.8571831569
-28927.6261235447
-28926.8147923325
-28926.7773187386
-28927.2777541991
-28927.6622127601
-28926.9048808788
-28926.794386118
-28927.4758951497
-28926.758448742
-28926.9831866298
-28927.0947890294