-0.196948457222337 0.118728854624293 0.21154074567057 0.0433469771183662 0.247603019967973 0.140967857031452 0.0732357788066508 -0.286051276765589 -0.700183276849463 0.281560590305597 0.0615416363435909 0.0621563867916523 -0.197350320438698 -1.20849627970522 0.236233350556127 -0.102474348841591 -0.60781747197106 -0.0174909486537717 -1.21999039044574 0.841828876323863 -0.243837127114457 1.13555154962597 1.06828381239205 -0.152286875737205 -0.229753659718802 1.45890771420443 -0.677864313175325 0.54272488688712 -0.161383948239634 0.733579318546951 0.119759352238609 -0.104596536293828 0.857155728565534 0.115929438949474 -0.262215363010496 -0.344840291487705 0.304778154070063 -0.264668451268527 -1.30818715370335 0.998454486402781 0.223821356461538 0.337355556944202 0.379001235980251 0.551841756873656 -0.460293048157503 0.823564540238988 -0.614014341606851 0.315510447337725 -0.0915417667412065 0.321937173477308 -0.557673787159468 -0.243440920322127 -0.0468526744664704 -0.24775651474735 -0.0270006830002571 -0.0815584354372435 -0.248878029366524 0.0281335104674919 -0.351123035924689 0.283345963417825 -0.484563221012042 0.141783153422419 0.188013878355698 -0.892331229841037 0.019007641624543 0.549404866557167 -0.42600509123445 -1.06534350033683 0.81204497559033 -0.683788903127093 0.703826785255769 0.360190797866232 -0.0508509949256099 -0.704989951724623 -0.128208764189526
-0.485280558423205 -0.323023721111564 -0.0519146597535606 -0.685721857484486 0.238986743508151 0.360081268928183 -0.499748148432579 0.105628062348877 -1.37044612745811 0.0370364647815955 0.682637563726667 -0.0326347384449954 -0.0548498296051159 -0.434018187204455 -0.0236289400576067 0.684031358029863 0.32871202680496 -0.414422534590905 0.533565850830536 -1.70902527176422 0.528074491537481 -1.22532439830667 -0.309347002025752 0.191204615729367 -0.991747510163497 -0.48818847459534 -0.621901453587081 0.462782903171734 -0.614772045316778 0.343061860350423 -0.279206489468102 0.687073999938001 -0.494225678807355 0.321908634246971 -0.0306925281210072 0.4333191046163 0.917410271331963 -0.000488252237920777 -0.00522884979599517 0.462136271060954 -0.0345766916588004 0.446983225303135 -0.282556635155363 -0.129223578082666 -0.110478188845 -0.291828285472193 0.20983610515587 -0.242455674100056 0.232341216602654 0.597851367049372 -0.117844395594041 0.058151124357566 -0.141593920327575 -0.28132636292869 0.658840730719422 0.485926419203435 0.327867162742924 -0.395802872232829 -0.574720706526831 -0.113305372419606 0.272542193519231 0.00679233682011115 -0.0132563439362598 0.700646589399612 1.32370375326023 0.243016431409643 0.302340492423025 -0.204412880061366 0.665954712378732 0.0486778996570968 0.323127079405216 0.764004452077417 -0.500345672498366 0.00380883025411184 -0.410497747644164
-0.284613002400697 0.150598433164047 0.0137224846984243 0.14971911633746 -0.249526461248586 0.459509376319071 -0.177474931945813 0.105431887279085 0.572355292841275 0.175603684032391 0.819816645098298 -0.789929900291479 -0.288281707604958 -0.18254231654675 -0.0729650417837279 1.0344216299324 0.494273758411616 0.170771041028727 -1.36044788376352 -0.725391644762545 -1.25736392667753 -0.27645001119388 -0.0533061400651073 0.371927877729888 -1.16015390883722 0.283962770747352 -0.47181492679781 0.0060174067279083 -0.152829378223783 -0.398295041238709 0.422099330441267 0.328299879181271 0.113319513479682 -0.405438076348723 -0.0262355230950163 0.632178918940639 -0.0116982562259913 -0.239511762502271 0.236556538056425 0.566077176387589 -0.0397443492311909 0.166581944813644 -0.0175143456804441 -0.0935333422203715 0.161304244082838 1.07549266770896 -0.0848257916455095 0.0192557529513432 0.646390684317717 0.0255873483231373 -0.458366521554691 -0.997782400383864 0.133960318987992 0.238188416389276 0.657229935421595 0.0185301880143172 0.513604844646641 -0.0356043610611012 0.322040531770959 -0.434282753582981 0.0318654647768232 0.0179046389385608 0.265715661044752 0.111233064342912 0.576809726765434 -0.232084106419442 0.042612670435111 -0.952079008436354 0.46908107421971 -0.363520374738835 -0.451967306204711 -0.473996249592186 0.460216172212722 -0.0257238738304232 0.185025229586035
-0.132366235852074 0.149753311991828 -0.111133048481642 -0.586924955593385 -0.258815595057875 -0.108530322096981 -0.352628416047399 0.460693882933131 -1.22250261404591 -0.52794799332734 0.564541971483627 0.313039104256685 0.265694835119912 -1.1884897650189 -0.949688140842659 -0.927046246778406 0.75039458163924 0.398308925188603 -0.433921256665384 1.74839475434828 1.05373291868331 0.424802586907565 1.04741752125306 0.0975560881469163 3.03275550737332 -0.0542260803006421 1.04754016281045 0.55665357395248 -0.447987754788946 -0.407036787467939 -0.222846137536612 -0.872026981562553 -0.475176899553498 0.0827784232565874 -0.529580900100924 -0.441380794410932 -0.366347558313441 0.778819912164678 0.425808401944292 -0.221860119983992 0.228399717494005 -0.274446608646287 0.320190109782378 0.157925816275424 -0.223806958291278 0.701184463902893 -0.582889097047497 -0.0228851202975726 -0.0715805034471279 0.593024894690105 0.0722919273240772 -0.0169564165828727 0.475818132350431 0.523369889405056 0.352136821377096 -1.3002069678368 -0.0608659507821081 -0.47533707919764 0.81768802989148 0.392163734699638 -0.171645986982199 -1.05533034425161 -0.125601409821566 -0.624183563573276 -1.38812630920672 0.312883809706025 -0.466211981685241 0.600735886194835 -0.354233812031378 -0.192161322721101 -0.277751245831119 0.395578415042885 0.05376893839489 -0.418177114596359 -0.25498491043819
0.172294418864262 0.301562734118806 -0.00761046142309372 0.0238559683493835 -0.765095627694971 0.381463323094695 0.803577051706222 0.520671003811873 1.07660004126806 -1.34247613906714 -0.995493862643088 -0.798744151592374 -0.838699331173799 1.29088363837314 -0.260085976473129 0.380378832341904 0.1810176531603 0.272406953562861 -0.335274764231463 0.17305855032877 -0.950274094950201 0.0659557039689853 -0.540733054297771 1.29100319460834 0.163472968478236 0.938166519312535 0.290782361246884 0.424352386976759 -0.434501297238711 -0.0592302157965094 0.534262619427042 -0.28561521789486 -0.522559992327936 0.308084076805811 0.401438470338667 0.173457328222932 0.188781866472954 -0.295803466014844 0.286922366066313 1.12608783800228 0.134570441452756 -0.0667974827088234 -0.0163036138276958 0.147435977910532 -0.370819989950425 0.504586447860275 0.163648317623187 0.0481513380018774 -0.383012926168917 -0.497054405043061 -0.406624125623882 0.0156554390558168 -0.39422627258937 -0.152064218318543 -0.242438190607597 0.781378929818193 0.154311104209638 -0.332413642112673 -0.125224229182793 0.286676568731162 -0.229836449197797 -0.323428155429758 -0.076922995944103 -0.137424621596599 0.363153221397208 -0.275396373663074 -0.55516979108516 -0.484003235033005 -0.546314145044768 -0.646226905131011 0.0229712522089488 0.198112395021741 0.347930241669555 -0.27877814390287 0.0335569926721791
-0.1791001254139 0.220752232204528 -0.133117254697238 -0.934226819975168 -0.816899215849384 -0.63839095807724 -1.88537586087884 0.420045791407948 1.1617086541151 -0.000895257657946363 -0.640881841532204 -0.30486351465089 -0.214556133899287 0.867315951675548 0.425055840438029 0.202652446636909 0.709385764527009 -0.977902898128047 0.646163398915757 0.245166129651483 -0.721254999024837 0.0753181141804898 -0.34855810473696 0.121973842246619 -0.191226984315307 1.21891232744753 -0.267932465044412 0.428047060309525 0.074369120494252 0.884167210193487 0.154830466779727 0.019898785519558 -0.178817047102183 0.206450992483693 0.190351267031284 0.307593510576242 0.602918494540127 -0.379170928701171 -0.845618423314235 0.772101623077332 -0.020368011603921 1.08685256693385 0.104563369080193 -0.164338144244747 0.205621812142832 -0.469875287575654 -0.502142872679022 -0.59852988082287 0.0680177276383505 -0.524897895223889 0.0452498495843229 -0.0117175394897322 0.434481499754604 0.802661996564168 0.496016451233431 1.28342384351741 -0.305744374138577 -0.1787447991407 -0.519481097883965 0.14743983456328 -0.0555375993452097 -0.548129085828066 0.21274684954002 0.145684800452671 0.933188609055356 -0.327735008108752 -0.168634712516413 -1.58963410130797 -0.115742262736095 -0.112232194514876 0.0227668496132948 -0.0646935500795945 0.499358369394829 -0.585557129418694 0.0792706690270175
0.186601315009128 0.276787596864438 -0.0654389125007279 0.0382191716243736 -0.220980803157404 -0.112711705006568 0.368987051454302 -0.209639158755529 -0.294960401724089 -0.642387992985463 -0.243151671366012 0.466177271810507 -0.778021585045803 0.675841884474174 -0.422531789769431 -1.42113591429884 0.293337522247651 -0.331216279989451 1.02389733880295 0.567692085448348 0.186276070627364 0.153852933863153 1.09612884523398 -0.996408146454592 0.641226112067525 -0.355991160133637 0.0610343579521124 0.646890506513883 0.0135579341811682 -0.232698856867503 -0.364493022561929 0.0741024972342605 0.642106200224662 -0.251352457769762 -0.409617145266661 -0.143763673163706 -0.341008835537471 -0.0849186084216493 0.0582040890553078 -0.189890525582967 0.196899349177343 0.0147588958469544 0.0108513352824889 -0.427352862814851 0.483075838602157 0.238874129247904 -0.51537427692751 -0.326465398024049 0.486748914679532 -0.702183594074857 0.319864865400614 0.847760922470945 0.348477372139431 0.20559044470048 -0.418597232635728 -0.186345490376832 -0.460418260816727 -0.391260506626012 0.0518467826651924 0.404296507135259 -0.102382817616367 -0.226308383263753 0.524892495910041 -0.0452483069232236 -0.273695846911306 0.340886708200445 -0.067938537701921 0.529878633693084 -0.434566603225247 0.311914504315313 -0.0795462911434215 0.0316546344265889 0.0578937570641702 -0.189445467855826 0.0823613905394165
0.488440442574888 -0.325250295298186 0.172346098011087 -0.866325049029447 -0.149177385181431 0.659758356963308 -0.029669229591821 0.50552567135955 0.0864281023072906 0.139397942252756 -0.29645061234599 -0.304334896114205 -0.190037849717948 -0.0128835341706015 -0.39262884702107 -0.475132676601986 -0.280468643357493 -0.693350316620404 0.284644369843049 0.214572846061196 1.92991248681493 -1.01891865721522 -0.301448834307643 0.510332860455077 0.692323675658836 0.447195855424652 -0.400658140932617 -0.457431411818346 -0.0056224854864937 -0.268509677405724 0.549972051621334 -0.272803931685741 -0.541749925072377 -0.211686784254634 0.814534830604561 0.356464757091114 -0.603807838663859 0.0926941345823655 0.879775768264215 0.608266386350949 0.366089676799679 -0.66963113088849 -0.0462165838732023 -0.291182938912329 -0.29450428825907 0.582500089340296 -0.583559383295132 0.209789053992342 0.361494089384937 0.297890943592347 0.564463295767564 -0.901610850573547 -0.780637938270175 0.0011567387142736 0.659923935921297 0.66845870845304 -0.339259714961075 0.132473707908657 -0.270397894591238 -0.854603395776783 0.552388373123166 -0.418638113154859 0.305902496901252 0.694698345310988 0.559059868157167 0.0959195818307679 -0.270476827417484 -0.0656379157825345 0.0539656276850477 0.490148168411786 -0.20816026098169 -0.273490672985102 -1.16535704761489 0.296297374676795 -0.793493704540989
-0.12053171122898 0.244565006043132 -0.280375826581353 1.11884118748843 -0.692399780273067 -0.173882588465966 -0.000712966538048612 0.853680113108866 0.615713582807703 0.178798792279175 -0.116904400764216 -0.0942964452441466 -0.00519362570089504 0.126057009066219 -0.452829653759207 -0.0312224322086084 -0.476842202210167 0.202041809951779 -1.56897915473958 0.455714944235219 0.0531426179885841 -0.304199399047652 1.33737121637945 0.146010044834435 -0.724487645358369 -2.01144855366624 -0.836677673803198 -0.156590385983818 0.203635378867331 -1.03236783378889 0.0317358812444841 0.518966620407357 0.0515382504453373 0.21654513827662 -0.302451564022172 -0.63043751166974 0.285795452133292 -0.452839423946169 0.754021120773454 -0.074453709744529 0.455774079577358 0.38412235660948 -0.443492954566023 0.0521789690219031 0.19342810459379 0.710387208690622 -0.0846321876775504 -0.3535136464082 -0.118624982110275 -0.3470167291886 0.336447957997462 0.17252478958842 0.569078166446047 0.698432870722151 0.430261807427718 -1.73191553426545 -0.453469858115406 0.172269222066307 0.397894977793631 0.561826373728535 0.0157878508001713 0.0122363878394553 -0.390502031585535 0.0715321667326839 -1.03477747042596 -0.118029514925954 0.0989329131780199 1.15668420691476 0.44855468274293 -0.338722097567978 0.194221032398818 0.365009556920003 0.383799426219365 0.673170252560412 0.00609222579122317
0.126618794816539 -0.141655883881729 -0.175491841102694 0.256362506799844 -0.396552862637261 -0.0922115387684754 0.650174317773874 0.0946998511216072 -0.0213524864954422 -1.00440838691544 -0.139571491626424 -0.18756984906929 -0.0337814498621237 0.695216165219978 0.755214112023561 0.87514315698309 0.306961533745905 0.0241277338130392 0.987398234304272 1.59766570921117 -0.765782626104516 0.595863391112772 1.0221675014903 0.0308485940022173 -0.974955386987697 -0.157880050662812 -1.28878073418465 0.439086086025759 -0.0940017969741849 0.132575266431026 -0.816883532128208 -0.587491626437186 0.927082242204056 0.469138152680383 -0.643116900354871 -0.135534090419436 0.224790661852249 0.156370042556804 0.0266139892847053 1.11028353215038 0.0157824514863238 0.223812357605125 0.0966819135239933 0.180538399778791 -0.0478052676952732 -0.83046897709898 -0.249709780809217 -0.218397102926301 -0.305510403871853 -0.446732542874502 -0.404535619605646 -0.137321006192764 -0.00927242164738014 0.0830746141876483 -0.429801065979401 -0.338044869345396 -0.0749658732294885 0.0824752903505797 0.109594758255481 1.11924716446772 -0.153658815674827 0.363516518086087 0.365510664667084 -0.441093602336283 -0.613400362489339 -0.142429785533199 -0.599002706449798 -0.735784552588366 -0.509302619950944 -0.885232931902903 0.808228174920538 0.642470525354274 0.69810222702654 -0.79752570643413 -0.266418086065289
-0.127416607715047 0.497527230669989 -0.599997979969014 0.414912586600108 0.807458644142183 0.0138263572124422 0.193670045276193 -0.244342605734653 0.0852165991239927 -0.234214778507725 -0.176836013140529 -0.250378010175386 0.170817577971888 0.587100561848519 0.620685065310302 0.391909709838624 1.01748295395216 0.472620710111999 0.724242876463951 0.240133454925279 -0.502477115917198 -0.341163615867765 -0.855623608983771 0.492567318125634 0.045068586905158 -1.13078138439682 -0.346069021053278 -0.176609241958936 -0.176061083048327 -0.330372958588514 -0.146870592617648 0.422220172227377 -0.126973349759189 -0.626797088585633 -0.539352372613919 -0.262633167058216 -0.27744965558621 0.2385632830364 0.130692962779726 -1.33208528812278 0.0171129966844492 -0.908288002031579 -0.311440393137469 0.177076668272016 0.306588466870064 -0.576127870559554 -0.044827931773671 0.595216244781626 -0.579789633788868 -0.102870555633921 0.138164841814068 0.0617586373382224 -0.0105952535400091 -0.399312683343865 -0.35104873108174 -1.37120023162547 0.0126343944030684 0.487326384151028 0.19900225336584 0.436911190985963 0.253244017387658 -0.042691346151174 -0.275689479271937 0.0709420988622109 0.190684224718545 -0.803269805037283 0.811400657471199 1.45706012042786 0.0440596865462316 0.690301761178052 -0.988433617012069 0.233701843692216 0.765418300974903 -0.167806046395919 1.22257537622776
-0.0370380074426948 -0.0552766325092489 -0.16854883771522 0.900932593910232 -0.369413854358435 0.17538745436831 -0.401684010563635 -0.191610078488293 0.224991722015521 0.41586749382056 -0.45477469229521 0.612717220732543 0.834498407890288 0.958586467173465 0.0127513795364302 0.0473545535441014 -0.0940421632729493 -0.693882277589471 -0.227963658623276 -0.868573477581641 0.400969501364487 -0.702833054397652 -0.412589338984599 0.52402963413518 -0.328438204459839 -0.391565953523669 0.315585523511223 -0.421098914718387 0.61560611075112 0.184459072962601 0.486014093775911 -0.049210117736347 -1.0498582682223 -0.196461747645516 0.167267143451905 0.608363059779837 -1.48095491241491 -0.355347870455239 0.505267275625422 0.371750985923838 -0.00709906926868381 -0.72971212428125 -0.0896370945039674 -0.0841753028819816 0.192843178926981 -0.203077963990126 -0.390872270249361 -0.00881373708052881 0.0965816405525404 -0.13292133673763 0.426132874995507 0.218918779488039 -0.137985636016369 0.726038019763141 0.204874907060599 0.449321642419454 0.262494070449098 0.649118623361603 -0.474695846400708 -0.620961201647073 -0.028855475861953 -0.614347556404294 0.203088762617821 0.636119903828923 0.819124504485089 -0.534769897818521 -0.120266630630088 0.628494530015203 -0.310327620264525 0.153217357490251 0.605943395845623 -0.512529352750262 -0.776938379843928 0.840157145912615 -0.74571594763532
-0.122161789790548 0.209373306826087 0.397555849461973 -0.927755870884073 0.0502714685726487 0.0337436546651914 -0.2996943144174 0.263073596802059 0.6609469773403 0.34294950320036 0.344456168873986 -0.573427699415455 -0.522105421524017 0.062655437657268 -0.829709730727953 -0.038895628516406 -0.443588599554178 0.401952433594909 -0.442539332896488 0.815610065390756 -0.792196583666681 -0.294827732869552 -0.101899193361744 -0.245301369607853 -0.0579168969806593 -0.870227981610614 -1.5501895425504 -0.111625157372311 0.274012606657024 -0.0914494641854332 1.57975952761151 0.189448038957658 -0.995141621692087 -0.134408462037332 0.251520864939767 0.24373171193934 0.541798261786821 -0.261888318857449 0.33114017537522 0.126681786811426 -0.26813403942805 0.90524844544564 -0.113654785158592 -0.352291858817574 -0.0536028452165347 -1.05495933425724 0.483411367391249 0.0496060674184944 0.46182542484945 -0.159370261284713 -0.0557096060577789 0.0448929806500237 -0.0864862092086967 0.48130743476202 0.49659417781511 0.0348949940656176 0.0641955276547116 -0.39170453591242 -0.420144007497935 -0.205860410392853 -0.20765606791241 -0.195264385522294 0.557074977542766 0.367782490245951 0.705455064046055 0.915881237072398 -0.263864467725622 0.366421348936023 0.769249499814955 0.375361070006326 -0.739713710408221 -0.572542469054654 0.646124061057726 -0.151596020674912 0.15349735047977
-0.0910406589941251 0.0876550321015813 0.0940051394065667 -0.522643810247664 0.638569906764756 0.2887956708612 -0.295535814314119 0.111440809370948 -0.218629530531925 -0.408421582914722 -0.955879354054419 0.211146595759705 -0.431616263872882 -0.0855948082034985 -0.109833613615686 0.162293861178023 -0.214931514766778 0.309097862258219 0.365776516596526 0.724823945478011 0.444988050281405 -0.0556376152064794 -0.127990734754161 0.663606010855085 -0.0730681429671961 -1.22864677609414 -0.136309534732006 -0.545278505226787 -0.328317105563546 -0.89355430298258 -0.183673601352886 -0.496225481812383 -0.694488543401486 0.637272785890448 0.411433628711058 -0.216452578610664 0.424837296782298 -0.0300075865929288 -0.46729313000565 0.818061610987688 0.40316342255784 0.046222240297233 0.248710907747436 0.319657891703128 -0.371729902888814 -0.794603649201918 0.768461457103408 -0.5001307283852 0.203972450317523 0.107998104017731 0.370685264214422 0.0657027075487041 -0.0700524976282953 -0.111685835375549 -0.367475500687195 -1.19861604958473 -0.0997479524588039 -0.0515094541048175 0.512336520112853 0.150518214786885 0.0235284099759706 -0.116711311016623 0.265320996913521 0.055891125847127 -0.395820612835471 -0.300644850764737 0.0646007333034547 0.936794322264729 0.0268564441874748 0.14375518852766 0.234819501658641 0.189406901328344 0.606100747277749 -0.00836096604789138 1.05985111260304
-0.147346503566774 -0.0897450807809167 0.00990928357119781 0.06528541772135 0.0423979834321284 -0.519895045278938 -0.403367310933128 -0.104995057077807 -0.225889036554934 0.792804135029613 0.52040900853518 0.421330828103645 0.978343584982073 -0.203104189228814 -0.196100507838102 -0.662370082204382 -0.590221622362538 -0.229110112930221 -0.336334315296482 0.487339753880555 0.0859167101528807 0.46439524113066 0.268427916367462 -0.232638178864265 -0.600471319816309 -0.0332299485191326 1.13865204132533 0.317603838449442 0.592460794948136 0.173815996928514 0.32874879356116 -0.247516116726047 -0.138658493365836 -0.474512012619711 -0.507581267274335 -0.685519254660114 -0.154712710315816 -0.238935064361325 -0.480032939583835 -0.122076686319904 -0.0653895473455511 -0.494212823298195 -0.186990322716329 -0.0471162124042633 -0.0525242679979577 -0.673297522101102 -1.14612314902912 0.839067255845977 -0.196773365187569 -0.0793706848882872 0.492821085876465 0.408144675247402 -0.288779215809475 0.193173308402226 0.0166548263379643 0.145296049855653 -0.408972570037346 -0.0124551886053692 0.346752419920258 -0.144965663270225 0.19102875236405 -0.0753985896678354 -0.128692902664515 -0.0578865579790402 0.0767083089411205 0.308737136671171 0.614725251263434 0.810413611477846 0.080476772896468 0.0909583837354971 0.387209478579314 0.0678786310292325 -0.240098745050546 0.0400909337581615 0.125432745541379
-0.131785166838013 0.00345067576889665 -0.111283972159188 0.581065671628153 -0.556173549240422 0.85671041372821 -0.0541731156029003 -0.534000367040166 0.332189956253278 -0.198864699417821 0.165025656874657 -0.704332006765782 -0.748921854509798 0.744233193208732 0.0532706588598239 0.701428204356578 0.719643175286277 0.110063727229661 0.451940309635474 0.888141619405587 -0.134527246941976 0.415584415508842 -0.514899137308933 0.47715536241332 -0.597913330603526 -0.859867726778061 -0.0696490917508346 -0.189248007235119 -0.147286339783902 0.0479705895430789 0.111552909410828 -0.330848869537641 -0.450360624669816 0.00893740707865409 0.278217386593283 -0.191007669329026 0.323451809566613 -0.0936588119897793 -0.77440070233562 0.698069831143455 0.104810194856077 0.219132952270655 0.0479207101675356 -0.367543377775563 0.0608854911560323 -0.458924707762445 -0.0675752410130416 -0.0949708452547133 0.502726769905098 0.0802173487216064 -0.31356772279337 -0.299221488790472 0.16609909188957 -0.380253362572496 -0.615966322117801 -0.0545801210229259 -0.064544169063148 -0.197767867376236 -0.0502804674290611 0.110248846561574 -0.368453290713953 -0.116514364616282 0.375871433720003 0.106909499502008 0.0392383563906285 0.249470154118463 -0.15912677794121 0.669342653262925 0.159332980308147 -0.396346146049958 -0.113781540478915 -0.273976868341557 0.467125237056012 -0.0514094382435478 0.510571715815281
-0.423439645826355 -0.011830925080529 -0.0862545529336221 0.215151086863241 0.553940804409404 0.329094092537214 0.226681964359961 -0.353912938522729 -0.80959445843413 0.950138597883648 -0.755284303103578 0.00673911501218614 0.55857187302943 -0.0178244205613985 0.926068713861831 -0.374179905824648 0.110284584877041 -0.958480280667798 -0.358895476763207 -1.61196746315237 -0.542275201176681 -1.60687076799054 -0.259044166010751 0.172840778003588 -0.794606734524117 1.1999795048863 0.541221820756059 -0.364381693852598 -0.0696323795889258 0.169562108947261 0.374213844368832 0.0865057495826208 -0.241873062424896 0.522883179828235 -0.00903639449919095 0.41849413145226 -0.527581354206079 0.282892678164822 -0.140362876770353 0.0169846987030261 0.43824662127757 -1.20446144960007 -0.368397497804196 -0.375212974540796 0.334425015075945 -1.28556454290284 -0.036548469653858 0.462448402823374 0.0593824250249713 0.795992558411633 0.736499061787514 -0.31728913558519 0.31340445782703 -0.12324242389059 -0.313869570148462 0.69560363026608 0.725027319632933 0.23783977498084 0.334593679356132 -0.275362692229073 0.725225808694373 -0.132449796661618 -0.115825566435456 0.513565506788609 0.380241535504068 -0.202029211552802 0.711511037301445 -1.23425923428349 -0.446330679658141 0.789599513706051 -0.330142587864355 -0.109464917612959 0.833327013895572 0.00546024896088654 0.433136813496402
-0.478769757253712 -0.316231384291453 -0.0593142908264199 -0.779277568290797 0.198878069147348 0.360756954489666 -0.500140241461979 0.179374461979388 -1.46180817418125 -0.0610114751458065 0.712119617105109 -0.0660552056098886 0.0128855910520672 -0.569531194588868 -0.157419052104312 0.825560743701451 0.304120466221406 -0.604567599255252 0.796167136226034 -1.3316654271936 -0.00936189599113813 -1.19691475150241 -0.120053743398387 0.276437669905085 -1.01712737056878 -0.291712071669381 -0.288967163353403 0.52488118306198 -0.645607526699652 0.338841396692988 -0.336397050181186 0.482994334674078 -0.0327478669256089 0.367637480102619 -0.105440114804948 0.458895140091376 0.80747124254116 0.101682706587479 -0.0488226526902455 0.912127685507677 0.0328206291074581 0.316617563786638 -0.376684159009139 -0.121712104080109 -0.154893458774614 -0.560800246987333 0.135794028814664 -0.184123801283691 0.0554445254588867 0.595893473004208 -0.125279507872184 0.00303595704337469 -0.194906745257446 -0.155208932969416 0.777652889043076 0.428139877085665 0.409331752963295 -0.359047171771302 -0.618779878852697 -0.117122687309764 0.270337216587999 -0.204344231642448 0.0579282098287207 0.704589631169361 1.2903804737446 0.206590089092811 0.143913311290336 -0.241028455473043 0.547283193325296 -0.102257862067326 0.468414130404457 0.921285178903161 -0.433276938546253 -0.16959887570346 -0.428275117042034
0.606934555601908 -0.105771272720926 0.247032492471424 -0.376118773716254 -0.124305574498175 -0.425466702510803 -0.4418024551114 0.205524881603761 0.420142721947019 0.88192983737917 0.263338934511135 0.189088084701161 -0.762804775962547 -0.654086249211455 0.0783155046963826 0.575988773950436 -0.541220792315326 0.622980030805658 0.470194361313021 1.18072915124881 -0.917437525011384 0.361432382940966 0.657651853232247 -0.630373748344304 -0.371353493580591 -0.559488470832583 -0.535665669696834 0.33971068622243 -0.159180513969502 0.178977483856507 -0.115660758808017 -0.339642809134062 1.04199121083636 0.124613849607847 0.0545361551815965 -0.287173048494945 0.660758258465822 0.189199156300309 -0.706346465051253 -0.0476944532063085 0.355778787122303 0.365779087698358 -0.277108984593454 -0.40194292051813 -0.51516781745039 -0.775528901819556 0.0344285961932699 -0.385054895243992 -0.658331652556661 -0.565220999477491 -0.547393493593894 0.556934081162365 0.490226844127849 -0.337741993549571 0.0971776219572273 -0.143416060196003 0.107482855210573 -0.533958458080302 0.698037178150187 0.203464400595495 -0.156548477023954 0.918301929447345 0.186084266430688 0.125456399678234 -0.72009723186983 0.463030500278168 0.23553169686614 -0.246058559097414 0.950896044483392 -0.841362992671882 0.460486652125462 -0.28308782479388 0.321611929095544 -0.947809179623742 0.515645013950433
0.250588069195071 0.0762573376797655 -0.296014296365078 0.610413513490958 0.267418758898353 -0.422866547227974 1.06377744221088 -0.351173943740965 0.161180574084713 0.0164609652598219 -0.548863392511321 0.358803174207433 0.426242146823372 -0.530008474335606 0.0796308803936984 -0.723886521750018 -0.136027227750838 -1.38101232754741 0.342199769906112 -2.04286227585116 0.817041140670517 0.0961499525549264 0.540127302706122 0.378006990901768 0.378523268149658 0.994264361746965 0.502932200941485 0.206843856843641 -0.366262711952981 0.890331683946192 0.0134751447021737 0.555648787356485 -0.230998844336101 -0.0586401479260364 -0.128796003847983 -0.36919659625362 -0.149606759187396 -0.300083836344967 -0.537160251191849 -0.43174970405797 0.02705133370635 0.112298014721779 -0.47099783063556 0.0570067269320866 0.374771773466403 -1.33142605761303 0.493900177315408 -0.753266502385725 -0.600376703268887 0.0610541554362198 -0.0978340242549691 -0.0746131180581208 0.156171296385181 0.557493038700669 0.297321701646714 0.937384647245386 0.373963933270749 0.393341299338752 0.352696036025584 -0.0348530851057539 0.061694102682236 0.574003369115668 -0.167104906926298 -0.245503715322041 -0.705369960575411 -0.314107654178117 -0.409696078092907 -0.466039974972671 -0.00343190672552213 0.18536975723154 -0.176205064750926 0.329487728227713 0.154095902986289 0.658708061864885 -0.3280941910347
0.425124231746764 0.120125734249687 -0.242520722976409 -0.649686065535954 0.680699210055427 -1.07175942784872 0.395315134215275 -0.23340770964262 0.163984874853013 -0.0583866372853888 -0.0599866339555209 0.216762653491618 -0.475222150945744 -0.553057373819885 0.589635925365179 0.681498308504852 -0.42583539851353 0.727940635118915 -0.730813584306133 0.247326369410836 0.554172460684478 0.330489686611693 -0.432895901254732 -0.413569957223371 0.79697831885407 0.360273844455409 -1.41072295187873 -0.748891001287812 -0.123388205364472 -0.610452594238806 -0.853918968469071 0.744534783453641 0.35322156924007 -0.220459897926216 -0.0751219391106986 0.440169805448 -0.414751378515234 -0.195879650190722 0.205097821589444 0.272522396035124 -0.162700352377682 0.225642982109599 0.520297936936032 0.234548507525535 -0.125225257623526 1.23333723716649 0.243274827143771 -0.800639310752834 0.490309376496661 -0.241639349268356 0.119129432289738 0.0874832824991952 0.735242821432337 0.250154067205808 0.0799576674365617 -1.06796628131578 -0.140383959805376 0.308339130107558 -0.0265980484533461 -0.324910138525795 0.0204294609377088 0.615895359707234 0.0878026133467453 -0.830765425140224 0.307512777978713 -0.0218908752190894 -0.356350857279951 -0.121953787652329 0.591464492988187 -0.303845872545734 -0.368417295288303 0.184950924743086 0.00100967168947598 -0.200585537874063 0.451944937618772