2.41870816244031 -0.968701757753174 2.70302314375152 -0.968701757753174 0.532075179310968 1.4540680472773 2.70302314375152 1.4540680472773 0.465058076573327
-3.99926764853215 -0.0237697928590321 -0.687343176840345 -0.0237697928590321 1.09737210365865 -1.48957368583268 -0.687343176840345 -1.48957368583268 -5.51855357543862
-6.54398942206809 1.23322976277947 3.23526020746189 1.23322976277947 -2.74983998168699 -1.36180052528201 3.23526020746189 -1.36180052528201 -7.4256175077998
-2.90948921478608 0.707660317146478 -0.687948330596437 0.707660317146478 8.21595599405716 -1.21622957013754 -0.687948330596437 -1.21622957013754 -1.82927235184382
-1.93383000898673 1.45388090661122 -1.53527578362227 1.45388090661122 -1.27986427300138 1.22653659495966 -1.53527578362227 1.22653659495966 -4.06132369086184
1.52711717718007 -1.17390640150577 -2.4766308506104 -1.17390640150577 -0.338666802558301 -2.41222182681097 -2.4766308506104 -2.41222182681097 1.75150990525551
-2.20279831635401 1.57543685460823 -2.50100600669057 1.57543685460823 -5.45776338917852 2.71481529410169 -2.50100600669057 2.71481529410169 -3.4631478000406
6.2186739744867 -5.85696139431521 2.1345017093636 -5.85696139431521 -4.39222418779661 -1.58994540734719 2.1345017093636 -1.58994540734719 -0.160981972493903
-1.80865871944447 1.64863769188012 -3.54572908445226 1.64863769188012 7.28516783385084 1.68022078942572 -3.54572908445226 1.68022078942572 -1.86761383486292
1.84489014458599 -0.283224073369277 1.20960281334796 -0.283224073369277 -3.65437728000081 0.474006956124971 1.20960281334796 0.474006956124971 2.61588901098013
-4.6247131076599 1.88879606325111 0.093223840031707 1.88879606325111 -1.34363925958743 3.56479857860375 0.093223840031707 3.56479857860375 3.78569854737453
4.43445265744325 -1.1253358119155 0.989587261177441 -1.1253358119155 1.0643473325984 0.556765795056095 0.989587261177441 0.556765795056095 -3.63570031541931
0.851122867289813 -0.243758339080615 -3.31105077251169 -0.243758339080615 -0.320948479789476 1.41786100565224 -3.31105077251169 1.41786100565224 -1.53974017519255
5.82228665048312 -0.175619873831079 -1.2000691378457 -0.175619873831079 3.10505693593004 -0.297578119547106 -1.2000691378457 -0.297578119547106 5.45641191333504
0.301918141370997 -1.69074159167758 0.0338148318335516 -1.69074159167758 -0.294672105978093 1.45403776884272 0.0338148318335516 1.45403776884272 -2.2172868302286
-4.84866330712095 1.97156615699632 2.1368614970118 1.97156615699632 7.40235653112833 0.376106788151181 2.1368614970118 0.376106788151181 -5.30382438832302
4.54712997245104 -3.0232490382873 4.74731808444574 -3.0232490382873 -0.398333488152719 -1.02545339001367 4.74731808444574 -1.02545339001367 -4.5512154441244
-5.29904969937756 0.0495053223036021 -0.24752661151801 0.0495053223036021 1.13268177430642 -1.71090393881249 -0.24752661151801 -1.71090393881249 -4.59607412266641
5.1742333620251 -0.950246653855056 -2.42573512903928 -0.950246653855056 -1.69801459032749 -0.304720445961959 -2.42573512903928 -0.304720445961959 5.46692536933067
-2.23796611469067 0.409866843065096 -0.365619854325114 0.409866843065096 -0.761513964103901 2.39399496972113 -0.365619854325114 2.39399496972113 0.379592587611424
-2.00513302184867 3.37111547171566 -2.69043164956911 3.37111547171566 -0.129214556068499 2.96270517842773 -2.69043164956911 2.96270517842773 -4.63787960174434
-2.48629045998123 0.379817567925904 -0.270299618892055 0.379817567925904 -0.438071796135399 2.51891282777854 -0.270299618892055 2.51891282777854 0.349525369256967
-2.01166797540128 1.06632470304487 -3.04704394036306 1.06632470304487 -5.2725395607021 2.89230024994757 -3.04704394036306 2.89230024994757 -2.65596443185847
-4.64504487562923 1.96096331447605 1.10864238395458 1.96096331447605 0.941929243510279 -2.55487887730886 1.10864238395458 -2.55487887730886 -5.34524006549528
-1.41764358742539 2.35956785021139 1.91477028167356 2.35956785021139 5.07830379052552 -1.73161834168739 1.91477028167356 -1.73161834168739 -0.0261645628551666
-7.05544079375946 0.689347378785569 0.209371983241462 0.689347378785569 3.74499320967747 -1.75990978366172 0.209371983241462 -1.75990978366172 -0.335785256141968
3.87490598589566 -0.873772604234471 1.01349750265935 -0.873772604234471 0.704528361071938 0.57267528791043 1.01349750265935 0.57267528791043 -3.60332801430927
-7.26587920699236 0.454735297308365 0.30842915817437 0.454735297308365 2.33694400616734 -1.89604847877705 0.30842915817437 -1.89604847877705 -1.23173952270918
-4.69880538803578 3.5017451574088 -2.64866775167464 3.5017451574088 -0.376087888549472 3.00182345189792 -2.64866775167464 3.00182345189792 -3.32058086963192
-0.088159211266903 -1.86511831336542 -1.30861329224309 -1.86511831336542 -7.20426054571723 -1.05791053520284 -1.30861329224309 -1.05791053520284 -0.584054774643233
7.33523794569653 -2.81110915284178 -2.47369619344529 -2.81110915284178 -2.52959893228021 -0.501128123127335 -2.47369619344529 -0.501128123127335 6.89799866695196
1.62631757708395 -0.455368921583505 -2.102015468381 -0.455368921583505 -2.31750254734462 2.02273248649816 -2.102015468381 2.02273248649816 2.83385837806878
-7.42271891825623 1.48150701962858 -0.43816166612734 1.48150701962858 -1.42510997349338 0.592168984419623 -0.43816166612734 0.592168984419623 -1.16047768008974
-5.89166646014761 0.263844193650089 1.81104703796711 0.263844193650089 -5.56890560189605 -2.97144917120488 1.81104703796711 -2.97144917120488 -1.74956877925253
2.41670848777373 0.015756860555982 0.811478318633072 0.015756860555982 -0.238322515909227 0.622395991961288 0.811478318633072 0.622395991961288 -3.10804074466744
-6.38495812383783 2.15440704825444 -0.334791811736815 2.15440704825444 -0.723932943560775 -0.223919198759039 -0.334791811736815 -0.223919198759039 -2.15005910264747
-9.16775376454176 0.536832599436218 1.66002110083967 0.536832599436218 -4.65519043791555 -0.346663117717115 1.66002110083967 -0.346663117717115 6.14287044594728
3.35601935872412 0.574162348119067 0.560684358726601 0.574162348119067 -3.66062191899386 -2.19152107521503 0.560684358726601 -2.19152107521503 -0.256081798456861
6.60326934936636 -1.15629482040186 -1.11912820117466 -1.15629482040186 2.39724694015458 -4.31752226689339 -1.11912820117466 -4.31752226689339 -3.05798683752707
-2.62888171648448 -1.73506193287975 -2.23039859314367 -1.73506193287975 -3.33176167015506 -0.426155562461694 -2.23039859314367 -0.426155562461694 -2.28297622747336
8.24071449339177 -1.57947027790009 -0.839768048374208 -1.57947027790009 2.66057353643791 0.561153415502392 -0.839768048374208 0.561153415502392 -0.406149500031451
-5.54732153634981 2.04867722358916 -0.0566053217994878 2.04867722358916 -1.33893357333404 -0.984061748206481 -0.0566053217994878 -0.984061748206481 -2.0421458403046
-0.389283382807429 0.805485297404734 -1.85944934979293 0.805485297404734 0.0641903450373953 0.395495351682016 -1.85944934979293 0.395495351682016 -2.64215742799085
3.40831300026919 -1.07925470297813 -0.0133241321355324 -1.07925470297813 -2.80339740131602 -2.56889267573065 -0.0133241321355324 -2.56889267573065 4.73806138739532
-2.89862211987659 -0.649778688869007 1.00258821134085 -0.649778688869007 -7.35062141783064 -2.45697566728593 1.00258821134085 -2.45697566728593 0.535559778716252
-4.23057792817844 2.16787241856376 2.13441022026178 2.16787241856376 6.50361725569127 -0.363303867278601 2.13441022026178 -0.363303867278601 -3.16217773953677
4.43211374233779 -2.80761838726239 4.53223987114118 -2.80761838726239 -0.684535778553785 -1.28324916099038 4.53223987114118 -1.28324916099038 -4.15421265014879
-1.68801463645724 3.17051175903665 -2.59783374283775 3.17051175903665 -0.341759461279988 2.85877170989612 -2.59783374283775 2.85877170989612 -4.4521097388366
4.98018310241967 0.366852993964247 1.45716468552279 0.366852993964247 3.55785920403314 -2.85899400324092 1.45716468552279 -2.85899400324092 -2.16422771858237
5.5607251604704 -0.256536090443494 -1.17273641345597 -0.256536090443494 2.66553213975097 -0.158808055988829 -1.17273641345597 -0.158808055988829 4.83020810292178
1.45858502343714 0.985530421241308 0.258208970365223 0.985530421241308 -0.699726599081329 0.636652652121885 0.258208970365223 0.636652652121885 -2.19181965684067
-2.49968025123239 0.72555810570969 1.91152019211888 0.72555810570969 5.64296187862586 1.49691556028478 1.91152019211888 1.49691556028478 -9.01041926625522
-7.27558079219727 1.28423436173511 3.1005086733319 1.28423436173511 -2.96160169134831 -1.36286095531073 3.1005086733319 -1.36286095531073 -8.17716573186436
-9.18319799864103 0.449457944306061 1.77407188589529 0.449457944306061 -4.30450031242898 -0.374218288431038 1.77407188589529 -0.374218288431038 6.27459130178814
-2.32963702374854 1.72609194803949 0.396883726828128 1.72609194803949 6.38301757111746 3.18916036113963 0.396883726828128 3.18916036113963 -4.59821501260044
-5.12746868213445 1.68126789732769 -0.667327897635991 1.68126789732769 -3.1513812957019 0.0756968958512467 -0.667327897635991 0.0756968958512467 0.721112534161877
-1.66206915544077 0.81953598607897 -3.2635093731359 0.81953598607897 4.55344228999999 0.150527017851239 -3.2635093731359 0.150527017851239 1.2188507139899
-1.76190207206399 0.177372691818522 -0.66219138278915 0.177372691818522 8.13549413140956 -0.936133651264424 -0.66219138278915 -0.936133651264424 -2.05949403278173
-5.74173137191742 2.52371247651899 -2.28161879098866 2.52371247651899 -2.75210274588723 2.28390269368235 -2.28161879098866 2.28390269368235 -0.723997153897304
5.57228137291267 -1.93655075047267 0.0830798074768661 -1.93655075047267 -4.07684483832907 2.34205933458594 0.0830798074768661 2.34205933458594 -1.51917362243412
-3.89173789365782 -0.189291246709471 -1.90192633598564 -0.189291246709471 -8.12600280517088 -1.19659109527059 -1.90192633598564 -1.19659109527059 5.23480435840598
-0.509091050144476 1.98686923736941 0.619865491611098 1.98686923736941 6.00067506327702 1.41414180595688 0.619865491611098 1.41414180595688 -4.56296422722086
-3.88913514671603 0.776209925332097 0.361827022485535 0.776209925332097 -1.86573375281647 1.29368320888683 0.361827022485535 1.29368320888683 8.16637525609811
4.53088597009691 -1.00889351574291 3.7960379767389 -1.00889351574291 6.40048542281163 2.43393023214435 3.7960379767389 2.43393023214435 -0.799806931997394
6.51032656729927 -0.52756570825378 -0.62424005269819 -0.52756570825378 -0.983316189205999 -0.187824440634854 -0.62424005269819 -0.187824440634854 5.87780014222013
1.52819978934497 -1.5241354282031 -0.619815074135926 -1.5241354282031 3.26774635806744 3.12549371810182 -0.619815074135926 3.12549371810182 -5.45437265239615
-4.93792351310785 -0.375806568254226 2.14122347028571 -0.375806568254226 -5.36398328525654 -2.44711253746938 2.14122347028571 -2.44711253746938 3.84983240269736
0.84098209504968 -1.5466337380224 1.04881100359644 -1.5466337380224 -1.39438697943582 1.20105776218302 1.04881100359644 1.20105776218302 -1.65779803794276
-3.5083183397679 2.53250853353109 1.77818874755359 2.53250853353109 2.19609444615608 0.526561180239137 1.77818874755359 0.526561180239137 -1.05103283198526
0.823455932930313 -1.8197359505497 2.08608836342346 -1.8197359505497 -2.94614233781734 0.921050710166498 2.08608836342346 0.921050710166498 -2.16538411992786
-4.59381533249745 1.65227145474023 1.62306463609583 1.65227145474023 0.540326144921363 -3.06671595766179 1.62306463609583 -3.06671595766179 -5.50131291180554
-3.85939810906271 1.63110213198288 4.01724670248041 1.63110213198288 1.0944169143627 -1.82052044408411 4.01724670248041 -1.82052044408411 -2.35457485181399
4.38930334839648 -0.745198889373283 2.58158186675745 -0.745198889373283 0.718584643324237 -2.53244787405151 2.58158186675745 -2.53244787405151 -1.9899267045902
1.59272768518231 -0.728220320939039 -1.13708145085174 -0.728220320939039 -1.79614118265132 -0.453612099355882 -1.13708145085174 -0.453612099355882 -3.44175637717557
5.82230945895475 -0.353369184801426 -0.894465749028611 -0.353369184801426 0.0690174189065286 -0.742627427434248 -0.894465749028611 -0.742627427434248 5.24256314013991
4.27116402958312 -2.29199371812479 4.03603532522599 -2.29199371812479 -0.897578271415506 -1.74199700967201 4.03603532522599 -1.74199700967201 -3.34496139415892
3.61525420743426 -1.14805397670923 -0.845542993645461 -1.14805397670923 -3.60285621632509 -0.0173571875528394 -0.845542993645461 -0.0173571875528394 1.56214687975554
0.436858110468816 -2.22275604634762 -0.964384885374555 -2.22275604634762 -9.85266153547907 -0.659408468632175 -0.964384885374555 -0.659408468632175 0.431363039896881
6.52421360953365 -1.97545910089465 -2.56929650268181 -1.97545910089465 -2.19339942680307 -0.3718981708162 -2.56929650268181 -0.3718981708162 6.69216762216032
3.56789276118989 0.525086104477003 0.552013597014285 0.525086104477003 -3.4063278059662 -2.40193233432557 0.552013597014285 -2.40193233432557 0.22619093731317
11.1423172540654 -0.56012080263155 -2.56501672278053 -0.56012080263155 -0.620219601197167 -2.03855124734573 -2.56501672278053 -2.03855124734573 7.87053866015319
1.04411746787611 -0.0975051331868742 -3.15469732998366 -0.0975051331868742 0.199072980256535 2.03948236915878 -3.15469732998366 2.03948236915878 -0.899891125037193
-0.0502023123766705 1.16859827143472 -1.07934971609842 1.16859827143472 5.85135840923638 -1.11839595905805 -1.07934971609842 -1.11839595905805 -1.27458093089658
-8.51642183892739 1.24434960647754 2.37487097452471 1.24434960647754 -3.17425564895623 -2.4033280341323 2.37487097452471 -2.4033280341323 -5.71210796486989
-6.19127120126555 1.62467425801049 -0.262635312385155 1.62467425801049 -6.54145161777909 0.956888347449789 -0.262635312385155 0.956888347449789 -1.86084244589172
2.17366398572279 -0.233399961118694 -3.31833857764404 -0.233399961118694 -1.46534584284954 -0.41403123537577 -3.31833857764404 -0.41403123537577 -0.383587762186375
-2.62176629222226 -0.0856253376931064 -0.984691383470723 -0.0856253376931064 -9.91419088575182 -1.31903794017714 -0.984691383470723 -1.31903794017714 0.332307858189913
-6.4357357106181 0.454196659002952 1.92969428005774 0.454196659002952 -5.12446738999376 -2.95099524210958 1.92969428005774 -2.95099524210958 -2.38132485624147
3.69577209037252 -2.14236200318921 1.51388311295473 -2.14236200318921 -5.31242533632157 1.65815656888906 1.51388311295473 1.65815656888906 -2.89139816482086
2.14292423533534 -0.985087052519797 -2.51927273347965 -0.985087052519797 -1.59999525440585 0.721848758735801 -2.51927273347965 0.721848758735801 -3.57839555612619
1.45989073516257 -1.02965803506499 1.65567078408338 -1.02965803506499 -1.13842472890989 1.15050991711488 1.65567078408338 1.15050991711488 -3.5796327463175
-5.12959642869856 -0.572626444106954 2.35607368987518 -0.572626444106954 -5.56015906033623 -2.39322884082868 2.35607368987518 -2.39322884082868 4.62472349515388
-0.92862620948563 2.15135598157644 -1.97998855139704 2.15135598157644 -1.13936183308461 2.38988091817748 -1.97998855139704 2.38988091817748 -2.98271959555484
-6.08225147595413 0.866355742356867 -0.0552573138633081 0.866355742356867 5.48428840093333 -1.58075387158964 -0.0552573138633081 -1.58075387158964 -0.434164608925992
3.81699059536046 0.154556379855521 -1.63112179454666 0.154556379855521 -0.0331192242547545 -1.76083875621112 -1.63112179454666 -1.76083875621112 3.02212921324635
3.51521404480851 -3.03884398791747 2.85226571563514 -3.03884398791747 -4.39649865005695 0.158790018963682 2.85226571563514 0.158790018963682 -1.10954525750873
-0.774634771901922 0.0178304678954407 -1.84842517182735 0.0178304678954407 1.30954880876514 -0.859824785180138 -1.84842517182735 -0.859824785180138 -6.43283658405509
-4.38751819177712 1.78458149905616 0.103307215041844 1.78458149905616 -1.17689199881002 3.52865036476258 0.103307215041844 3.52865036476258 4.5495687251761
4.39015093915668 -0.823772120292819 0.0178219929871043 -0.823772120292819 -2.9921146003905 1.97428077868255 0.0178219929871043 1.97428077868255 1.06337891489722
-2.91467535874307 2.27532721553491 1.62553220724166 2.27532721553491 1.97863624711806 0.51398576218695 1.62553220724166 0.51398576218695 -0.641437516225177
2.03512796115568 0.338859641160481 0.659988254585821 0.338859641160481 -0.459036606920884 0.634376770079505 0.659988254585821 0.634376770079505 -2.83302420923704
-0.761806585213155 -1.56777587101838 -1.64230042826749 -1.56777587101838 -4.92690128480247 -1.1178683587367 -1.64230042826749 -1.1178683587367 -1.55397502708336
2.3307567801953 2.01457968996473 1.2647083609223 2.01457968996473 -9.11037704239605 3.12819457413968 1.2647083609223 3.12819457413968 -2.42868773734637
-2.75741615558843 2.32549996693848 3.68708941530449 2.32549996693848 5.90987760567377 -1.92255376655163 3.68708941530449 -1.92255376655163 -0.721616071281022
-3.88341413825729 2.21875260420727 2.12321966107671 2.21875260420727 6.2120296270647 -0.623352453926907 2.12321966107671 -0.623352453926907 -2.48146819781631
-1.97642822482259 1.63160457708759 -1.07371916327241 1.63160457708759 0.602740522463627 0.529850970909886 -1.07371916327241 0.529850970909886 -4.17713199288746
-1.66498615793558 -0.419812911303218 -1.11678386113672 -0.419812911303218 -9.34389416662745 -1.06379776553534 -1.11678386113672 -1.06379776553534 1.32057653652663
-6.67462019515695 0.231524032858987 0.174137734116161 0.231524032858987 1.49600144308884 -1.89572669640094 0.174137734116161 -1.89572669640094 -2.84754772037677
-2.14230111708044 -0.258869878086789 -1.04770958532764 -0.258869878086789 -9.67602607305503 -1.21689226155758 -1.04770958532764 -1.21689226155758 0.829606617175774
-7.41539494570061 0.816208402009407 2.13192604688892 0.816208402009407 -4.24325377448424 -2.80137142393134 2.13192604688892 -2.80137142393134 -3.72057142240881
0.372346052897791 -0.875291094498537 -2.67311121557966 -0.875291094498537 2.32855218155484 -0.244525766082131 -2.67311121557966 -0.244525766082131 1.66444243049087
-4.60279161701771 1.57590360165116 2.09479868999971 1.57590360165116 7.94197760222367 1.0786291419838 2.09479868999971 1.0786291419838 -7.70895527088196
7.62566421291273 -1.13757336509501 -1.21210403384261 -1.13757336509501 2.02801872329006 0.490333347023709 -1.21210403384261 0.490333347023709 1.43961870686161
-2.0478896556746 0.694540548434896 -2.21091685836189 0.694540548434896 -4.65409164931937 -1.43597933325929 -2.21091685836189 -1.43597933325929 2.69999846642376
-1.51945775640168 -2.36514136169824 -3.02782458027489 -2.36514136169824 -3.31341609288323 0.418682702950099 -3.02782458027489 0.418682702950099 0.657137752312407
-6.52909838216009 -0.760778085496827 2.95102969186954 -0.760778085496827 -4.13494947909803 -0.995369598892102 2.95102969186954 -0.995369598892102 7.59901107876658
1.02500871544362 -1.66461415388043 -0.37720320728325 -1.66461415388043 -10.8377588179572 -0.188601603641625 -0.37720320728325 -0.188601603641625 -0.60680515954262
1.2179804786601 -0.869207545173537 0.00817436562859125 -0.869207545173537 -9.47953934062299 -0.291552374086421 0.00817436562859125 -0.291552374086421 -1.74113987888994
5.12591439544241 -3.53490236661429 5.32989029657422 -3.53490236661429 1.79702768897126 0.114226504633814 5.32989029657422 0.114226504633814 -5.67868908750962
4.50305073350625 -0.436175446219568 2.28736137759276 -0.436175446219568 1.34948177961829 -2.63548262574922 2.28736137759276 -2.63548262574922 -1.92490572510044
1.19958298719921 -0.107363709697692 -2.61182870706885 -0.107363709697692 -0.753610654608798 0.887815291730913 -2.61182870706885 0.887815291730913 -2.39916597439842
-2.88801503862264 -0.0853379249359722 -2.12446518393236 -0.0853379249359722 -7.38397624182833 -1.61692910405 -2.12446518393236 -1.61692910405 4.60151074194229
-5.21822036937814 0.24902570092477 -1.75449925651543 0.24902570092477 -7.7582825188108 -0.13583220050442 -1.75449925651543 -0.13583220050442 4.62961416719232
4.50182273780686 -2.19456444399017 1.04192383962416 -2.19456444399017 -4.94666688185892 1.93161212772828 1.04192383962416 1.93161212772828 -2.68488154498977
-6.35208258432727 -0.94624126773427 3.01614404090298 -0.94624126773427 -5.0159548683136 -1.42593302151623 3.01614404090298 -1.42593302151623 7.5830723817038
5.35148479630093 -1.21714613525336 -0.435401869521525 -1.21714613525336 -3.20020374098321 2.32742090253324 -0.435401869521525 2.32742090253324 0.330509600954976
3.66189543664074 -0.765263070739223 3.24577095520429 -0.765263070739223 4.08004979359639 2.08874190925905 3.24577095520429 2.08874190925905 0.290272199245912
2.13791696204484 0.292642625983324 0.455221862640726 0.292642625983324 -5.96936763927095 -1.09199053954888 0.455221862640726 -1.09199053954888 -1.93469291622309
-1.25285581797949 1.63598360160268 -0.704731397613463 1.63598360160268 3.95991928182803 -0.590072717843019 -0.704731397613463 -0.590072717843019 -3.15451197026979
4.75820004238574 -0.284510930369457 -0.669091222455067 -0.284510930369457 -0.270775919937828 0.300208085148461 -0.669091222455067 0.300208085148461 4.17936745990995
5.54910019112669 -2.07659479872995 4.764789435442 -2.07659479872995 7.87358595408859 2.37528309169795 4.764789435442 2.37528309169795 -3.38919777326962
2.20708661866151 -1.61611807049532 -1.51963340957022 -1.61611807049532 0.788762103062639 0.98655565795908 -1.51963340957022 0.98655565795908 -3.36972678280889
-4.70737746493523 1.88253403491431 1.29880255121995 1.88253403491431 0.823478343068829 -2.76230077105367 1.29880255121995 -2.76230077105367 -5.44538084074882
8.88534345251632 -1.13291737036686 -3.07162522708807 -1.13291737036686 -1.23634719398846 -0.945300481006744 -3.07162522708807 -0.945300481006744 1.41193735967165
-0.800871033406606 1.96213403184619 0.577098244660643 1.96213403184619 6.22795003625608 1.78547130388885 0.577098244660643 1.78547130388885 -4.77696016396646
5.72120883141026 1.10858866353519 1.25900019074851 1.10858866353519 -8.99962304493015 2.93302478065969 1.25900019074851 2.93302478065969 1.50411527213317
-7.33735009622729 2.15780555621499 0.620571898685891 2.15780555621499 -0.754420739578926 -2.92236635949794 0.620571898685891 -2.92236635949794 3.78224376159865
7.2487571677341 -0.976699423574562 -1.24146733960381 -0.976699423574562 1.72981705139109 0.45500856680582 -1.24146733960381 0.45500856680582 2.04557730680375
-6.00984220752899 -0.982672669767121 2.93269794540744 -0.982672669767121 -5.55461745182395 -1.83621908671406 2.93269794540744 -1.83621908671406 7.03847506897786
-6.18221126398301 1.22331653886033 3.31293019751446 1.22331653886033 -2.55426393199808 -1.37819996330832 3.31293019751446 -1.37819996330832 -6.94612781507391
-3.63896183617311 1.73396663054091 4.05469283408732 1.73396663054091 1.76290992786405 -1.88920795254685 4.05469283408732 -1.88920795254685 -1.90762641447976
-1.19598609711532 -0.564375040717109 -1.1898737320534 -0.564375040717109 -8.9138657152973 -0.865918383771738 -1.1898737320534 -0.865918383771738 1.78888550812138
-7.68681712678503 1.10067115229747 0.592057767842321 1.10067115229747 -4.81990652612574 -0.103312093717452 0.592057767842321 -0.103312093717452 3.51062441536034
-7.52482167632689 2.98226238915794 0.394651366641637 2.98226238915794 1.69455973408497 -1.69252544868991 0.394651366641637 -1.69252544868991 2.26415964470176
10.4753818162817 -0.284029194467197 -1.94487787397877 -0.284029194467197 0.832831366827544 -2.20483679772841 -1.94487787397877 -2.20483679772841 10.0060115372893
-4.67068532910151 0.104812012995265 1.66170712269577 0.104812012995265 -4.77986450930492 -2.43469571853585 1.66170712269577 -2.43469571853585 2.25564186300227
-4.25538330237006 -1.6627278160318 -1.43345993418206 -1.6627278160318 -3.67257149056509 1.78914655462185 -1.43345993418206 1.78914655462185 -0.171415238766165
-3.54061478856651 -0.193574616539555 -1.97401091517662 -0.193574616539555 -7.96807142500029 -1.38203272738706 -1.97401091517662 -1.38203272738706 5.1072186619564
3.74974383748042 0.443836250490867 0.535293417258682 0.443836250490867 -3.22252017023066 -2.59038975286488 0.535293417258682 -2.59038975286488 0.731657334142521
-8.55886418387063 0.084995648939131 1.97268971258727 0.084995648939131 -2.09919486449668 -0.436838102687162 1.97268971258727 -0.436838102687162 5.4120485301242
0.42860501725279 -0.765663331791391 -2.68190226814974 -0.765663331791391 0.430685624132657 -1.79972495108574 -2.68190226814974 -1.79972495108574 2.1783954032217
-4.20420166063629 1.36909754912334 -0.243303480115293 1.36909754912334 0.929914148576247 -0.564958928403307 -0.243303480115293 -0.564958928403307 0.220622647223189
-0.392931556375885 -1.16368191695935 0.211578530356246 -1.16368191695935 -7.58660158848824 -1.51883159291448 0.211578530356246 -1.51883159291448 1.1510879568191
8.23640236318695 -1.69163184109296 -0.643683577585256 -1.69163184109296 2.76312950378061 0.569110480182086 -0.643683577585256 0.569110480182086 -0.971412716172871
-1.96570620711432 1.9713305453321 -1.75198135483865 1.9713305453321 -5.70589112193841 2.55344955087239 -1.75198135483865 2.55344955087239 -4.05233568591092
-1.84396455955326 -1.54815615194876 -1.98495735196288 -1.54815615194876 -3.5469363266969 -0.810017415216049 -1.98495735196288 -0.810017415216049 -2.18953512918468
-1.98082567839202 1.52349623706355 -1.36637691979733 1.52349623706355 -0.681785608851646 0.998829945478131 -1.36637691979733 0.998829945478131 -4.16085620546087
-5.87250218137748 2.21074382818756 -2.18108472626141 2.21074382818756 -3.50661843542237 2.0282262778728 -2.18108472626141 2.0282262778728 0.0433479181997561
-2.8218123017814 1.53639821917441 0.311970936107171 1.53639821917441 5.75386997196158 3.4434085278596 0.311970936107171 3.4434085278596 -3.99228972371733
-4.34722522097609 1.4490750736587 3.87910296487582 1.4490750736587 -0.131495015758502 -1.66998670013298 3.87910296487582 -1.66998670013298 -3.42150031003623
0.796268114911692 -0.31281961657245 -3.36992041489412 -0.31281961657245 -0.6256392331449 1.08064958452301 -3.36992041489412 1.08064958452301 -1.77129029643621
1.9176303655997 0.141042120242128 0.401427572996826 0.141042120242128 -6.57744503052232 -0.903212039242859 0.401427572996826 -0.903212039242859 -2.08037127357139
-0.235850382282647 -2.04773626028934 -3.15484570182788 -2.04773626028934 -1.4040034521767 0.321866404056319 -3.15484570182788 0.321866404056319 2.10877988864485
0.857733843547045 0.168377313398381 -2.46227059475514 0.168377313398381 1.48568217704453 -0.501170121056356 -2.46227059475514 -0.501170121056356 -6.39437608999968
-7.87188216621367 0.58021573722367 -0.45031669157658 0.58021573722367 -2.78633452913009 1.00671760376495 -0.45031669157658 1.00671760376495 0.0476296500705998
-6.79314239760001 1.31050375878759 0.149146861774005 1.31050375878759 -4.30338411838596 -0.0218748730601874 0.149146861774005 -0.0218748730601874 2.46987203097752
4.80254921268166 0.127029885318372 1.72309892827017 0.127029885318372 2.79465747700417 -2.79465747700417 1.72309892827017 -2.79465747700417 -2.02018495038571
-4.60810249878289 0.375458848787615 1.40797068295356 0.375458848787615 -4.40509277240354 -2.36408100719179 1.40797068295356 -2.36408100719179 1.48000639231397
-4.09813015366651 1.53351083413837 3.95608969904649 1.53351083413837 0.457685909331177 -1.7465715160684 3.95608969904649 -1.7465715160684 -2.86448250150374
-7.63208979687541 1.32003200330309 3.04078800760891 1.32003200330309 -2.98578667413794 -1.37765244789172 3.04078800760891 -1.37765244789172 -8.43615690999852
6.15813980407072 -1.66877136726972 0.660432484573176 -1.66877136726972 2.06778266003268 0.536601393715706 0.660432484573176 0.536601393715706 -3.3100247143489
0.161032384851037 -1.56590112165491 -3.00963974445732 -1.56590112165491 0.333170451415939 0.102727555853248 -3.00963974445732 0.102727555853248 2.17949003634594
1.32787928420632 2.17391207709726 0.991707313521174 2.17391207709726 -8.60600244953968 3.00033483836491 0.991707313521174 3.00033483836491 -3.26647098182398
-4.25010144268609 2.33499549140344 -0.524349864736211 2.33499549140344 3.09898963025737 0.766042380513059 -0.524349864736211 0.766042380513059 2.80609107300238
-8.95275171762137 4.05099996001639 2.81354279988755 4.05099996001639 2.13210524211389 -1.21864446681608 2.81354279988755 -1.21864446681608 -7.5459803176776
0.398150511322204 2.28699549658289 1.39589673314749 2.28699549658289 4.69485811267432 -1.59734193232836 1.39589673314749 -1.59734193232836 -0.56641650122623
-2.14505882084583 -0.970180679408401 -2.11307484240379 -0.970180679408401 -0.298517132125662 1.80816091458972 -2.11307484240379 1.80816091458972 -2.304978713056
1.71296353346464 -0.115823157067004 -2.47292600264112 -0.115823157067004 -0.424684909245681 2.64767673084748 -2.47292600264112 2.64767673084748 1.76173117854548
2.85516315780208 -0.29733078401939 0.921528522656121 -0.29733078401939 0.0374124827574066 0.608445114317823 0.921528522656121 0.608445114317823 -3.33561819952878
2.47930997059273 -1.26755718753776 -0.178042623826059 -1.26755718753776 -1.68476154486151 -1.82825858496012 -0.178042623826059 -1.82825858496012 4.3288273763082
0.316451641858835 -1.68130032621183 0.253644445764715 -1.68130032621183 -0.560433442070608 1.42282455767064 0.253644445764715 1.42282455767064 -2.00499895223537
9.46764541297943 -1.05089180733351 -3.09496054013323 -1.05089180733351 -1.33225185643653 -1.13505934338996 -3.09496054013323 -1.13505934338996 2.35188143609192
-7.72891270739981 -0.630402935910822 -0.552682026004009 -0.630402935910822 -4.55746780036899 1.37091049418963 -0.552682026004009 1.37091049418963 1.40977094914304
-2.10156904693738 0.505270855965794 -2.25136173432547 0.505270855965794 -5.31875825815321 -1.54711253242624 -2.25136173432547 -1.54711253242624 3.07410365908393
-1.00236945824244 -1.52978699687689 -1.72860407950349 -1.52978699687689 -4.46786166235887 -1.0741645158576 -1.72860407950349 -1.0741645158576 -1.75621756320163
-0.387375158108411 2.31302268319805 0.0673695927145063 2.31302268319805 -7.2281958849939 2.66952011131231 0.0673695927145063 2.66952011131231 -4.23024900919838
0.631184176495506 -2.24207596607317 -0.839749382641847 -2.24207596607317 -10.5435200265032 -0.488481667026957 -0.839749382641847 -0.488481667026957 0.524157294394094