5.6465359063 0.8944515404 2.3076111363 2.8876856088 4.6759608389 4.9083832619 2.1879987476 1.5745018926 2.4268489547 7.5767782994 1.6215508649 0.0200504946 8.1437602964 4.6529999231 2.5325758259 1.102522048 4.679753084 2.1968095231 4.0360716371 1.5970952116 4.6666284135 9.2777963752 1.5593961398 2.7558179623 6.3009958845 4.6681967971 0.2964448978 1.3714232841 4.6913665105 3.7155039182 3.7817254362 1.5665029694 1.2411560511 9.0636641963 1.5656093038 1.2307261227 6.5586352355 4.7011774667 3.7217151338 4.7822025359 4.7006859888 0.6001979863 0.3737768709 1.5509228698 3.0979257074 5.5811653305 1.5874603406 4.4339908665 9.982842272 4.6802788719 1.9295737404 1.8273269103 5.8868171369 1.4773000919 3.3718671428 0.380589036 3.9137278956 8.5234758549 2.7737105281 3.4461619375 7.02756904 3.4515599857 1.0043167457 8.4913463836 0.3708091458 3.4418364233 7.0336247245 5.877942996 1.0204818802 1.8173280347 3.4597787185 1.4901050905 3.3313819444 2.8069249982 3.9607349388