-0.0542407355810852 -0.275615688649355 0.0428026748605051 -0.06909810462821 0.0115108229024293 -0.0395402037457201 -0.0149185612707294 0.0101327123204096 0.000307503779122301 0.077581969343677 0.0159387744777171 0.0680938322525815 0.0281985593438447 0.0128742782040058 -0.00969022569510066 0.0213658562249692 0.00778401079676225 -0.0441231927614852 0.0689898612410775 0.0212897516107383 -0.00102535541065195 -0.0891904941157271 0.0190516074658724 0.0174816926871761 0.0175773376753312 -0.00858876567021777 0.0192205288562431 0.0258310887768229 0.0155857621961662 0.0202517978011089 -0.0176436721026 0.0119198852039205 0.0484806961465727 -0.0105060363064343 0.0195437163565413 -0.0132200914004268 -0.0175161454517266 0.0116674030040057 -0.0365597825019193 -0.00766445456156838 0.0394556144954431 0.0264620371664267 0.0641747017298714 -0.00334757458542839 -0.0296810566602487 -0.0670736190455938 0.0149758968415858 -0.0237711219889233 -0.00959689469859447 0.00621615289953166 -0.00346430260860692 0.0234633610996178 -0.033949857032128 0.00415901432364744 0.0081128547210912 0.00978767045453824 0.00219057876097157 0.0189395074259917 0.0298250383628478 -0.0391781926077567 -0.024676406944015 0.011567387142736 -0.00616653063417162 -0.003950497965062 0.0101262845658293 -0.037526773900982 0.0187423039154676 -0.0327023584231803 -0.00463595371350686 0.0208264390605891 0.038051535784919 0.016022078177078 -0.00772770366663868 0.0369001963844929 0.0231103488180669