10.407430 0.000000 0.000000 0.000000 6.219827 0.000000 0.000000 0.000000 4.947680