10.382865 6.166334 4.963580 5.268265 6.152874 2.584360 10.386965 3.149024 4.923080 3.022705 4.599794 4.983850 2.259485 1.548714 2.496400 7.328765 1.604674 -0.036292 8.166995 4.579114 2.427120 1.158725 4.658304 2.141560 4.039785 1.594854 4.748260 9.246575 1.527674 2.786770 6.484735 4.659794 0.263526 1.099905 4.703934 3.676060 3.876855 1.553944 1.226840 9.055865 1.594924 1.283780 6.534325 4.705184 3.641730 4.889295 4.693504 0.794295 0.335832 1.551994 3.124720 5.628695 1.650704 4.317420 10.021165 4.641504 1.731450 1.958215 5.877694 1.531360 3.500705 0.350488 3.810870 8.528335 2.735144 3.577610 7.106135 3.416084 0.833516 8.567155 0.378636 3.419750 6.970015 5.958984 0.807297 1.763455 3.425344 1.340740 3.210065 2.806354 4.092420