-0.201983960160556 0.441956721221328 -0.0544502803804035 0.0113442155037075 0.194961252616287 -0.53808713340233 -0.258368994669635 -0.340631654898698 -0.0899093741879896 1.12527588404369 0.404009057950427 -0.197084468509257 0.246011507933886 0.11630610536788 0.0710670544112523 1.62191094237793 -0.179867342200606 0.451347156442803 -0.459194159234452 -0.0614213087778474 0.979243213513134 -1.11704141620594 -0.0444530651265469 0.143135295875935 1.72415234939353 0.0689739204097183 -7.12030039917278 -0.135307833458209 3.2214620405626 -0.859154503129829 -6.14006088369969 -0.273101151057535 -2.813415324295 1.16752680045102 -0.355842036227373 0.15399357313337 -0.35813545906163 -0.52716766392129 4.79143724015194 0.267649643842878 0.00897391672467028 -1.39950934834809 0.427557008300322 -0.457902437673992 0.641640316572681 1.32954143997008 -0.38072181732631 -1.36674116971801 1.341393962306 0.0565277306607615 0.6744370344331 -3.87611496061785 0.0540540735880728 -0.182959606374105 0.620534912963306 0.438390860090352 -0.65751121396203 -0.913085678050327 -0.597625367198328 -0.240210845090426 -0.388930574145739 1.0117298564926 2.00845553402346 0.80615149597073 0.114224027104224 -1.03064288156972 1.51851279664806 -0.594813610234715 1.6314654138963 -1.45695341970183 -3.73018539127076 1.7009083032802 2.29895738806046 1.98471166571396 2.0985034906002 0.0752823758650233 0.464801218109953 1.3922956079377 0.723374358265059 -1.03734960069882 -0.187952943242277