0.333833177334344 1.73713192277572 4.33383430216082 1.73713192277572 11.786110260858 -2.99450359069968 4.33383430216082 -2.99450359069968 13.4692691549629