5.2031808199 0.0000004720 2.4734653786 -0.0000192646 3.1093651518 -0.0000002188 2.9456349422 4.6878373787 4.9232510599 2.2575231973 1.5784476433 2.4497887834 7.4607256494 1.5308930499 0.0236770605 8.1488375395 4.6402833105 2.4971430308 1.1319245199 4.6939583410 2.2115297593 4.0712354740 1.5846084136 4.6849747667 9.2744368376 1.5247703680 2.7354133877 6.3351281780 4.6341239469 0.2619380925 1.3058461116 4.6503486842 3.7423775111 3.8973111965 1.5409774046 1.2689253890 9.1005144425 1.5683822571 1.2045439690 6.5090492682 4.6777527801 3.6780159720 4.8276721187 4.6683743492 0.6432163281 0.3754877424 1.5590055147 3.1166823268 5.5786866871 1.5503564872 4.3037150829 10.0308730202 4.6597249449 1.8302468168 1.8891151195 5.8944163063 1.5399588088 3.3725232563 0.3510167851 3.9661891660 8.5757303775 2.7583641122 3.4541998593 7.0923084261 3.4336659047 0.9334985048 8.5172483471 0.3243169401 3.4069692853 7.0338391507 5.8677156664 0.9807422673 1.8306320027 3.4603648249 1.4927289956 3.3140548396 2.7850619623 4.0134336165