0 0 0 0 0 0 0.0092757640797619 0.00354632075705175 0.000115699582445682 -0.0091230406309336 0.00361754027780165 0.000208002138219014 -0.0092757640797619 -0.00354632075705175 -0.000115699582445682 0.0091230406309336 -0.00361754027780165 -0.000208002138219014 0.0255703790510453 0.000354554942650211 -0.0072047415539842 -0.0224989408023873 0.00034658452697062 -0.00838307752364767 -0.0255703790510453 -0.000354554942650211 0.0072047415539842 0.0224989408023873 -0.00034658452697062 0.00838307752364767 -0.00135728465717945 -0.0003319292465275 0.0114226341095873 0.00149689548666391 -0.000326787042863247 0.0121672252001711 0.00135728465717945 0.0003319292465275 -0.0114226341095873 -0.00149689548666391 0.000326787042863247 -0.0121672252001711 -0.0166337433029408 0.000447114608606756 -0.00340259616463589 0.0200165419834693 0.000452771032637434 -0.00278424617400953 0.0166337433029408 -0.000447114608606756 0.00340259616463589 -0.0200165419834693 -0.000452771032637434 0.00278424617400953 -0.00750041826467872 -0.00352318084056261 0.000589296539923338 0.0090883307561999 0.000386179495185364 0.00187304768470398 0.00877079967993231 -0.000228828063059237 -0.00210110441721358 -0.00763128734793395 0.00351469620451659 -0.000355840493566274 0.00750041826467872 0.00352318084056261 -0.000589296539923338 -0.0090883307561999 -0.000386179495185364 -0.00187304768470398 -0.00877079967993231 0.000228828063059237 0.00210110441721358 0.00763128734793395 -0.00351469620451659 0.000355840493566274