-4.1320848204604 0 0.00199810677971973 0 -3.13902575093969 0.615416888153676 0.00199810677971973 0.615416888153676 0.36565354068871