5.7535932144 1.2189094418 2.2366700081 2.8851978422 4.6714216066 4.9055068407 2.1903313148 1.5650012638 2.4267176527 7.5915800001 1.6002986528 0.0080847624 8.1326031895 4.6588730713 2.5408403498 1.0968040065 4.6728197793 2.1961266629 4.0299958108 1.5776665677 4.6608875084 9.2824985442 1.5576461357 2.7546220772 6.2900767303 4.664635302 0.3162143814 1.3681483685 4.679268103 3.7147112361 3.7757449393 1.5616879942 1.2367117443 9.0671884353 1.5603948386 1.2297369671 6.5734792505 4.6834068491 3.7469707742 4.7677888607 4.6797226076 0.5936530254 0.3752508063 1.5521887521 3.1023227788 5.5773366606 1.5721345809 4.4360455308 9.9755550579 4.6736638138 1.933681387 1.8179663197 5.8833265076 1.478757928 3.3529523641 0.3635345708 3.9227725739 8.5174871088 2.7662453863 3.4429282043 7.0085102666 3.4441912962 1.034068324 8.4962386073 0.3664295835 3.4409866404 7.0081682503 5.8802269556 1.0449209946 1.812546039 3.4551718521 1.4861207966 3.3324580122 2.7884512299 3.9465658507