0.0298468927284209 -0.101288813786797 -0.00285392303366015 -0.0712074365712864 0.00691112172475538 -0.0379484346014507 -0.00756469581048188 0.00463569660332364 0.00140587848180664 0.0893910400586329 0.0204266327256935 0.0587159954300842 0.0186916532093747 0.012420992951002 0.00377283482846207 0.0022013773886665 0.00396875278807009 -0.0402529131735855 0.0765337311267191 0.00937115195773379 -0.013581845428207 -0.102202583377935 0.0117512209237331 0.0018979873724756 0.0204472015403505 -0.0165280710176404 0.0421197902138924 0.0218816192524937 0.00739166065717978 0.0173577655788676 -0.0239207601155531 0.00664706956659602 0.0493188753438459 -0.00332803421150423 0.0106309918554757 -0.00226282672245432 -0.00681264852458495 -0.00390216125061802 -0.0155901330692808 -0.0278679156482333 0.0175955924983393 0.0237603233612284 0.0831517472426121 -0.00339334019804024 -0.0362409658747357 -0.0889197570928042 0.00201317273455486 -0.0210084730703037 -0.0132517159529619 0.00405359914853026 -0.00607988450242896 0.0181342383321697 -0.0401277005143609 0.00392298717545825 -0.00561580062173017 -0.00476039504218177 0.00411993357579912 0.0235998866069037 0.0307174678087788 -0.0487655742295723 -0.0413880546324692 0.00164293407072868 0.0203944939527919 0.00510080892475528 -0.00201265851418844 -0.0466171615386476 -0.00159742556830004 -0.0456434852748214 0.024811904010568 0.0151461037828726 0.0412031924107394 0.00880576666484922 -0.0104494720661275 0.0262751180632311 0.0107973421440142