10.228564936 -0.009850687 0.035171223 -0.005886671 6.122755350 0.068534626 0.016719538 0.054518459 5.033443351
8.508569141 0.329772744 0.157540058 0.197068868 9.370498327 -0.241668487 0.074890683 -0.192244334 5.441051341
8.554322692 0.344791035 0.250736066 0.206043647 9.297645555 -0.130949413 0.119193781 -0.104168661 5.551776461
9.901273315 -0.068512865 0.066631233 -0.040942598 6.265855750 0.047029198 0.031674855 0.037411154 5.154437872
8.726502367 0.291599143 -0.226846333 0.174256709 9.241553388 -0.132911068 -0.107837187 -0.105729134 5.198332383
10.024910550 -0.048115902 0.080892843 -0.028753578 6.184202822 0.074365206 0.038454475 0.059156614 5.140638999
8.825565006 0.356954618 0.052778414 0.213312482 9.293475480 -0.173550277 0.025089564 -0.138057129 5.351962226
8.492269574 0.183959630 -0.146975948 0.109932421 9.065829165 0.031272365 -0.069868764 0.024876785 5.311146509
9.295230396 0.181188752 0.251289375 0.108276572 8.854379744 0.149196260 0.119456811 0.118683805 5.341886231
9.505977927 0.052709622 -0.046354740 0.031498739 7.665379897 0.045457697 -0.022035907 0.036161044 5.205479022
9.935184221 -0.064426762 0.077292063 -0.038500784 6.237002166 0.057210075 0.036742753 0.045509917 5.153243787
8.847185046 0.358593506 0.057523323 0.214291865 9.286744194 -0.146181916 0.027345178 -0.116285931 5.352750768
9.090632835 0.319392651 0.286457512 0.190865829 9.124710238 -0.045984246 0.136174881 -0.036579907 5.298550228
10.405943878 -0.000009594 -0.000052972 -0.000005733 6.218417321 0.000055802 -0.000025182 0.000044390 4.946798688
8.757576050 0.348792897 0.045106012 0.208435120 9.326376553 -0.292384797 0.021442293 -0.232588539 5.339656733
8.884113762 0.359873073 0.065906311 0.215056521 9.275359816 -0.112930255 0.031330245 -0.089834640 5.352385997
8.688294215 0.453548637 0.132557436 0.271036094 9.325896039 0.053659118 0.063014557 0.042685174 5.468550400
9.694822294 -0.060283367 -0.022388755 -0.036024733 6.574572488 -0.064977377 -0.010643065 -0.051688711 5.150995246
9.279153884 0.184791706 0.283863389 0.110429661 8.864395893 0.144707641 0.134941699 0.115113163 5.351630115
9.417890391 0.169916434 -0.019309977 0.101540349 8.438918236 0.148223421 -0.009179490 0.117909923 5.269849188
9.434877067 0.161138865 -0.000255385 0.096294961 8.313775839 0.141264883 -0.000121404 0.112374491 5.258909415
8.728473871 0.286242442 -0.235331039 0.171055599 9.176081355 -0.147593976 -0.111870609 -0.117409207 5.146741713
10.221475315 -0.011580433 0.036981642 -0.006920350 6.122784353 0.070113386 0.017580166 0.055774344 5.037925893
9.851687202 -0.069799437 0.043933571 -0.041711440 6.317735132 0.026506961 0.020884943 0.021085964 5.156509253
8.709001446 0.347748138 0.053651106 0.207810782 9.366934291 -0.384020346 0.025504421 -0.305483501 5.387697006
8.744455239 0.347836047 0.044180042 0.207863316 9.337235328 -0.325250921 0.021002109 -0.258733140 5.342760735
8.552618871 0.329907565 0.101245807 0.197149436 9.392663538 -0.338641262 0.048129775 -0.269384994 5.449439223
8.519213134 0.332485454 0.194711028 0.198689956 9.360520133 -0.211030785 0.092560851 -0.167872415 5.475553510
9.699557267 -0.061116393 -0.020381439 -0.036522540 6.564691611 -0.062004998 -0.009688837 -0.049324220 5.149863699
8.438624857 -0.050943168 0.190067248 -0.030443124 8.823946304 0.134238545 0.090353312 0.106785125 5.363306840
8.545208285 0.289254240 -0.252038617 0.172855419 9.133944438 -0.011995545 -0.119812982 -0.009542310 5.187583783
8.567607651 0.310179794 -0.267750204 0.185360319 9.136987297 -0.034226927 -0.127281885 -0.027227103 5.154358971
8.659852295 0.347118132 0.079241132 0.207434297 9.397362362 -0.404423978 0.037669292 -0.321714342 5.455352295
9.544467620 -0.005105435 -0.003489558 -0.003050957 6.886431267 -0.090221695 -0.001658850 -0.071770258 5.186665253
10.390855199 0.002926395 -0.003928973 0.001748784 6.207515617 0.007637060 -0.001867738 0.006075188 4.942090025
8.470870222 0.102953904 -0.028339442 0.061524215 8.998716450 0.053691263 -0.013471876 0.042710745 5.346429402
9.080605827 0.328535769 0.267862114 0.196329665 9.143000926 -0.053711112 0.127335085 -0.042726534 5.300409997
9.443415643 0.155549110 0.002739318 0.092954580 8.248689927 0.135094472 0.001302205 0.107466005 5.253900948
9.477269082 0.119786524 -0.025140228 0.071583219 8.031699201 0.108536558 -0.011951048 0.086339508 5.218076225
9.456409623 0.147986149 -0.004930774 0.088435031 8.163435244 0.125694879 -0.002343969 0.099988743 5.245319871
10.249329368 -0.004812190 0.029619782 -0.002875716 6.124629169 0.063326463 0.014080518 0.050375429 5.020114717
8.705530475 0.445233709 0.101883983 0.266067177 9.351228735 0.044907692 0.048433149 0.035723521 5.464786848
8.458261210 0.053393227 0.043562611 0.031907254 8.946455662 0.069004217 0.020708598 0.054892013 5.345037983
8.443206488 -0.002987134 0.123859924 -0.001785081 8.878151626 0.090536044 0.058879973 0.072020319 5.341523187
8.699024997 0.302801933 -0.241966818 0.180951383 9.116060208 -0.142080567 -0.115025095 -0.113023358 5.102645308
9.502998220 0.021713247 0.007345848 0.012975618 6.997383129 -0.076234227 0.003492036 -0.060643397 5.186737610
9.723013438 -0.064652222 -0.009649761 -0.038635516 6.515829846 -0.046893544 -0.004587260 -0.037303242 5.147026846
9.471212551 0.038187044 0.015661103 0.022820193 7.243457968 -0.047419651 0.007444905 -0.037721754 5.168144031
8.532893881 0.333694100 0.223895104 0.199412231 9.348641660 -0.183603893 0.106434246 -0.146054657 5.510073881
8.448870795 0.019439704 0.091567975 0.011616971 8.905182706 0.080578387 0.043529171 0.064099124 5.341540723
10.405053947 0.000015777 -0.000213720 0.000009428 6.217721820 0.000259067 -0.000101597 0.000206084 4.946510278
8.728235102 0.289574105 -0.229646062 0.173046567 9.224532663 -0.137732675 -0.109168110 -0.109564663 5.185082794
9.473094570 0.034451470 0.021753975 0.020587851 7.148759319 -0.059354336 0.010341307 -0.047215651 5.172506318
10.120297638 -0.032190599 0.062239748 -0.019236777 6.146572152 0.081241414 0.029587251 0.064626554 5.099588834
8.445327023 -0.071424914 0.204603417 -0.042682809 8.789317128 0.170627766 0.097263450 0.135732307 5.395542644
8.594009036 0.435170250 0.252755423 0.260053355 9.196393869 0.030788401 0.120153734 0.024491798 5.431019624
8.879578161 0.359770824 0.064835431 0.214995419 9.276772171 -0.116133021 0.030821175 -0.092382402 5.352493503
9.403934967 0.171294164 -0.028418990 0.102363666 8.524150978 0.148487792 -0.013509691 0.118120227 5.274126549
8.929147057 0.360726034 0.080565227 0.215566243 9.261243652 -0.090305176 0.038298735 -0.071836666 5.349106341
8.777368778 0.351038878 0.046316561 0.209777296 9.313682759 -0.250823405 0.022017758 -0.199526959 5.342795773
10.336014197 0.007789353 0.002488207 0.004654839 6.164985198 0.034413654 0.001182833 0.027375642 4.961415521
9.484355441 0.103155663 -0.032954630 0.061644784 7.981956079 0.101359339 -0.015665824 0.080630118 5.211010181
9.318544973 0.176646544 0.194096629 0.105562194 8.836810348 0.152213824 0.092268781 0.121084240 5.322681463
9.309117470 0.178518719 0.219145986 0.106680987 8.844598749 0.151511878 0.104176631 0.120525851 5.330955835
8.585186068 0.319979482 -0.273953536 0.191216514 9.136987497 -0.048769078 -0.130230798 -0.038795207 5.137318248
8.729568460 0.287508227 -0.232338380 0.171812019 9.202198796 -0.142998924 -0.110447972 -0.113753900 5.167299294
9.320703133 0.176194574 0.187903601 0.105292102 8.834853901 0.152267813 0.089324767 0.121127188 5.320792141
9.187276504 0.239741003 0.383184049 0.143266807 8.951496756 0.071936838 0.182156307 0.057224877 5.352239496
8.577271550 0.331299848 0.094297794 0.197981450 9.398862722 -0.356660797 0.044826860 -0.283719314 5.469332773
8.729630608 0.287119650 -0.232937932 0.171579809 9.196777427 -0.144095254 -0.110732984 -0.114626017 5.162974477
9.110275815 0.299191093 0.326664680 0.178793582 9.080867813 -0.022556063 0.155288383 -0.017943073 5.301377865
9.285797340 0.183189900 0.270866622 0.109472438 8.860339383 0.146803312 0.128763354 0.116780244 5.347996289
8.725992000 0.342353309 -0.111965077 0.204586887 9.361546592 -0.068070877 -0.053225454 -0.054149552 5.310675830
8.544059461 0.335805242 0.239132174 0.200673828 9.329893392 -0.159504700 0.113677575 -0.126884044 5.535157266
8.573348438 0.415274185 0.265019108 0.248163668 9.195056732 -0.001506176 0.125983589 -0.001198145 5.463502206
9.491890352 0.043192499 -0.028019438 0.025811402 7.500433162 0.006025131 -0.013319754 0.004792918 5.190877738
10.077071567 -0.039257417 0.072235236 -0.023459837 6.162467055 0.079903484 0.034338861 0.063562247 5.121847947
9.480187912 0.031452461 0.018503394 0.018795674 7.090317737 -0.065865271 0.008796060 -0.052395020 5.178528134
8.563136327 0.330185996 0.098044641 0.197315823 9.395063889 -0.346471967 0.046608020 -0.275614224 5.458422871
8.444292292 -0.069474438 0.203818857 -0.041517224 8.793711084 0.166689499 0.096890490 0.132599464 5.391329442
9.479576290 0.041787284 -0.008049023 0.024971660 7.371960686 -0.024678636 -0.003826308 -0.019631554 5.177061467
8.688224604 0.312178605 -0.244035011 0.186554788 9.112774670 -0.132433182 -0.116008264 -0.105348981 5.097039465
8.728987290 0.286347661 -0.234723763 0.171118476 9.181102402 -0.146848511 -0.111581925 -0.116816200 5.150619697
9.172751170 0.250526037 0.381645799 0.149711835 8.971685280 0.055698344 0.181425060 0.044307353 5.344842460
10.398528960 0.001083288 -0.001950821 0.000647362 6.212929048 0.003046994 -0.000927372 0.002423846 4.944094654
8.512245076 0.329537896 0.121413090 0.196928525 9.382979005 -0.287237672 0.057716808 -0.228494064 5.418766784
8.504522197 0.217056036 -0.187140805 0.129710500 9.091807352 0.022742875 -0.088962153 0.018091680 5.281936461
10.373514389 0.005944326 -0.004861687 0.003552269 6.194277047 0.017618194 -0.002311127 0.014015058 4.943099715
9.888398960 -0.069350048 0.061260696 -0.041442890 6.278301854 0.042334668 0.029121834 0.033676712 5.154913138
9.289021752 0.182475713 0.264337381 0.109045647 8.858339875 0.147696323 0.125659513 0.117490623 5.346033829
8.666790276 0.347407423 0.075919729 0.207607175 9.393727102 -0.403735523 0.036090379 -0.321166684 5.446978396
8.616348798 0.339729596 0.089378067 0.203018983 9.408714523 -0.387669263 0.042488143 -0.308386171 5.486918059
8.726329275 0.350588584 -0.093722109 0.209508205 9.368497762 -0.058707792 -0.044553194 -0.046701332 5.326462996
9.301076722 0.180049038 0.238325543 0.107595490 8.850453439 0.150348177 0.113294122 0.119600141 5.337544794
8.558788758 0.352909632 0.257516954 0.210895239 9.277410520 -0.113868841 0.122417249 -0.090581275 5.553824207
9.816664347 -0.068962037 0.027935406 -0.041211018 6.360502865 0.008790110 0.013279807 0.006992425 5.156692335
8.588541302 0.431241671 0.256342733 0.257705676 9.193962553 0.024213358 0.121859053 0.019261431 5.436485692
8.836246025 0.357879985 0.055058769 0.213865472 9.290099613 -0.159364615 0.026173590 -0.126772608 5.352553831
9.378778437 0.171369821 -0.002301054 0.102408878 8.689071732 0.147475373 -0.001093865 0.117314861 5.280970725
9.261834985 0.190131997 0.315282559 0.113620965 8.875172241 0.137441832 0.149877602 0.109333301 5.358599389
8.523079899 0.330135547 0.112532580 0.197285676 9.386929563 -0.308913488 0.053495231 -0.245736912 5.423642488
9.410993626 0.171125188 -0.025234161 0.102262688 8.482409963 0.148703668 -0.011995702 0.118291954 5.272604939
8.583494825 0.426976809 0.259357084 0.255157038 9.192823052 0.017230982 0.123292002 0.013707036 5.443138373
9.526103938 0.007656424 0.000760927 0.004575402 6.932717647 -0.084264342 0.000361726 -0.067031256 5.187786323
8.690399880 0.310327530 -0.243428116 0.185448604 9.112928597 -0.134593391 -0.115719761 -0.107067401 5.097943083
8.459589331 0.058263316 0.036661269 0.034817571 8.952142677 0.067472820 0.017427869 0.053673805 5.345578983
9.101781789 0.308048747 0.309275803 0.184086826 9.100695068 -0.033922122 0.147022138 -0.026984634 5.298621076
10.242477930 -0.006455917 0.031500321 -0.003857991 6.123678899 0.065137290 0.014974481 0.051815920 5.024547902
9.476005253 0.122523853 -0.023861796 0.073219020 8.040430878 0.109769982 -0.011343313 0.087320682 5.219856847
8.653196476 0.346704680 0.082125716 0.207187222 9.400537472 -0.404376787 0.039040553 -0.321676802 5.462818688
8.783845706 0.351864131 0.046783253 0.210270458 9.310222596 -0.238954245 0.022239612 -0.190085187 5.344351788
10.325902223 0.007468421 0.005502447 0.004463053 6.157829322 0.038316899 0.002615728 0.030480626 4.968125783
9.508653291 0.061727477 -0.056943827 0.036887718 7.761558833 0.065871699 -0.027069700 0.052400133 5.215050715
8.569231052 0.407917300 0.267577953 0.243767267 9.199250568 -0.013297644 0.127200001 -0.010578113 5.477161495
8.585958612 0.429147777 0.257915932 0.256454387 9.193234907 0.020768082 0.122606914 0.016520756 5.439677110
9.473319493 0.039814529 0.008017629 0.023792761 7.290472035 -0.040185883 0.003811384 -0.031967379 5.169741116
8.454152799 0.038582056 0.064476344 0.023056248 8.928668849 0.073791986 0.030650474 0.058700625 5.343312908
9.095237509 0.314825436 0.295669566 0.188136508 9.115231313 -0.041462395 0.140554066 -0.032982829 5.298191577
9.508220511 0.063539162 -0.058103649 0.037970363 7.781180834 0.069684320 -0.027621051 0.055433027 5.216431559
10.405561079 -0.000005151 -0.000118022 -0.000003078 6.218116636 0.000134728 -0.000056105 0.000107174 4.946679241
9.366963077 0.171734153 0.036981360 0.102626599 8.755108605 0.148227285 0.017580032 0.117912997 5.293263531
9.041805217 0.353905522 0.205931604 0.211490373 9.194126455 -0.066997363 0.097894838 -0.053295585 5.311671484
8.525292499 0.333245284 0.209142170 0.199144023 9.355948007 -0.198704693 0.099421063 -0.158067159 5.491301468
9.254807095 0.192936456 0.327039771 0.115296882 8.879899944 0.133654380 0.155466692 0.106320429 5.360458171
8.596865966 0.436993836 0.250721773 0.261143112 9.198103863 0.033897786 0.119186987 0.026965276 5.428794054
9.661736672 -0.053816394 -0.032020569 -0.032160135 6.641372220 -0.083515390 -0.015221794 -0.066435474 5.161943979
8.725334382 0.334278578 -0.130353304 0.199761509 9.353465088 -0.076750452 -0.061966766 -0.061054048 5.295828013
10.111641190 -0.033630335 0.064353541 -0.020097149 6.149625261 0.081239905 0.030592096 0.064625354 5.104421705
9.083223657 0.326259937 0.272526123 0.194969650 9.138522240 -0.051950557 0.129552240 -0.041326034 5.299829868
10.033608689 -0.046572972 0.079827283 -0.027831539 6.180304077 0.075531365 0.037947934 0.060084280 5.138164169
8.726117112 0.365191467 -0.062812367 0.218234740 9.377949227 -0.040833689 -0.029859460 -0.032482701 5.354869029
8.724365465 0.393881563 -0.005667590 0.235379652 9.386267927 -0.004912062 -0.002694233 -0.003907485 5.405298043
9.414475894 0.170672133 -0.022559567 0.101991947 8.460911014 0.148577971 -0.010724265 0.118191964 5.271381750
8.518827699 0.330010454 0.115080338 0.197210921 9.385780192 -0.302005658 0.054706373 -0.240241817 5.420848163
8.563452889 0.370015777 0.268374544 0.221117699 9.244082148 -0.080856967 0.127578681 -0.064320731 5.542254186
8.722206276 0.287681340 -0.238855968 0.171915469 9.149018816 -0.150145714 -0.113546274 -0.119439084 5.126859943
9.332557994 0.173660252 0.150854314 0.103777616 8.822666749 0.151866844 0.071712444 0.120808222 5.311539623
8.442255787 -0.007263700 0.130108798 -0.004340714 8.873159496 0.092861797 0.061850534 0.073870427 5.341942391
9.548272938 -0.007739572 -0.004482430 -0.004625091 6.877123485 -0.091376273 -0.002130837 -0.072688711 5.186364225
8.698705287 0.449677769 0.115517443 0.268722903 9.340853690 0.049014329 0.054914162 0.038990301 5.467765556
9.480618414 0.041950565 -0.010267466 0.025069235 7.383481923 -0.022176386 -0.004880902 -0.017641044 5.178347764
9.463788809 0.141803066 -0.011905654 0.084740083 8.119158512 0.120292150 -0.005659656 0.095690938 5.237484981
8.721987922 0.307301181 -0.193865587 0.183640088 9.309802268 -0.106056684 -0.092158949 -0.084366798 5.248765670
8.509343271 0.330038959 0.161732297 0.197227955 9.369314429 -0.237961852 0.076883571 -0.189295751 5.444583296
8.656484869 0.346928777 0.080743595 0.207321140 9.399010970 -0.404492084 0.038383526 -0.321768519 5.459204807
8.564819150 0.391188856 0.271511824 0.233770518 9.214496857 -0.041386771 0.129070068 -0.032922671 5.508703021
9.508698438 0.059842040 -0.055208599 0.035761000 7.741310928 0.061789597 -0.026244815 0.049152871 5.213272634
8.455528619 0.043518515 0.057512164 0.026006226 8.934661292 0.072167835 0.027339873 0.057408632 5.343882362
9.394099122 0.170669342 -0.026969528 0.101990279 8.582308765 0.147775182 -0.012820653 0.117553355 5.274820055
8.568190156 0.405463550 0.268329624 0.242300931 9.201020664 -0.017279643 0.127557328 -0.013745745 5.481793390
9.471641786 0.035445491 0.021602368 0.021181868 7.172362384 -0.056605614 0.010269236 -0.045029076 5.170577605
9.580476391 -0.027464338 -0.015537653 -0.016412411 6.802325988 -0.098634800 -0.007386219 -0.078462781 5.183279998
8.624032346 0.341892126 0.089050286 0.204311289 9.408780313 -0.393500567 0.042332323 -0.313024901 5.485409513
9.106021129 0.303594905 0.318112642 0.181425255 9.090836731 -0.028420191 0.151222954 -0.022607915 5.299665980
8.964378546 0.361954760 0.101741285 0.216300516 9.248940342 -0.079842064 0.048365314 -0.063513388 5.341893402
9.494228286 0.043783416 -0.030704560 0.026164528 7.524486870 0.012045886 -0.014596195 0.009582356 5.193046814
9.356198762 0.171206644 0.072321635 0.102311365 8.786003656 0.149139676 0.034379933 0.118638793 5.300019303
9.190850906 0.237001730 0.383016028 0.141629845 8.946665817 0.075887251 0.182076433 0.060367382 5.353785395
9.221668323 0.212841232 0.369632929 0.127191775 8.908743292 0.108086994 0.175714436 0.085981886 5.362118913
9.347297851 0.171473602 0.101479799 0.102470897 8.802726384 0.150215177 0.048241010 0.119494341 5.303979188
8.829109004 0.357287382 0.053513345 0.213511338 9.292337298 -0.168712516 0.025438933 -0.134208748 5.352215774
8.913570555 0.360410602 0.074372449 0.215377743 9.266169660 -0.096592724 0.035354840 -0.076838334 5.350818825
9.314002609 0.177567593 0.206555094 0.106112604 8.840706791 0.151968736 0.098191230 0.120889276 5.326698510
8.563673270 0.372013175 0.269221712 0.222311324 9.240780761 -0.077013655 0.127981404 -0.061263423 5.539791154
8.771210416 0.350282552 0.045940070 0.209325323 9.317257896 -0.262786761 0.021838784 -0.209043663 5.341431490
9.942364284 -0.063273368 0.078804902 -0.037811527 6.231640530 0.059006759 0.037461919 0.046939157 5.152884654
8.456912675 0.048501539 0.050477977 0.028984031 8.940651290 0.070559668 0.023995993 0.056129356 5.344469102
9.799618085 -0.068576700 0.021005327 -0.040980745 6.383524591 -0.000504804 0.009985418 -0.000401565 5.155644837
8.659313722 0.455270679 0.173863151 0.272065169 9.283063953 0.061004360 0.082650281 0.048528224 5.454025497
8.804427522 0.354536550 0.049062937 0.211867469 9.300967244 -0.204716259 0.023323318 -0.162849287 5.349034637
9.311605517 0.178038443 0.212831889 0.106393979 8.842652401 0.151769038 0.101175064 0.120730419 5.328803680
8.893539591 0.360060647 0.068277366 0.215168614 9.272421497 -0.106926239 0.032457386 -0.085058519 5.352068884
9.054235852 0.347412645 0.225373420 0.207610295 9.179911519 -0.064498832 0.107137001 -0.051308034 5.307632281
9.637185750 -0.048166893 -0.032422070 -0.028784050 6.688443530 -0.093266448 -0.015412657 -0.074192322 5.170534797
8.723150976 0.317237281 -0.170310931 0.189577802 9.330373537 -0.094526525 -0.080961643 -0.075194697 5.266586715
9.437728817 0.159199049 0.001618307 0.095135747 8.291498584 0.139282546 0.000769303 0.110797566 5.257117359
8.721908853 0.305593136 -0.197871204 0.182619378 9.305280166 -0.108288907 -0.094063121 -0.086142504 5.245284904
8.467268459 0.087979741 -0.006145822 0.052575807 8.984306585 0.058282522 -0.002921573 0.046363036 5.347323473
8.843495905 0.358377548 0.056685802 0.214162811 9.287870779 -0.150463000 0.026947041 -0.119691482 5.352715996
8.620980292 0.447976292 0.228002783 0.267706117 9.222656380 0.053253975 0.108386936 0.042362888 5.424880357
10.094093056 -0.036495925 0.068494254 -0.021809597 6.156016886 0.080824392 0.032560490 0.064294818 5.113696086
9.685299540 -0.058527316 -0.026064998 -0.034975334 6.594268275 -0.070782485 -0.012390661 -0.056306604 5.153714236
8.444225140 0.001358093 0.117539583 0.000811583 8.883287466 0.088343271 0.055875437 0.070275994 5.341262135
8.564339331 0.384502292 0.271849420 0.229774695 9.222580093 -0.053415450 0.129230552 -0.042491339 5.520673896
9.359538719 0.171302121 0.061467283 0.102368421 8.778107202 0.148801099 0.029220040 0.118369459 5.298273790
9.783063391 -0.068246942 0.014697619 -0.040783685 6.407726193 -0.009896601 0.006986888 -0.007872625 5.153840658
8.949697635 0.361343787 0.091459262 0.215935405 9.254389363 -0.083683141 0.043477492 -0.066568918 5.345529157
8.903391790 0.360234593 0.071058613 0.215272562 9.269349470 -0.101476616 0.033779523 -0.080723410 5.351567167
9.470899306 0.036389967 0.020515438 0.021746277 7.196055053 -0.053723871 0.009752536 -0.042736684 5.169143208
9.474048665 0.040176078 0.005829679 0.024008819 7.302113877 -0.038211022 0.002771286 -0.030396402 5.170495017
9.482161716 0.030718067 0.017396726 0.018356807 7.079168577 -0.067085936 0.008269977 -0.053366044 5.179733270
9.506047477 0.020089398 0.006248330 0.012005222 6.988054293 -0.077339585 0.002970303 -0.061522696 5.187158988
8.647250820 0.330182424 -0.263652480 0.197313689 9.126225695 -0.093621988 -0.125333928 -0.074475149 5.100405562
8.564083543 0.378132029 0.271089723 0.225967889 9.231346457 -0.065315407 0.128869411 -0.051957610 5.531119890
8.679827592 0.455067785 0.144863516 0.271943922 9.313870641 0.056578484 0.068864566 0.045007494 5.466566484
8.870867160 0.359544173 0.062852073 0.214859974 9.279477120 -0.122923234 0.029878335 -0.097783934 5.352638197
9.007757233 0.362689841 0.150625972 0.216739794 9.225831059 -0.071748753 0.071603896 -0.057075258 5.325695652
8.611143717 0.338221875 0.089541063 0.202117984 9.408070409 -0.383367244 0.042565627 -0.304963967 5.486586372
9.004448760 0.362887687 0.145694920 0.216858025 9.228212582 -0.072225388 0.069259795 -0.057454415 5.327167313
8.986435184 0.362894369 0.122462492 0.216862017 9.239063083 -0.075179969 0.058215667 -0.059804748 5.334635130
8.728701784 0.288991932 -0.230387770 0.172698666 9.218922698 -0.139168744 -0.109520700 -0.110707039 5.180642082
8.673930495 0.347600111 0.072265991 0.207722323 9.389701116 -0.402308820 0.034353481 -0.320031759 5.437820505
8.699064120 0.347795989 0.058737208 0.207839378 9.373844530 -0.391447948 0.027922229 -0.311392068 5.402461108
8.518304559 0.246862313 -0.217193048 0.147522430 9.113269008 0.012931459 -0.103248253 0.010286818 5.247576532
9.395620267 0.170780219 -0.027726804 0.102056538 8.573043807 0.147887630 -0.013180643 0.117642806 5.274754996
8.575059186 0.417696054 0.264051531 0.249610952 9.194088560 0.002352604 0.125523627 0.001871468 5.459116010
10.235529802 -0.008146702 0.033355898 -0.004868387 6.123051172 0.066882332 0.015856577 0.053204079 5.029007383
9.345470356 0.171632307 0.107558166 0.102565737 8.805609153 0.150448884 0.051130516 0.119680252 5.304763959
9.593638548 -0.033715355 -0.020725990 -0.020147956 6.774143780 -0.099653836 -0.009852628 -0.079273411 5.181371066
8.555729986 0.300578964 -0.260618892 0.179622960 9.136148569 -0.022856225 -0.123891834 -0.018181848 5.169950923
8.635929412 0.451956030 0.208430932 0.270084368 9.244910457 0.059512450 0.099082957 0.047341428 5.433615221
8.545848036 0.329912454 0.103464311 0.197152357 9.391302022 -0.333225270 0.049184398 -0.265076638 5.443383462
9.228197887 0.208067596 0.363498735 0.124339099 8.901978983 0.114117958 0.172798390 0.090779444 5.362702983
8.605351870 0.326986719 -0.275481854 0.195403968 9.135620969 -0.063351649 -0.130957322 -0.050395464 5.122661637
8.800928934 0.354088903 0.048579184 0.211599960 9.302375550 -0.210236523 0.023093354 -0.167240590 5.348328108
8.523158346 0.255930116 -0.225283361 0.152941258 9.118990711 0.009042744 -0.107094189 0.007193393 5.235672695
9.490723143 0.042979670 -0.026603068 0.025684218 7.488497108 0.003030109 -0.012646447 0.002410415 5.189746435
9.652006662 -0.051700334 -0.032902109 -0.030895599 6.660171688 -0.087863277 -0.015640856 -0.069894165 5.165470131
8.439342454 -0.023147154 0.153409810 -0.013832506 8.855209209 0.103448878 0.072927264 0.082292321 5.345339913
8.715135830 0.347697262 0.050773705 0.207780379 9.362438167 -0.378141874 0.024136575 -0.300807249 5.378538022
8.473233682 0.113011134 -0.043469818 0.067534315 9.007789301 0.050640024 -0.020664486 0.040283522 5.344902794
8.482241319 0.149914782 -0.099112698 0.089587563 9.038556391 0.040036082 -0.047115748 0.031848215 5.332225590
9.339964049 0.172321151 0.126041919 0.102977383 8.813501782 0.151127853 0.059917240 0.120220364 5.307297406
9.472083162 0.039029774 0.012113889 0.023323800 7.267009081 -0.043936975 0.005758646 -0.034951328 5.168635776
8.724102536 0.397078929 0.000568423 0.237290366 9.386222029 -0.001141885 0.000270215 -0.000908355 5.410156307
8.565962963 0.398199691 0.270252621 0.237960122 9.207225194 -0.029310846 0.128471473 -0.023316420 5.495573196
8.440133874 -0.058472963 0.197039215 -0.034942854 8.813540744 0.146293474 0.093667614 0.116374675 5.372555175
9.144702454 0.270405144 0.369471077 0.161591388 9.013696029 0.023322090 0.175637496 0.018552438 5.326294816
9.224990086 0.210374190 0.366669727 0.125717495 8.905233588 0.111206099 0.174305803 0.088463095 5.362469570
9.362682369 0.171463587 0.051193794 0.102464911 8.769469675 0.148528603 0.024336275 0.118152692 5.296382231
9.376904322 0.171635178 0.003413806 0.102567452 8.702519088 0.147598349 0.001622840 0.117412686 5.283013459
8.712137472 0.347723639 0.052147434 0.207796142 9.364661391 -0.381158716 0.024789612 -0.303207110 5.383011620
8.443322726 -0.067447863 0.202876643 -0.040306163 8.797941800 0.162698123 0.096442585 0.129424372 5.387280123
9.502736860 0.048823079 -0.040836892 0.029176180 7.619112212 0.034906520 -0.019412857 0.027767711 5.201075319
8.562451165 0.364124028 0.265276504 0.217596849 9.254484750 -0.092190053 0.126105949 -0.073336063 5.548278771
8.476859155 0.128382044 -0.066774091 0.076719815 9.020945339 0.046083738 -0.031742766 0.036659051 5.340973898
9.805253597 -0.068695654 0.023236424 -0.041051831 6.375721646 0.002611249 0.011046026 0.002077217 5.156085358
8.459640420 -0.086194328 0.208630567 -0.051508862 8.735998542 0.205691723 0.099177859 0.163625256 5.446920732
9.966023802 -0.059082511 0.082099858 -0.035307113 6.215603060 0.064287073 0.039028261 0.051139582 5.151124965
8.472055869 0.107987285 -0.035893148 0.064532113 9.003311585 0.052159300 -0.017062723 0.041492087 5.345765050
8.527970046 0.330160883 0.110182574 0.197300816 9.387988963 -0.315487832 0.052378095 -0.250966723 5.427478421
8.520871772 0.330085253 0.113773491 0.197255620 9.386369981 -0.305499163 0.054085130 -0.243020858 5.422106396
9.338123512 0.172616085 0.132245114 0.103153633 8.815916503 0.151336097 0.062866086 0.120386019 5.308242398
8.667983747 0.324965536 -0.253175181 0.194196129 9.118256660 -0.111707902 -0.120353277 -0.088862274 5.094626937
9.422802335 0.168199110 -0.013767226 0.100514093 8.405313425 0.147173219 -0.006544602 0.117074501 5.267080045
8.724836232 0.387475492 -0.018191009 0.231551449 9.385732239 -0.012681729 -0.008647560 -0.010088161 5.395061014
10.354556048 0.007507694 -0.002142526 0.004486522 6.179141260 0.026696199 -0.001018504 0.021236500 4.950528894
8.875163324 0.359661533 0.063821577 0.214930108 9.278144688 -0.119465119 0.030339214 -0.095033045 5.352575706
8.678865670 0.319200990 -0.247693134 0.190751295 9.114274845 -0.122681595 -0.117747246 -0.097591712 5.094620833
8.750654896 0.348207299 0.044585816 0.208085172 9.331823170 -0.309343028 0.021195004 -0.246078606 5.340325942
9.602839478 -0.037471449 -0.024131078 -0.022392560 6.755244395 -0.099544685 -0.011471323 -0.079186583 5.179666248
10.059770312 -0.042102953 0.075648303 -0.025160301 6.169295544 0.078480133 0.035961350 0.062429989 5.129135079
8.590752650 0.333311241 0.091550969 0.199183438 9.402879342 -0.366727367 0.043521087 -0.291727148 5.478178089
9.132360370 0.279519072 0.359174893 0.167037780 9.034743656 0.007969706 0.170742942 0.006339804 5.316813553
9.845744588 -0.069690161 0.041084558 -0.041646138 6.324624999 0.023652729 0.019530592 0.018815458 5.156706222
8.564453204 0.386694103 0.271853157 0.231084499 9.219806012 -0.049416343 0.129232329 -0.039310098 5.516837785
8.507485478 0.329347050 0.149459521 0.196814478 9.372890182 -0.249255187 0.071049394 -0.198279461 5.434538180
8.574275007 0.314403794 -0.270677818 0.187884539 9.137111195 -0.040033784 -0.128673601 -0.031846387 5.147222004
9.788517391 -0.068356639 0.016745473 -0.040849239 6.399525834 -0.006763475 0.007960387 -0.005380262 5.154513574
9.732462050 -0.065716088 -0.005360667 -0.039271272 6.496729418 -0.040802340 -0.002548330 -0.032457764 5.147210482
9.509192578 0.018329590 0.005208618 0.010953578 6.978778738 -0.078457868 0.002476050 -0.062412277 5.187481314
8.531391575 0.333613848 0.221268458 0.199364273 9.350322340 -0.186623100 0.105185602 -0.148456400 5.506436005
8.732596660 0.347575004 0.044860716 0.207707320 9.348173862 -0.352837379 0.021325685 -0.280677831 5.353849853
9.632212985 -0.046868275 -0.031791999 -0.028008009 6.697915539 -0.094727626 -0.015113137 -0.075354671 5.172105579
8.560888814 0.358392607 0.261560212 0.214171810 9.265632478 -0.103198401 0.124339315 -0.082093070 5.552159068
9.460857696 0.144608273 -0.009075074 0.086416446 8.136773601 0.122485679 -0.004314068 0.097435864 5.240918521
8.508332543 0.329095900 0.130297674 0.196664393 9.379390953 -0.271894925 0.061940321 -0.216289096 5.421639676
8.712947739 0.437269775 0.082175220 0.261308011 9.363666857 0.038286642 0.039064086 0.030456557 5.457980822
9.369513186 0.171870047 0.028346936 0.102707808 8.744614366 0.148073786 0.013475439 0.117790890 5.291026512
8.450143229 0.024118946 0.084920348 0.014413239 8.910929641 0.078823774 0.040369052 0.062703351 5.341876873
9.097458285 0.312554778 0.300239941 0.186779585 9.110424048 -0.039047137 0.142726710 -0.031061521 5.298194989
8.570872060 0.312336516 -0.269274825 0.186649154 9.137069106 -0.037120155 -0.128006653 -0.029528630 5.150742632