5.0833539898 0.0671475886 2.5925884199 2.7576225173 4.7472521577 4.9700843188 2.3277831327 1.5329673249 2.8013432316 7.5348575154 1.3919892964 -0.0667939066 7.9975500717 4.6092092142 2.7220638060 1.0990671289 4.3812278658 2.2096836161 4.1151793931 1.7676697743 4.9099850924 9.1963594332 1.4579956203 2.7209524013 5.9977188465 4.6479227162 0.2992349765 1.2335634028 4.8274420734 3.7063537374 4.0757071406 1.7198547126 1.4267007038 8.9318136055 1.6573997124 1.2332386784 6.2869656530 4.4792637312 3.8173739119 4.5480236731 4.8286828977 0.7355541264 0.4280264765 1.3162102433 3.1049930023 5.5384563881 1.7807231800 4.3231533940 9.8240308533 4.1474899213 1.9302314626 1.7202802773 5.5534293799 1.3324339358 3.2077536469 0.6800206425 4.1990377643 8.4886998244 2.6034409273 3.5219568977 6.7342007482 3.6249370429 1.2084278694 8.3899150282 0.2974064128 3.3501735160 6.8839021824 5.8798882518 0.8803465960 1.9690290596 3.1868247305 1.6669367230 3.3636159495 3.0339741742 4.3054687758
5.9653068195 0.3961660260 3.0910733145 2.8925632966 7.6936144454 5.3044564998 1.4530254481 2.7750270942 2.7036460253 5.7460958051 2.0432151097 0.2102934899 7.0098047211 6.5054527912 2.4150827088 1.8336273542 6.1311968041 2.5689063724 2.7837684113 1.4248317672 5.3347704238 6.6590574308 3.3449739405 2.8989479116 6.0805881616 8.0843658785 -0.0947803442 2.5538794756 6.5569298777 3.8636802465 2.6663623374 2.0622580958 1.4000659885 5.6775627535 2.5024917320 2.0043623778 6.4524731999 7.8044736894 3.8235311956 4.6362915721 7.9183738735 0.2486300675 -0.3863842066 2.8623568729 2.2555153363 4.2913163575 1.2952747475 4.7318162515 8.7983312406 6.7047777599 2.9051594589 2.5590425249 7.0577741505 1.5426855508 2.1540803247 0.0681152790 5.0932151189 6.0387827702 4.7709022861 2.8789281120 6.8631609984 6.9195033763 0.5876366546 6.6207111772 2.6735031751 4.2934211250 6.6152982328 9.4330320361 0.4795500004 2.1074517937 4.6364537536 2.2748026415 2.1911257874 2.3834516659 4.3458932102
5.8748918381 0.3955764391 3.0598650668 3.0599125281 7.5291702075 5.5011942310 1.5173124388 2.8513779545 2.6760122731 5.6422860916 1.9860128778 0.3213435208 7.1790607582 6.5256445809 2.6904629376 1.9036692713 6.1220574100 2.8218667442 2.7193326186 1.4231605285 5.4441023836 6.6988710866 3.4205875341 3.0013462052 6.2444248692 8.1667179113 0.0896803834 2.7179036753 6.3619993410 4.0898137349 2.7327397604 1.8375723347 1.4725901645 5.8330840099 2.4354626912 2.1416069432 6.5279478003 7.8547884936 4.1163847816 4.7518005439 8.2439883805 0.4632079701 -0.3868797826 3.0763407242 2.2378814246 4.2610358626 1.4089122767 4.9389274713 8.9909185640 6.9846222604 3.1795774306 2.4245959658 6.8670143026 1.5564165642 2.0930516771 0.0162175713 5.3591918326 6.2094564624 4.9188039968 2.9587034382 6.9079707812 7.0161895763 0.8727518542 6.7449659329 2.7828216477 4.4483458069 6.7964554442 9.5717916180 0.4801104052 1.9896566170 4.6003188947 2.5919452471 1.8643733795 2.4696646282 4.7488838986
5.0260240664 0.0740054925 2.7557851440 2.6055797376 5.0199968794 5.0477227076 2.3068069513 1.6812658009 2.8625659532 7.2563046659 1.3871609596 -0.1206881304 7.6239820572 4.3281657137 2.7145748844 0.9086130333 4.5088673111 2.2222897008 4.0760859458 1.8339316227 5.1433782803 8.8514334860 1.3773086369 2.7619534124 5.9716454958 4.7951807563 0.4233340273 1.2310393544 4.7014805154 3.7362853837 3.8534250191 1.5713731532 1.4642007044 8.7431758182 1.4543429289 1.2370560991 6.1680171910 4.7576348155 4.0480158215 4.4507136068 4.9734100026 0.7649723836 0.4357134289 1.3515039627 3.1453614786 5.5449426965 1.8171518978 4.5760143909 9.3189463960 4.2972178756 1.9496194862 1.5145393101 5.6743857542 1.3498885438 3.3668280830 0.6362836077 4.3339754660 8.1664218894 2.5272639189 3.6513557216 6.5668547163 3.5873986146 1.2293770994 8.0704879275 0.1827706646 3.2888112386 6.6202899412 6.1196367406 0.9871979772 1.6658122091 3.1966388015 1.8435954985 3.2581383520 2.9975162917 4.4141597761
4.4874135566 0.2986155442 2.4973601943 3.2155359466 7.2195612511 5.2314462876 1.1470441637 2.8094973570 2.3091253569 5.5901140044 2.2425825740 -0.2552251798 7.5683696005 6.6317445706 2.3654972378 2.0294765018 5.8207593579 2.6812624994 2.2872399077 1.2247304786 4.9468563693 6.7946751348 3.4927384727 2.2136573273 6.4310813884 8.1426200555 -0.0842759101 3.1631138754 6.2600988085 3.6362609277 2.2865764911 1.6330188338 1.2918540846 5.5076745394 2.9592954020 1.4908225980 6.4035941167 7.5732476195 3.6468761472 5.1305847162 7.6887884237 0.6479463911 -0.6671074558 2.6137840367 1.7935842506 3.6604379588 1.7845860448 4.3073338943 9.3455254630 6.5107699659 2.9594665324 2.4081366432 6.4799014571 1.3023245312 2.2954712429 -0.3187360043 4.6608345059 6.7309923577 5.0183133114 1.9687720171 7.6686603423 7.7898682392 0.8118644171 6.5119296353 3.1467493658 3.7015155572 6.4558388690 9.7001609262 -0.0949564854 2.2247589396 4.3501828786 2.3172711005 1.2723613804 2.1021196640 4.1869768136
5.0220021016 0.0969550492 2.7200063021 2.6986998095 4.9064026338 5.0575709646 2.3380375569 1.6005610625 2.9029059341 7.3446098277 1.3595052504 -0.0801299195 7.7821553597 4.4366497414 2.7679525008 0.9540616854 4.4189439984 2.2432846729 4.1320324751 1.9052286950 5.1025483370 9.0373469297 1.4295255507 2.7706166639 5.9975640658 4.7364192145 0.4282047405 1.1770659800 4.8014219845 3.7402428042 4.0243774366 1.5240824318 1.5100323615 8.7860344932 1.5026373997 1.2544781790 6.1041188475 4.6969509398 4.0069370021 4.5076147375 4.9448186224 0.6832612476 0.4587957516 1.3686271069 3.1707311558 5.5301499161 1.8010376816 4.5285643592 9.4702976297 4.1295058647 1.9976601297 1.5548481685 5.6122936779 1.4250519852 3.3416641307 0.5953122414 4.4017453822 8.3748672650 2.5812223538 3.6700631443 6.6205131174 3.5798496962 1.3181268954 8.1425115291 0.1568879564 3.2869470346 6.6895167126 6.0111514406 0.9281632604 1.7392126733 3.1859299723 1.7578116105 3.3410198844 3.0514886790 4.4250409301
5.6826898783 0.3528621041 2.9559188600 2.7526152788 7.7020151985 5.3262790564 1.8161631706 3.2712455178 2.3697678156 6.0904329307 1.8729383341 0.3095133148 7.1589225616 6.2973585259 2.3899163019 1.6544038390 6.2347186313 2.4722647270 2.8659945171 1.5244640300 5.0364721339 7.3875260878 3.2549344969 3.1260046536 6.1195408916 7.9047450643 -0.1544394085 2.0393876400 6.6272325617 3.9471407100 2.5413374889 2.0637721002 1.1465187372 6.4816502521 2.5350615960 2.0658309337 6.3695150497 7.7496267129 3.6445742567 4.5482150348 7.8352465010 0.0858697912 0.0052751123 2.9801593391 2.5789037875 4.4503404519 1.5300996743 4.7059418368 9.0260266914 6.0400855258 2.4981137563 1.9088217651 7.5347501230 1.6358084899 2.3996228416 0.0833342228 4.7159119187 6.7385167872 4.6507164387 3.2426612026 6.8421160483 6.6850872713 0.4278633287 7.3219561717 2.4922389247 4.4505845461 6.5252022311 9.2250522199 0.5630558995 2.5756627964 5.0499199086 1.9948534641 2.2082255868 2.4580036752 3.9810118833
3.5329775195 0.0006284228 2.4577710075 3.1013715764 6.9288278361 5.4062680120 0.9983890452 2.2976586421 2.3986068707 5.4880581000 2.4305068746 -0.2346780664 7.6151628888 6.6936362794 2.8466571787 1.9763867639 5.5017712558 2.8533831029 2.5115698251 1.2803250799 4.9105511271 6.4855740076 3.7400253768 2.3134080386 6.2032625507 8.1806469389 0.3033618539 3.1247779372 5.8298963997 3.8243750938 2.2027353831 1.2504277230 1.1611290662 5.3433335865 3.1694126128 1.4642276902 6.4567357611 7.6078965798 4.2125200347 4.8817171491 7.4940595105 0.8814797488 -0.7747348078 2.6855277418 1.9931452613 3.6132160833 2.2005462526 4.4382075159 9.1476091438 5.9419129496 3.5096400373 2.2631942285 6.5233506252 1.6762220228 2.8765106312 -0.2012389178 4.6373741166 6.7872184055 5.1993085941 1.9329694178 7.2986631347 7.9110976905 1.3764030534 6.2466536942 3.6481520969 3.8502467505 5.9926974108 9.6925134376 0.1705252249 1.9555715297 4.0996951729 2.2676753558 1.1184230027 1.6912822553 4.2757129252
5.0567535917 0.0629809702 2.9373977665 2.8484154073 7.7516389464 5.4788419026 1.8692961113 3.1200376068 2.5451090541 6.6835368005 1.4631366463 0.3059400116 7.6339707568 5.9314529222 3.1798790829 1.4916851486 6.4015125897 2.7702200874 3.4843184781 2.1081905130 5.0698220353 7.9997701839 2.6708549562 3.0787229245 5.9837356836 7.1667123965 0.5511265802 2.0954449610 6.6047104791 4.1735954963 3.0533732815 2.2187420747 1.2723459229 7.0599157209 1.7222438657 2.2811384064 6.7471088542 7.2473909150 4.4544428189 4.4375063141 6.8853941352 0.4438717170 0.0521507386 2.5861338422 2.0693454262 5.0363806247 2.0259711984 4.8094444022 9.2473237106 6.8647618877 2.8994467403 2.0646277083 7.5431534425 1.8288698168 3.0070860688 0.6638046323 4.6383291456 7.4143635249 4.1027176322 3.3183906047 6.6423806571 6.1923286850 1.5394464510 8.2185944981 2.1342841032 4.5255074560 6.2097725118 8.6329157778 1.0349482789 1.8786017424 4.9874860819 2.2883873504 2.7227555230 3.0201682113 4.1012023270
5.1866021897 0.3395823515 2.5868158896 2.6595677130 6.4350051068 5.2060508913 1.9634072612 2.7115407057 2.3901250549 6.8413074151 1.3360446326 0.1858038066 7.5278522202 4.9780705008 2.6853166255 0.9408562804 5.8275407807 2.3912335061 3.6898193268 1.8233771085 4.8885512221 8.4525643525 2.0266258786 2.9124139957 5.8690208304 5.7519147456 0.1745330134 1.3836286794 5.8289264826 3.8961671500 3.3050393776 1.9699485967 1.1511136914 7.9733044807 2.0727252155 1.4332308654 6.1279202517 5.5572430022 3.8990556368 4.3973900195 5.4564063255 0.5481141178 0.4579843510 1.6583019031 3.0346453605 5.2212305070 2.1743655343 4.5814831205 8.9445114032 6.2388665504 2.3866097139 1.7160148351 6.9219403986 1.5736135288 3.3446433845 0.3372730526 4.3377298095 8.0596407864 3.4021229743 3.5283693864 6.8173823843 4.7966497665 0.9635328460 7.6948061517 0.9533563645 3.7015934934 6.1993007887 7.2008202577 0.7595821725 1.2310094226 4.4709509894 1.6625742394 2.8993421585 2.8907341178 4.0486660713
5.0216713318 0.0825690302 2.7505171448 2.6336177606 4.9850569389 5.0565462342 2.3199785764 1.6536004529 2.8794126117 7.2736439600 1.3759301959 -0.1068226415 7.6717914361 4.3546993437 2.7346159537 0.9193704869 4.4795867749 2.2232780846 4.1120966123 1.8632019130 5.1440541662 8.8980759381 1.3941701564 2.7733292751 5.9803172180 4.7784516829 0.4377564237 1.2158796186 4.7235585519 3.7414350875 3.9062884276 1.5417785616 1.4860758618 8.7579174218 1.4542064850 1.2572388577 6.1315276419 4.7491934340 4.0470177498 4.4937076919 4.9696685456 0.7325554582 0.4413966521 1.3604156112 3.1536651870 5.5452075558 1.8044858038 4.5710924902 9.3484671931 4.2339388450 1.9737408931 1.5188802455 5.6490175237 1.3823567458 3.3680661609 0.6197649028 4.3700307383 8.2357781665 2.5303055332 3.6715855536 6.5795235395 3.5697943805 1.2716148103 8.1018705842 0.1882523688 3.2760840819 6.6247131810 6.0847024319 0.9647814211 1.6748252745 3.1949295661 1.8319633807 3.2775908272 3.0190636014 4.4123187935
5.6291959661 0.3683105508 2.9668447760 2.7619603094 7.7161935892 5.3558706062 1.8551310288 3.2843776619 2.3945740175 6.0688881965 1.8956275030 0.3229508830 7.1778640936 6.2688524694 2.4380337590 1.6579117881 6.2511672855 2.5009677677 2.9062453852 1.5827013105 5.0377166120 7.4004544888 3.2489784928 3.1239846237 6.1108593868 7.8693610653 -0.1177213046 2.0501771946 6.6112484351 3.9837578573 2.5665083451 2.0726550769 1.1131223739 6.5452982703 2.5208974970 2.0461711915 6.3858134606 7.7510335489 3.6896277989 4.5622493525 7.8571520147 0.1081459512 0.0093724152 3.0226695739 2.5846288004 4.4470356447 1.5659870294 4.6916083892 9.0577451452 6.0855878775 2.4483219381 1.8889238282 7.5315989015 1.6629332431 2.4556072381 0.1111646196 4.6775915347 6.7369279028 4.6404617307 3.2665061464 6.8463826146 6.6593799307 0.4828259271 7.3753439528 2.5018128656 4.4752195003 6.5589045820 9.1972577225 0.5790606426 2.5619196628 5.0755737330 1.9945620956 2.2437878819 2.5053928520 3.9592538736
5.2693461257 0.3329378969 2.9331442450 2.9093749570 7.6390780238 5.2564729416 1.9832131441 3.2461815489 2.3054932090 6.3030659963 1.8970364685 0.5150710946 7.4484617729 6.0516028648 2.9209592109 1.6716454322 6.3717676417 2.6004551116 3.2461612227 1.8332259367 4.9785165032 7.7206569543 3.0051632753 3.2080263965 6.1330690652 7.5768883635 0.3304855353 1.9740966222 6.5644277743 4.1321781440 3.0341392326 2.0345049398 1.2606661483 6.9279448756 2.0715770088 2.2461728940 6.7075738000 7.1991590496 4.1743063114 4.5530194264 7.4964272559 0.3580950562 0.0279718368 3.0891766739 2.3973380264 4.8297536219 1.7602522312 4.6343024322 9.2319076432 6.5740246630 2.8177381838 2.2521333599 7.6078163268 1.8378158999 2.6974933975 0.4217521974 4.6099023652 6.9174575625 4.3290988699 3.2926126077 6.6771347764 6.4909580951 1.2663099149 7.7871717989 2.2806632065 4.5404522901 6.6378300971 8.9976445005 0.5853526904 2.3932264011 5.0880241866 2.0348783487 2.5420813090 2.9687456372 4.1256940559
5.2029861034 0.0000191606 2.4733909128 2.8687132987 4.6374326998 4.9203180275 2.2211428980 1.5766204914 2.4323008156 7.5350960420 1.5774816752 0.0164413491 8.1870000569 4.6454316707 2.5246173134 1.1329409664 4.6623535743 2.1939550127 4.0846002380 1.5896985759 4.6746903161 9.2733864564 1.5474836640 2.7471992819 6.3210379263 4.6374978401 0.2778537833 1.3846622152 4.6726128830 3.7156897792 3.8677414307 1.5390262016 1.2731648804 9.0437206797 1.5490775614 1.2261943293 6.5271157655 4.6795983493 3.6888726466 4.8146179875 4.7105612734 0.6073514567 0.3839608370 1.5280839242 3.0387938425 5.5904978514 1.5201634889 4.3301035757 10.0179878174 4.6604386446 1.8975282622 1.8756446630 5.8587267767 1.4827165339 3.3709833252 0.3870831280 3.9523467362 8.5408843263 2.7623221189 3.4447817665 7.0425749001 3.4112843567 0.9541545691 8.5393547290 0.3539797598 3.4458912195 7.0287968592 5.8676115420 0.9922481716 1.8709081621 3.4406828804 1.5271750269 3.3482749222 2.8064721398 3.9975098396
5.8414521037 0.3587764958 2.8892222778 2.7198338069 7.6103365684 5.1743554703 1.7111347104 3.2329960029 2.2885463677 6.1468425673 1.8077472135 0.2946954007 7.0976921092 6.3958457778 2.2131174306 1.6827586072 6.1890748851 2.4055882987 2.8423662752 1.3726165111 5.0029515623 7.2471183275 3.2815806427 3.0413176393 6.0743059955 7.9554318084 -0.2978865909 2.0091008111 6.6316898281 3.8443088347 2.5360411948 1.9791911106 1.1289735203 6.2837504926 2.4707981885 2.1001753154 6.3896423553 7.7126661530 3.5085381699 4.6123390708 7.7109704704 0.0096665657 -0.0682346601 2.7876158855 2.4728721216 4.3612415085 1.3951445133 4.8294562287 8.9911877735 6.0270897682 2.5830549741 1.9104782818 7.4252015250 1.5109823506 2.1227039801 -0.0369283509 4.8330877807 6.7544878769 4.7381571549 3.1712625101 6.8565494760 6.8010945463 0.4111361079 7.2005752170 2.4406765672 4.3694521809 6.5036117898 9.2999521714 0.4124075563 2.5341561382 4.9505602026 2.0028357314 2.1102310216 2.3783537118 4.0791433981
5.5483241982 0.3962618580 2.9735646531 2.7713840225 7.7275544735 5.3843378210 1.9091495231 3.3088531936 2.4188281446 6.0420516040 1.9238046699 0.3428932380 7.2086664350 6.2304869609 2.5041029605 1.6760061744 6.2746664253 2.5547535303 2.9678627692 1.6340953459 4.9887660535 7.4307213020 3.2421568000 3.1125653822 6.0999980939 7.8179253125 -0.0688798496 2.0550112784 6.5692082765 4.0209854597 2.6108601695 2.0939656705 1.0831001927 6.6324613244 2.4670408350 2.0237139074 6.4320196147 7.7225401429 3.7391219388 4.6029536306 7.8576197823 0.1498198394 0.0025294424 3.0736102564 2.5752312736 4.4689628784 1.6339250044 4.6911059299 9.0994364498 6.1729177057 2.3800295464 1.8636908932 7.5311443516 1.6797438852 2.5199627339 0.1859916546 4.6392653156 6.7316825056 4.6327617452 3.3020295718 6.8484716711 6.6144986056 0.6072962945 7.4498090674 2.5005776419 4.4983849199 6.6204088675 9.1680434319 0.5853122350 2.5350621175 5.0915199591 2.0002742908 2.3228653973 2.5607176612 3.9960354650
5.3100021785 0.5146125515 2.6578353641 3.4056283398 7.7152478588 5.5599195488 1.4713498164 2.8812108819 2.6927290580 5.6077866565 2.2402283754 0.0871998760 7.5634152349 6.8595436298 2.9776446927 2.0567866698 6.2311662980 2.9775697788 2.4841561674 1.3717905766 5.3179851626 6.8904912887 3.6003988916 2.8716521555 6.4131232503 8.3250742309 0.1721785063 3.2000785300 6.6440314318 4.0016016884 2.1408227959 1.7920180968 1.3034083141 5.8889075951 2.7682346173 1.9600178831 6.3955795147 7.9752051802 4.1443454199 4.9875678481 8.3445144988 0.8139729293 -0.3721210441 2.8013878487 2.3031675220 3.9421655672 1.8228963251 4.8536648185 9.3165378520 7.1149886584 3.5569777680 2.4917892739 6.9628241813 1.6416440931 2.1384988565 -0.1196802491 5.1068963678 6.5892623845 5.1182491379 2.9038387573 7.3283642104 7.4346261434 1.0639343361 6.7694766317 3.1139040137 4.3538825010 6.9257207928 9.7912744260 0.1211508223 2.1230046213 4.7098644630 2.7732663006 1.3467973392 1.9635289851 4.4565304126
5.1183404516 0.0468321910 2.7150478239 2.5522238832 5.2482253371 4.9395273040 2.1642297965 1.9619558259 2.7114704463 7.2383903226 1.4667910919 -0.1337715598 7.3994514787 4.3001523269 2.5814221183 0.9492077814 4.7612512934 2.1501309858 3.7347717630 1.7348690506 4.9424237253 8.6422233508 1.2853076099 2.6798356014 5.8401270779 5.0136725543 0.3318833674 1.2013032579 4.9614226208 3.6700322500 3.6092169530 1.6346621900 1.3033432720 8.5410977935 1.5935760639 1.1708777155 6.0740294143 4.8316141823 3.9681355453 4.3062126539 5.0489227884 0.6681722850 0.4204558902 1.2584154272 3.1529368710 5.2891864311 1.7866564510 4.6251947608 9.1350197550 4.8167423393 1.8915675297 1.6578036967 5.9269007010 1.3541775811 3.1690897313 0.4516822501 4.0963786049 7.8985005803 2.5575850812 3.2308439669 6.5435385066 3.7860045356 0.9956546326 7.8500059833 0.2469509031 3.4817248337 6.5343760342 6.2899052538 0.9497059927 1.6436845709 3.4610351746 1.5708272994 2.9650858810 2.9722137039 4.3078069382
5.0778676307 0.0714779702 2.9334730621 2.8675200885 7.7643967238 5.4780101460 1.8810393451 3.1195983599 2.5340337630 6.6631833170 1.4842412447 0.3326106055 7.6387842186 5.9204308969 3.2060469642 1.5117918439 6.3968182736 2.7751470786 3.4760882005 2.0864629297 5.1005788824 7.9746112089 2.6914268756 3.1310549099 5.9905448667 7.2030128446 0.5623296038 2.0831599329 6.5938417666 4.1808189695 3.0628335115 2.2138046740 1.2923101563 7.0726901414 1.7224825227 2.3136211857 6.7232586529 7.2260211409 4.4588346946 4.4616665001 6.9364844623 0.4686398597 0.0520985758 2.6003922949 2.0806710175 4.9973614615 2.0035840601 4.8234469056 9.2444311244 6.8458895514 2.9324403363 2.1019432004 7.5394818005 1.8626537963 2.9890185551 0.6611575749 4.6584212768 7.3476809556 4.1133306221 3.3548973481 6.6382895266 6.2177951711 1.5810835674 8.2125658247 2.1567044983 4.5925052716 6.2211812582 8.6759159764 1.0718526027 1.9168724463 4.9896726803 2.2844319990 2.7201094626 2.9757641512 4.1363670087
4.9387462457 0.1843376986 3.0249581672 2.8868965817 7.3914166204 5.3577001623 1.9366928661 3.0835060668 2.3182449692 6.7778041844 1.2267973156 0.1593921917 7.4780125301 5.7329276660 2.8649122944 1.1881183359 6.2955593981 2.7082898063 3.6474490048 2.0997549110 5.0081226246 8.2596434779 2.4804384204 2.7487132838 5.8468522116 6.5856094010 0.2726835879 1.8939873005 6.3990731301 4.0833127251 3.1513123723 2.1457552759 1.2279318905 7.1151930606 2.2992542643 1.7109206086 6.4147445241 6.8342808952 4.0990520954 4.3472423126 6.1511974479 0.0364785271 0.2971307814 2.0135171368 2.3278876114 5.1907500212 2.3448035904 5.0386377120 9.0985196588 6.7602215351 2.9481862921 1.8423642483 7.3063344463 1.6492457921 3.3633200169 0.5997207387 4.6369060077 8.1780399940 3.9500274158 3.2723564371 6.5986592957 5.5945110684 1.1375442428 7.8739853850 1.5645622605 3.9630915190 5.9823905220 8.0096716148 0.9704717309 1.4041488662 4.8900313710 2.0232282562 2.9407454394 2.9442500064 3.9463030670
4.9807696541 0.2156474218 2.9855483722 2.8762309921 7.2789125957 5.3503981924 1.9514674170 3.0629024810 2.2735409515 6.7750288303 1.1897857798 0.1907426693 7.4989245928 5.5992308064 2.8696371315 1.1607828066 6.2305023693 2.6919428647 3.6902034694 2.0212461029 5.0403715796 8.3043407464 2.4412694923 2.7911932246 5.8357326022 6.4847050129 0.2172571364 1.9103023039 6.2848307174 4.0573065137 3.1766117682 2.1647419059 1.1827680402 7.2230831254 2.3404307581 1.6726499865 6.3718919922 6.7405644247 4.0330936800 4.3754072609 6.0005532514 0.1354651327 0.3558996038 1.9704480457 2.4330936159 5.2105681131 2.3899041192 5.0432901484 9.1056089653 6.7010531860 2.8655240971 1.8106294715 7.1889083092 1.6494014775 3.3951114462 0.5307640580 4.6618229632 8.2775061997 3.8884866372 3.3942928557 6.5626736730 5.4579170711 1.1193155381 7.8131780827 1.5055274212 3.9253882112 5.9823048281 7.8374238129 0.9844552485 1.3607216542 4.8216010861 2.0457804520 2.9389898868 2.9092122191 4.0020479617
4.3345286152 0.2907813794 2.5112736530 3.1776008727 7.1580130150 5.1675745651 1.1235399053 2.7434301775 2.2701293245 5.6524789418 2.2355370776 -0.2860617345 7.5717517533 6.5818288284 2.3305938022 2.0504002356 5.7168096887 2.6119800697 2.2589723590 1.2436844619 4.8824993180 6.7589647728 3.5077332780 2.1797425691 6.4798712221 8.0971016288 -0.0725455355 3.1403743493 6.1692484731 3.6507020759 2.3985402728 1.5652862045 1.2645674178 5.4547114154 3.0288266834 1.4321080525 6.4755036559 7.5434962664 3.5965740302 5.1829043475 7.5494439390 0.6448442392 -0.6803835073 2.5768595958 1.7750662413 3.6976445295 1.7488956648 4.2025628185 9.3935709517 6.3533941730 2.9364178309 2.3388144955 6.3746083801 1.2839640800 2.3474512745 -0.3110121142 4.6481251737 6.7707729661 5.0114605925 1.9029139359 7.7164010500 7.8197001716 0.8374804116 6.5359400539 3.2073655562 3.6678638665 6.3740171179 9.6762503833 -0.1275085275 2.1555858117 4.2283190995 2.2435887856 1.1895385858 2.0613885294 4.0870953291
5.0796396295 0.0692239331 2.5979745487 2.7580472991 4.7525925833 4.9738992299 2.3301363211 1.5331797935 2.8096618099 7.5287520090 1.3883055969 -0.0668967250 7.9895749100 4.6035970966 2.7267015249 1.0909650945 4.3793739618 2.2146834209 4.1108048881 1.7700554054 4.9213473136 9.1926109446 1.4534663861 2.7216413284 5.9949335272 4.6478148992 0.3011087832 1.2250623285 4.8322309614 3.7087679065 4.0794263528 1.7135962046 1.4241956228 8.9242358519 1.6535430941 1.2345978301 6.2791327912 4.4846493869 3.8256906754 4.5375505310 4.8304899686 0.7332155486 0.4319133670 1.3186500637 3.1105442216 5.5416624244 1.7860283544 4.3290844829 9.8124134991 4.1390451664 1.9334211949 1.7129710453 5.5547767969 1.3366125211 3.2118669721 0.6832826516 4.2084189552 8.4898107628 2.6024797054 3.5262835407 6.7288689623 3.6300589159 1.2142649620 8.3796335239 0.2932336378 3.3452301570 6.8814784158 5.8820152863 0.8852521185 1.9631989383 3.1821101944 1.6625694814 3.3649521494 3.0400989192 4.3146010512
5.0369702246 0.0607973198 2.7568583347 2.5693229421 5.0718643953 5.0283123454 2.2799302616 1.7307827756 2.8340480757 7.2446779061 1.4068581776 -0.1386336407 7.5528083435 4.2991654162 2.6829585596 0.9127575556 4.5498917266 2.2223695179 4.0078693647 1.7963036595 5.1029568205 8.8027218551 1.3568914401 2.7319919745 5.9407588417 4.8427097569 0.3969754082 1.2462517531 4.6961641588 3.7237507431 3.7785020346 1.6224224333 1.4547955593 8.7103141712 1.4821749067 1.1958485686 6.2304688298 4.7593474173 4.0337873744 4.3922647161 4.9724542077 0.8029938112 0.4264555840 1.3312761745 3.1382084446 5.4929838509 1.8453034628 4.5865213436 9.2825506000 4.4107949957 1.9038136978 1.5153498715 5.7132065379 1.3076698215 3.3447748570 0.6324487147 4.2588462752 8.0638879923 2.5460397778 3.5868473059 6.5563200015 3.6289348314 1.1519998868 7.9966247895 0.1428697800 3.3377983745 6.6174608013 6.1460406138 1.0110050070 1.6596770673 3.2244749911 1.8327056882 3.2371071059 2.9639570862 4.4285810763
5.9654392715 0.4343660356 2.8814189230 2.7375196298 7.5567652569 5.1508405311 1.6600340101 3.1562089456 2.3109056266 6.1699853306 1.8159873741 0.3119683038 7.1048141427 6.4653266504 2.1582552442 1.6836262337 6.1446132752 2.4237355127 2.7286271897 1.3432452487 5.0562089918 7.0888541640 3.2696627563 2.9878482641 6.0534938908 7.9224055123 -0.3557521544 2.0664713875 6.5146131077 3.8329672277 2.5522215286 1.9965360675 1.2364630671 6.0807376122 2.4437781522 2.0769166253 6.4448802556 7.7222714785 3.5188424939 4.5628002940 7.6132107487 -0.0614466157 -0.2349898958 2.6621529044 2.2741381813 4.3606152813 1.1884290298 4.9015915996 8.8762328747 6.1727521181 2.5278713394 1.9067515626 7.2604609370 1.3659285705 2.0097021423 -0.0018939576 4.9166560111 6.7435986897 4.7632395236 3.1391796683 6.9518300567 6.9385623061 0.4103573054 7.1029074534 2.5270735407 4.3661305724 6.5788808322 9.2809566390 0.2036729832 2.4864763069 4.8554601902 2.0385662956 2.1338347924 2.3972172972 4.1231301063
5.8806130882 0.3778401348 2.8739855593 2.7186089647 7.5818626460 5.1410881935 1.6958009000 3.2163706380 2.2791105243 6.1577548606 1.8020576090 0.2986933878 7.0929887707 6.4199658762 2.1740166373 1.6877035602 6.1757198819 2.3980452700 2.8298103735 1.3529740269 5.0108231234 7.1897337109 3.2831579133 3.0136105165 6.0763984959 7.9461102590 -0.3256566044 2.0224708346 6.6207157557 3.8504656144 2.5434485296 1.9658278423 1.1382616603 6.2367501990 2.4472643675 2.0952065146 6.4094279200 7.7123086398 3.4970660010 4.5890294574 7.6754846429 -0.0101364875 -0.1127588973 2.7342788352 2.4239377447 4.3565090811 1.3406729272 4.8584614214 8.9778736925 6.0590065586 2.5721523394 1.9029270274 7.3728949169 1.4660637932 2.0581160883 -0.0591299894 4.8557509550 6.7629171663 4.7532273421 3.1572035235 6.8729403418 6.8560175091 0.4188341969 7.1845008525 2.4520803601 4.3450278401 6.5225075571 9.2862783966 0.3421602293 2.5171452530 4.9216685420 2.0050503564 2.0895006666 2.3925106698 4.0750896986
6.0234752873 0.4379229534 3.0535272017 2.7847648957 7.7106170311 5.2739865440 1.4805306859 2.8771225120 2.6687715107 5.9040274590 1.9695613149 0.2588978908 6.9646241561 6.4282073958 2.3597899823 1.8211226439 6.0687791109 2.4753155939 2.8354033834 1.3587563392 5.1993747420 6.7540023937 3.3588861890 2.8526023391 6.1215165819 7.9547666482 -0.2704611214 2.3649309965 6.5476287927 3.8681089226 2.5445096148 2.1594778136 1.1707316975 5.6783579836 2.5782400348 2.0087805129 6.3173246562 7.7485395810 3.6042245218 4.6452914798 7.7162098108 0.0016127033 -0.3913242095 2.7469919445 2.1723513439 4.3550065188 1.1389087476 4.8589499495 8.8170741054 6.4361389721 2.6146617793 2.2893052696 7.1113335111 1.4337909681 2.0400575660 0.0554092286 5.0778952130 6.4052672772 4.8238459184 2.8874918652 6.9855303420 6.8444248925 0.4391958422 6.7623142790 2.7234969971 4.2726973093 6.4968767848 9.3876393691 0.3210373278 2.1239287491 4.6181471775 2.1033548253 2.2092479186 2.4477257803 4.3067122778
5.9543986988 0.3901677642 3.1071039735 2.9325773990 7.6582931058 5.3581027983 1.4648929522 2.7806039783 2.6995822910 5.7169621136 2.0376583063 0.2287348836 7.0501185071 6.5255027690 2.4794676497 1.8596165945 6.1402741615 2.6185839863 2.7828764708 1.4303192606 5.4235283448 6.6492354138 3.3812669605 2.9584510322 6.1439494242 8.1441635875 -0.0385635466 2.6104256825 6.5250429146 3.9677137097 2.7429148538 1.9811686313 1.4338910239 5.7137383006 2.4598435983 2.0691971179 6.4935782485 7.7970157599 3.9171519385 4.6490975914 7.9906099518 0.3446269645 -0.3960263643 2.9178477839 2.2581495348 4.2393219005 1.3241117852 4.7787848561 8.8816469750 6.8052854608 3.0198334464 2.5529179190 7.0277179890 1.5428355979 2.1819246729 0.0335006962 5.1599137247 6.0335744399 4.7604349922 2.9072993681 6.8396480661 6.9170258803 0.6693417952 6.6436968596 2.6840799393 4.3260539861 6.6636799583 9.5235941461 0.5336441525 2.0832787905 4.6528210802 2.3848035791 2.1341019119 2.4391674787 4.4187703688
5.1157282610 0.0454709443 2.7160189461 2.5505835315 5.2421863153 4.9407855599 2.1684515364 1.9536019016 2.7154059123 7.2400712309 1.4645536512 -0.1346034432 7.4014749082 4.2975250106 2.5834219989 0.9501342452 4.7509830928 2.1519114750 3.7424432314 1.7355051108 4.9479212128 8.6443497713 1.2829314373 2.6801463293 5.8380147683 5.0112599618 0.3337217718 1.2044012007 4.9500339765 3.6723061213 3.6161655484 1.6393412086 1.3072194212 8.5452529512 1.5953631934 1.1719614302 6.0874390146 4.8256459039 3.9764947373 4.3120584401 5.0427318511 0.6763846893 0.4196356576 1.2588604983 3.1525961233 5.2939090685 1.7936146813 4.6251330120 9.1411840940 4.8053699027 1.8874975591 1.6480457139 5.9150467224 1.3515268084 3.1732028471 0.4487142806 4.0921793205 7.9025991446 2.5537081290 3.2337777372 6.5456552065 3.7811817517 0.9961312907 7.8558078740 0.2455580141 3.4772465516 6.5384796482 6.2786666276 0.9541075940 1.6459355429 3.4529140594 1.5789927638 2.9759364841 2.9783208690 4.3151517857
3.7371057214 -0.5358321782 2.4734894178 3.2511281637 6.5657688536 5.5485071000 1.1692812893 2.3816779952 2.4494330933 5.2191195875 2.2646253767 0.0936765626 7.3500257357 6.5522820382 3.3212877961 2.0278777386 5.4501830912 3.0931102201 2.4221319624 1.0736585410 5.0536152462 6.5421025915 3.5393238795 2.5907863701 6.1079657709 7.8724332641 0.7062482465 3.2170449684 5.3109851594 4.1482577594 1.9706107291 1.0514414682 1.2051227047 5.3074647252 3.2061030542 1.6617544419 6.5250964535 7.1743079837 4.8016755858 4.7914537141 7.2056718273 1.1192667460 -0.6885166438 2.6945422417 2.0199131126 3.5976213866 2.1284021401 4.9928312799 9.1895016216 5.9547559074 3.9385983503 2.3035312522 6.3915329842 1.8553501384 2.8557888566 -0.4192321083 4.7487763469 6.8289763431 5.0440741587 2.3522542153 7.2003743781 7.6660068835 1.7985409873 6.2275875160 3.3266761855 4.0953284533 5.9602388260 9.4067489321 0.3940921021 2.0038148930 4.0001456117 2.4868405946 1.2832701702 1.3495929746 4.0544349132