-28925.4525940116
-28926.1217498977
-28926.5162576176
-28926.0921950846
-28926.858686313
-28925.6333799586
-28926.7092066388
-28926.5932863391
-28926.9339928268
-28927.1663980623
-28925.9448460607
-28926.7341337503
-28926.8749713655
-28927.7512381582
-28926.5638999643
-28926.6858456778
-28926.5017581752
-28926.441198319
-28926.9563928184
-28927.0136123428
-28926.8213777561
-28926.7262933383
-28925.436488282
-28926.2991134707
-28926.2440289504
-28926.428805717
-28926.3796832078
-28926.3897608025
-28926.4181585882
-28926.6644272003
-28926.3252576107
-28926.2251706547
-28926.1659223866
-28926.8152509801
-28926.7673569282
-28927.1835110208
-28926.8996924869
-28926.9146089435
-28927.1938937911
-28927.1431444501
-28925.5523776969
-28926.5314993862
-28927.0710879262
-28926.8797801588
-28926.7595566529
-28926.6346380973
-28926.3348598229
-28927.0122195288
-28926.5194089664
-28927.0118227871
-28927.6419994742
-28926.8064811637
-28926.7529070105
-28925.5650010514
-28926.4202256999
-28926.4680182534
-28926.6988891758
-28926.9911772486
-28926.6753752868
-28926.6411161721
-28926.2226246229
-28927.2689777159
-28927.0620262679
-28926.9740192554
-28926.2785668456
-28926.740697813
-28927.0841107436
-28926.7616070297
-28926.3185278308
-28926.7304547731
-28926.8357200528
-28926.9435060578
-28926.9812543504
-28926.5765653604
-28926.6144171923
-28927.1761578283
-28925.6651017492
-28926.6224278114
-28926.3394867082
-28926.4223226081
-28927.1199781864
-28926.8489382479
-28926.7220644193
-28926.8226181864
-28927.0600293616
-28926.3246592327
-28926.5253920663
-28926.3030026558
-28926.1483028885
-28926.9387413469
-28926.1973470289
-28926.2661324741
-28926.9720952754
-28926.9390955029
-28926.5640137079
-28926.344033592
-28926.5408584647
-28926.7231312411
-28927.1052162903
-28926.9984301671
-28926.2740117983
-28927.0311725201
-28926.5995030486
-28926.7896790952
-28926.8331759258
-28927.0840946889
-28926.8379580519
-28925.5092025047
-28927.1909560516
-28926.1153859746
-28926.6309988487
-28926.2541593352
-28927.1573645678
-28926.5585953799
-28926.5730873392
-28927.0842103373
-28927.0470513069
-28926.8567219242
-28927.1942339332
-28927.7046517487
-28927.0883451049
-28926.763173044
-28926.4367420491
-28927.0055598182
-28926.4329357226
-28926.5110410619
-28927.0090860035
-28925.5960967083
-28926.8967426383
-28925.6419860986
-28926.8949193405
-28926.5276340111
-28927.0309357812
-28926.277555399
-28926.5760671202
-28926.7851591506
-28927.1268354516
-28926.84769877
-28926.8139642905
-28926.5102639052
-28927.1212979378
-28927.1963273039
-28927.0574542136
-28926.1436051176
-28926.1421586972
-28926.4941106918
-28927.1338374813
-28927.0533741408
-28926.9293887991
-28926.5397068796
-28926.8200237183
-28926.7421616487
-28926.1659508225
-28926.8345781277
-28926.6419287036
-28927.2056188983
-28926.9945634315
-28926.7507422099
-28926.8289851027
-28927.0090181112
-28926.7145314958
-28926.6599811346
-28927.0150553618
-28926.5684910667
-28926.6422820433
-28925.9074530125
-28927.0611157755
-28926.3354839157
-28926.5417873249
-28926.6505665448
-28926.9931676243
-28926.6637382085
-28926.8127041319
-28926.5049189119
-28927.1182697205
-28926.8330653116
-28927.0325230204
-28927.1852158131
-28926.7307126008
-28926.4759477827
-28925.6429757761
-28926.4808218832
-28926.9127542166
-28926.5125024486
-28927.0139379268
-28926.3225243647
-28926.663007175
-28926.6545807661
-28926.8900377568
-28927.0943418106
-28926.6057022069
-28926.6581304893
-28926.5119265199
-28926.5410492164
-28926.5049612255
-28926.7221344886
-28926.7194714479
-28926.3139099252
-28926.7094866438
-28926.652409843
-28926.7879085874
-28926.2048532853
-28926.195504411
-28926.4111210476
-28926.9334031564
-28926.6263025745
-28925.4761612348
-28927.0221485495
-28926.6778064867
-28926.2889179147
-28926.6424397332
-28926.391398791
-28926.87696868
-28926.4115791511
-28926.6400214587
-28926.3794146315
-28927.1623320034
-28926.5042823019
-28926.7785733188
-28926.286305215
-28927.1394246559
-28926.7735725493
-28927.0715448051
-28927.054951992
-28926.5192383511
-28926.5005117584
-28926.5399460675
-28926.8607790034
-28926.8528859374
-28927.0423572095
-28927.126479799
-28926.2652520502
-28926.4312629037
-28927.2225074989
-28926.5902703669
-28927.0075375405
-28926.3395190897
-28926.499196905
-28925.7698327337
-28927.1660753355
-28926.2988360508
-28926.2722406103
-28927.0884316371
-28926.7056302485
-28926.9604273121
-28926.5748593436
-28926.1446407823
-28926.7113816436
-28926.8369871503
-28926.4881411975
-28926.6296780088
-28925.6664210924
-28926.3417523268
-28926.8325119684
-28926.3145922503
-28926.5045262518
-28926.1143451397
-28926.2218142683
-28926.3264738229
-28926.3255211528
-28926.6833604634
-28926.500795709
-28926.3712373428
-28926.5125470752
-28926.5866460845
-28927.1847189335
-28926.2864639933
-28926.5761924286
-28927.1133519457
-28927.0247805693
-28926.8487787893
-28926.2193445643
-28926.1537801291
-28927.0253888795
-28926.3211463809
-28926.5816055864
-28926.3293523777
-28926.7740041216
-28927.39112112
-28925.5318547456
-28926.5049658515
-28926.7758966724
-28926.9603443175
-28926.7442116172
-28925.8184910169
-28926.5079026386
-28927.1908844857
-28926.187907949
-28926.9919836575
-28927.3839325563
-28926.7083368274
-28926.462589313
-28926.3505943894
-28926.9770959089
-28926.4480893264
-28926.5670968921
-28927.0076704681
-28927.1375711534
-28926.3515761756
-28926.4030587269
-28926.7786613476
-28927.0592206396
-28926.5764309362
-28926.307983697
-28927.1281180595
-28926.7473568434
-28926.3486893214
-28926.8503381368
-28926.3197267637
-28926.393433249
-28926.8251699326
-28927.375232265
-28927.7877159519
-28926.3350067643
-28926.9453956153
-28926.3264608975
-28926.3945732694
-28926.5022946474
-28927.0384914262
-28926.1658485077
-28926.685082671
-28926.4379924115
-28926.8698876013
-28927.2188207665
-28926.5876831098
-28927.1280320716
-28926.935010396
-28926.2399930961
-28926.5972036879
-28926.4760524104
-28926.0508821025
-28926.812161129
-28926.2563082171
-28926.4143510373
-28926.8280554263
-28926.7511697006
-28926.8912473022
-28926.4824182383
-28926.9889625152
-28927.1727331414
-28926.7920844443
-28926.49484363
-28926.5384408706
-28926.2079193264
-28927.0331145956
-28927.1420845673
-28926.842883582
-28926.4457400327
-28926.8533160131
-28926.4946587288
-28926.6143000474
-28926.7958864169
-28926.8723721354
-28925.4149001417
-28926.4461076584
-28926.3909566062
-28927.3594274932
-28926.8551662502
-28926.8151599581
-28926.3795467427
-28926.5066947259
-28926.8242684199
-28927.2160710576
-28927.3366288551
-28926.4891247525
-28926.3176377469
-28926.4526126724
-28925.8640452991
-28927.150403083
-28926.5969762008
-28926.5978230186
-28927.1245433019
-28926.9987850034
-28926.9898545039
-28927.0162794652
-28926.6736114459
-28925.6605091502
-28926.7454329996
-28926.3405295839
-28926.3780279401
-28926.733407887
-28926.9718622101
-28926.8819736673
-28926.8289059176
-28926.722755452
-28926.3495169552
-28926.4724175156
-28925.7257428313
-28926.7865507401
-28926.9633681809
-28926.5768267256
-28926.2375575424
-28926.7740932389
-28926.8333204182
-28927.1123145122
-28926.301835152
-28926.8067015758
-28926.0883652203
-28926.9847236641
-28927.5659680495
-28926.5349891083
-28926.701400241
-28926.5830793542
-28926.3608028709
-28926.6128668245
-28926.6699147813
-28926.5127557864
-28926.6185409394
-28926.9407607027
-28926.6363415291
-28926.7277060166
-28927.1367929082
-28927.0033196421
-28926.5714682626
-28925.4260819739
-28926.3233092766
-28926.8233298998
-28926.8363754387
-28926.8587754302
-28926.7403349494
-28927.2398286243
-28926.9941143078
-28926.5872338501
-28926.8938857166
-28926.5604178614
-28926.9475763345
-28927.3685173152
-28926.824563119
-28926.8840428199
-28926.901506941
-28927.2619741896
-28926.6451970613
-28927.2500316636
-28927.192730505
-28927.1920669558
-28926.4030943738
-28926.7727881816
-28926.623178301
-28926.3680893954
-28926.5208353864
-28926.7508981311
-28926.9494403134
-28926.5824091382
-28926.0479929353
-28926.4878538455
-28926.7845175065
-28926.8028302142
-28926.3169664424
-28926.6621260708
-28926.8424174513
-28926.9024922647
-28927.0352373545
-28925.6284766058
-28927.0991688355
-28926.7824088975
-28926.9728668538
-28926.1288588681
-28927.1955919166
-28927.1330426372
-28926.7269978407
-28925.7411281398
-28926.8087050129
-28926.5961288388
-28927.1263056462
-28926.2528384953
-28927.1223868008
-28927.1408976073
-28926.9417169102
-28926.9872539133
-28926.8997388823
-28926.493464966
-28927.0803415607
-28926.541474122
-28926.7303555877
-28926.3425346537
-28926.8135465959
-28926.3407036006
-28926.5324056608
-28926.8065717776
-28927.1990336107
-28926.5312185648
-28926.1117339366
-28926.6736619229
-28927.1339261904
-28926.866280326
-28926.3509039187
-28926.2243962191
-28926.9642567682
-28925.4179948908
-28926.318367964
-28927.1981884255
-28926.519857954
-28926.5276668008
-28927.3599479106
-28926.5912815414
-28926.4387073902
-28926.5119560442
-28926.3093314762
-28926.2883415778
-28926.6925599472
-28926.347357869
-28926.866797206
-28926.3061252965
-28926.5417099085
-28927.0273953098
-28926.1989390301
-28926.7238719345
-28926.5767386968
-28927.1080488579
-28926.3351014598
-28926.7396445969
-28926.7816626256
-28926.8381234971
-28926.1850566056
-28926.9370935624
-28926.8309474507
-28926.7384951887
-28926.0463557632
-28927.1333218259
-28926.5876086867
-28926.7744347416
-28926.4717236256
-28926.5153976023
-28927.1172487499
-28926.5122614919
-28926.5857403541
-28926.4499817411
-28926.7600399269
-28926.5577152281
-28926.9485285964
-28926.7224372151
-28926.1542242186
-28926.708876701
-28926.3222968776
-28926.6981098422
-28926.8699908684
-28927.03402019
-28926.7855626952
-28926.5461359739
-28926.3644735486
-28926.9354249612
-28926.7431360878
-28926.4251340868
-28926.3803262124
-28926.8115366281
-28926.9342438517
-28926.314981509
-28926.8472534559
-28927.1112879633
-28926.6083730028
-28927.0627703628
-28926.2577817128
-28926.7854583396
-28926.6456132592
-28926.4653377974
-28927.3279493805
-28926.7554602533
-28926.2354825394
-28926.9440580404
-28926.9380256879
-28926.6247855406
-28926.3671590387
-28926.6267740114
-28926.5408010488
-28926.1199690496
-28926.3384657376
-28927.3009298507
-28926.7844332873
-28927.1919896755
-28925.4124172402
-28927.321771311
-28926.3546705165
-28926.6304040082
-28925.419369065
-28925.4994013774
-28927.0045750387
-28926.0682063572
-28926.2216250132
-28926.931176314
-28926.5122941455
-28926.6477867673
-28926.1165031374
-28926.6466449783
-28926.2120343659
-28926.7904094484
-28925.4702586805
-28926.3188791296
-28926.7442543391
-28927.058010414
-28927.1233800158
-28927.0758843384
-28926.3727747852
-28926.9127510872
-28926.543864913
-28926.984405291
-28926.8195231652
-28926.7580071015
-28927.0036669953
-28927.1003951159
-28927.2297194644
-28927.3089555721
-28926.5665923933
-28926.245495099
-28926.7751103999
-28927.3860800776
-28926.8480032652
-28926.5086882308
-28926.5034417427
-28927.3838518746
-28926.9504392428
-28926.7369041399
-28926.4324629251
-28926.8890018199
-28926.2537598723
-28926.4795039005
-28926.5809839427
-28926.7596494437
-28927.48089796
-28926.5061903631
-28926.3195013175
-28926.7744026321
-28927.1017517387
-28926.1299563026
-28926.780519476
-28926.8837547875
-28927.2098142112
-28926.2327631711
-28926.92888362
-28926.6361554033
-28926.662291652
-28926.6042224526
-28927.1346866121
-28926.7190557942
-28927.3802998384
-28925.6060058647
-28926.2038309542
-28927.174410042
-28926.5322123241
-28926.0380814659
-28926.3309578485
-28926.2428569567
-28926.7427992111
-28926.7928035047
-28926.9941236957
-28926.5100010434
-28926.5785481169
-28926.3659267718
-28926.5900973026
-28925.6227027613
-28926.3033003482
-28926.3435603863
-28925.6566701701
-28927.0374923608
-28926.1733983023
-28927.1909768683
-28927.0410721525
-28926.6747360918
-28926.4695004567
-28926.6266296551
-28927.0248831562
-28926.8354301157
-28926.5536136583
-28927.1948872782
-28927.0735724604
-28926.7455304163
-28926.5370707781
-28927.1741979294
-28926.7536682485
-28927.370754498
-28926.4030633528
-28926.2123829435
-28926.1964104136
-28926.3954580471
-28926.3179151668
-28926.9694922358
-28926.4857410186
-28926.584593939
-28927.2327671378
-28927.1283594244
-28926.6740968967
-28926.6661216523
-28926.6552006411
-28926.7541751964
-28925.6694606025
-28926.8010326311
-28927.0986614795
-28927.0501527227
-28927.1187712261
-28926.6049465471
-28927.1327917484
-28926.9239380896
-28927.1323963672
-28926.5974695429
-28926.5598181228
-28926.2017873803
-28926.6243411789
-28926.4655961694
-28926.4362107471
-28926.5232169255
-28926.5928618417
-28926.6058672438
-28926.5103784651
-28926.5507223142
-28927.3450117257
-28926.6539731362
-28927.3788528738
-28926.3416891965
-28926.6086951854
-28926.9990356201
-28925.4464477795
-28926.9964329886
-28926.4272988873
-28926.7919224005
-28927.1124583243
-28925.9770218729
-28926.4146939005
-28926.9943910474
-28927.7795691399
-28926.6293175942
-28926.5046043484
-28927.1183057756
-28926.4612233022
-28926.5223744614
-28927.073042655
-28926.3441931867
-28926.7026914205
-28925.6517721236
-28926.2719227815
-28926.3575094787
-28926.6384885062
-28926.147911589
-28926.8534132937
-28927.198203936
-28926.555750159
-28926.9584287731
-28927.0138003734
-28927.0239069483
-28926.9257811157
-28926.9964212877
-28926.733020125
-28926.5983834368
-28926.8432265813
-28927.1228356523
-28926.8375354594
-28926.5246082428
-28927.1968862254
-28927.1361995643
-28926.3455612383
-28926.6379260472
-28926.6801545558
-28926.5733160507
-28927.2140827228
-28926.2925979803
-28926.9907698944
-28926.8131952972
-28926.5035065057
-28927.2185758642
-28927.2840095488
-28926.5557123352
-28926.4581256959
-28927.0542514353
-28926.5428085676
-28926.3289413499
-28926.518493984
-28926.8666157062
-28926.3682836846
-28926.3377959297
-28926.9974203532
-28927.2389910584
-28926.7432340488
-28926.3340934147
-28926.3676508842
-28926.734039735
-28926.5948694966
-28926.5525699662
-28927.0904180671
-28926.5560365587
-28926.3301664058
-28926.870803536
-28926.1846729252
-28926.9818977633
-28926.5788353329
-28926.9775985029
-28927.1896699062
-28926.7414170095
-28926.2331917502
-28926.6496949647
-28926.0369761401
-28926.8304228154
-28927.0711582676
-28927.2330037407
-28926.7980773403
-28926.3530164734
-28926.5805051586
-28927.10393273
-28926.5054141588
-28926.328139703
-28926.8352668475
-28927.3859664701
-28926.77683873
-28926.890418716
-28927.2431469148
-28927.1001133421
-28926.314074554
-28926.5150321536
-28926.5530397705
-28927.0244006986
-28927.1436507177
-28926.8363150294
-28926.8606365519
-28926.1978319356
-28926.8577008532
-28926.9813663252
-28926.6352034136
-28926.8781653
-28926.1860690046
-28927.2378475006
-28926.3210744068
-28927.1157504919
-28926.7955046413
-28926.6671495618
-28926.254024639
-28926.6946836586
-28927.2071869534
-28926.9750394096
-28927.081960093
-28927.1335459115
-28926.5599556763
-28926.0094887108
-28925.6879538576
-28926.5295405757
-28926.3311850634
-28926.4443175584
-28925.8170681344
-28927.0027662989
-28926.9560288663
-28926.7702207888
-28926.5158231881
-28926.7333058444
-28926.6435933592
-28926.3883799616
-28926.4626844167
-28926.5015310963
-28926.3573958713
-28927.0431334138
-28925.6297994866
-28926.3284647428
-28926.3238232994
-28926.5849833337
-28927.1897490913
-28926.9199076775
-28926.5029809181
-28926.7357132343
-28926.387612737
-28926.5807963203
-28925.6588119771
-28926.6049884526
-28926.7552592973
-28926.1863394856
-28926.4928290363
-28926.7385268899
-28926.9591038872
-28927.0341143413
-28925.4120204985
-28926.1769911555
-28926.5071309241
-28927.1808043058
-28926.3277030965
-28926.8967366518
-28926.8453785925
-28926.8280054934
-28926.6466940948
-28927.3041957593
-28926.498198928
-28927.1299950998
-28926.1704717195
-28926.8348943238
-28926.4467954257
-28927.1035981662
-28927.2889560316
-28926.8601607611
-28926.5090276927
-28926.7576545782
-28926.6426639548
-28926.6317568214
-28926.7955472271
-28926.3222759249
-28926.8907389938
-28926.7840485185
-28927.1603070693
-28926.3660177938
-28926.7084429517
-28925.6394759858
-28927.1918598772
-28927.242462685
-28926.2887995452
-28926.9632280424
-28926.700734923
-28925.8983298565
-28926.6766419761
-28926.8559541554
-28926.0963479478
-28926.3222963334
-28926.5824898199
-28926.8102084411
-28926.5215653314
-28926.5643471832
-28926.3748163182
-28927.1532412289
-28926.5041971303
-28926.9760345294
-28926.0652208617
-28926.5072098371
-28926.6657277678
-28926.950973538
-28926.9685220144
-28926.7382923279
-28926.4574248671
-28926.385264804
-28926.6083271517
-28926.5016910992
-28926.8656931047
-28925.6682239818
-28926.0373863515
-28926.9466220318
-28926.6713733107
-28927.053910749
-28927.1230147032
-28927.1183442797
-28926.280161704
-28926.6582489948
-28926.9318006789
-28926.6557960259
-28926.4027456601
-28926.8336261379
-28926.522909437
-28926.4239902569
-28925.4290318224
-28926.5020866164
-28926.7483368609
-28927.1292312767
-28926.338749144
-28926.7671396454
-28926.3235928191
-28927.1170559574
-28927.103276936
-28926.5873494984
-28926.0642945867
-28926.6316989973
-28926.2015639749
-28926.5404172324
-28926.3770970392
-28926.9672421276
-28926.5843337983
-28926.6402769735
-28925.9787492507
-28926.9254518581
-28926.1906433719
-28925.4108885055
-28926.4289025894
-28927.1182007397
-28926.496731827
-28927.1021510656
-28926.6178241919
-28926.7864982221
-28926.5232731169
-28926.8291263297
-28926.3281011989
-28926.7211362395
-28926.468017165
-28926.5826615236
-28927.126185372
-28926.7979981552
-28926.985786268
-28926.8079179241
-28926.5673567607
-28926.562654636
-28926.6250376539
-28926.6571865269
-28926.1749683983
-28926.3173185575
-28927.1562691741
-28926.9107816643
-28926.7506541812
-28926.7650522612
-28926.2831912819
-28926.4477597967
-28926.2515863642
-28926.9467904702
-28926.5112616101
-28926.6859024135
-28926.2055945231
-28926.3210926384
-28926.88883447
-28926.8667007417
-28926.755823253
-28927.3493577897
-28926.7691335585
-28926.7216946168
-28926.6219411361