0.307842907453958 0.0121173458246278 -0.106070548974186 -0.826016600056287 -0.0940413919423997 0.107408293257441 -1.19177357627889 1.49743901759122 -2.31529314066105 -0.554810865269395 0.756192416270685 0.303473577000443 0.120061713814067 -1.70656395598032 -1.15346364475984 -0.635971551253209 0.75134460376621 0.0237536384964649 0.380262361428909 2.26188081409028 1.32125272188367 0.580167328648008 1.58444278959872 -0.0273117863219444 3.4198721691765 -0.350915548006836 1.0907801820926 0.846748679679637 -0.95927912200704 -0.451619950347191 -0.519746692703224 -1.06283513338941 -0.803544398712954 0.043123034148788 -0.714668350351296 -0.685955827751209 -0.496616289290866 0.918225824833114 0.502140815797556 -0.397689803867427 0.547590954214602 -0.224300352732863 0.296945292338491 0.220334171046625 -0.287760545263586 0.401301944831381 -0.998358841414626 0.124611021395831 -0.0443029127795508 0.901599794835669 0.232764419964222 0.00722145371589302 0.460783100166706 0.477508888915237 0.849563007745082 -1.92089486135912 0.61141007256109 -0.743527682865997 1.03552463261838 0.772616357664124 0.24043838760257 -1.48541397432236 -0.0651429786798502 -0.916149145883305 -1.98948568759585 0.486409786347875 -0.583100184507914 1.00068028925885 -0.376579515164571 -0.541350890068031 0.0851348380857311 0.956048532554973 -0.0424915715388178 -0.750833725832167 -0.513135875672461
-0.253343776138744 0.133244010017562 -0.470087917697171 -0.256500832078412 -1.06146370767215 0.045591034797446 0.54763646271703 1.61138228037538 -0.763153417370983 -0.426324422082 -1.50356055394333 1.62485074021279 -0.338232559779141 -0.581847029474936 0.821552910165533 0.00164679072347687 -0.368276141797719 -0.214850010838699 2.53481561485928 0.0244630054919485 0.609375045460962 -1.02836539956682 0.939164621043767 -0.435655721961336 2.6896921043618 -0.070917930504989 -0.227370505430605 0.0357195464231805 0.0821991540138093 1.37726031864379 0.107422177207334 -0.765294116756411 -1.69786463293132 0.563038905352566 -0.11677507434206 0.342407000713781 -0.446025489870668 -0.0244537495253528 -0.580779250884054 -1.73776479093354 0.0967644458928046 0.165392810216285 -0.0375370583083105 0.170517787498262 -0.301224377117699 -1.03996801080466 -0.0825961321366896 1.27361226181583 1.03188112421207 -0.0208030420339168 -0.402838692396443 -1.30770327233855 -0.121859171104907 -0.526497120563471 -1.07086956950462 -1.53330794503085 0.335512334040751 1.58389128825573 0.320060526250039 0.0141744844005121 0.115838936164983 -0.172315759009468 0.294705862642709 1.03573340608715 0.683360557561861 -0.693901046632846 -0.210678141005891 0.728510648395097 -0.324028250597376 -0.497436470775315 -0.126132599460084 0.141470507439633 -1.5965670773983 1.75993591625233 -0.407653851907649
-0.193297235510535 -0.00608811202829177 -0.0369215365296995 0.581706390204718 1.01272564423218 0.675794061980097 -0.110806004328596 -0.904002232387608 0.303797021610924 1.12152233247897 0.301584588484379 -0.37226417784953 0.463951726064618 0.442049795107651 0.887670336439759 -1.25455576925648 0.344019338672707 -1.49307791466357 1.08365925845835 -0.13747270120086 2.20070915930033 1.01323755060696 0.247112710848586 1.13820235561489 -0.195727698072444 -0.0875866407928467 -0.499512378394573 0.524110366732708 0.635457587996967 0.448169274578295 -0.888576135615217 0.604889758314818 -0.554740417079195 -0.113280689842017 1.08696492408391 0.216498344223276 0.0122129908127829 -0.468098399099472 -0.780199051187431 -1.50793065572739 -0.679933021709453 0.00866049941133409 0.622620590769527 -0.419656526590564 -0.0777634891330251 -1.94447160804953 -0.0438982213511741 -0.431923253431638 -0.0673317576695392 -0.694549221404725 0.343568624521536 0.504017205914642 -0.217732730212879 0.443524579118558 0.243176611053784 -0.965438710666265 -0.580004063681668 -0.136352729242785 -1.30246079570284 0.137116089376744 0.407529410578974 0.0362556211551788 0.215015075576322 -0.605950080710387 0.39713701697352 -0.369528011279782 0.368538394184596 0.122119880830684 0.180487491962515 0.279701169460603 0.32684566398502 -0.316464583227627 -0.207703119075938 0.369754525351192 -1.68681352303648
0.25594367431139 -0.0492504840351113 -0.174786587870142 0.733288012709371 -0.595230900062069 -0.0678495775785295 -0.835826124876398 0.810093509299746 -0.0219047591689829 1.63938286487815 -0.320575003726647 1.12158275337203 -0.160026406472271 0.46123561408916 0.938665827288334 1.31056105202495 -0.554337011201735 0.536101985677745 -0.974867712415221 0.367125830838026 -2.71150147565281 1.70329454289059 0.228031278601461 -0.494445250903819 -1.41595437277656 0.850445409893868 0.18495041052272 -0.267750431034697 0.827559518265746 -0.0358365315565422 0.122786824645938 0.184954781395835 1.12589089160194 -0.430485493287113 0.831024335094719 -0.249358568298948 0.390911350997209 -0.661177090954275 -0.36735105935852 -0.027080387157053 -0.564837391084138 -0.025267760365404 0.0296517460993625 -0.224909703867077 0.221308875751184 -1.84972830530696 0.340962555704492 0.264871825423449 0.287610650026773 0.348680746294352 -0.0231957093988935 0.203349729453782 -0.203685258242874 0.336324287999337 -0.619673593849544 -0.841199213485176 -0.654771190739533 -0.0220081174626343 0.789819342912698 -0.883710068287734 0.214455603817651 0.355494937480036 -0.288535218245606 -1.12652672508502 -1.53119244244337 1.3992596943602 0.0948893413266349 -1.30803494447489 0.0672787929717974 0.29704685086086 0.704936215696332 -0.874106231614193 0.446755682790991 -0.245934889099289 0.676384901181119
-0.117509895245682 0.0731172510121898 -0.0126850451091613 0.205656522017566 0.913169238859871 -0.754969857349509 0.631590136621083 -0.777149724414529 0.771296868203877 -0.377424893446974 -0.303711403919914 -0.247363393277218 -0.45700435180403 0.786313131344227 -0.0840498331125738 1.03573392030751 0.712689116160925 -1.22846988428809 1.05210798232541 0.817053996179678 -0.563443082560576 -2.05936900672359 0.248892427536784 0.233455017916331 1.25940615286279 1.19656559587361 0.580244975923338 -0.187437437324936 -0.133862874228554 0.266775983440321 0.360973955484298 -0.754019835222538 -0.783804764396804 0.136577443542913 -0.693533893291218 -0.603809638435142 0.0371030563190476 -0.489329015368071 -0.203045825217225 -0.474985609577188 -0.0963070468768693 -0.0474792519829596 0.306986987654043 -0.184672988635033 0.377948369779995 0.767728435971069 -0.559027472274082 0.854584369623225 0.712166668268637 -0.286314557593198 0.03640217395961 -1.17889029921847 0.348003775181953 0.921678814593659 -0.0239737248132949 0.561254303570887 0.435958597757161 0.467295701107482 0.313842573579225 0.287881387049696 -0.583403060303739 -0.884929541886712 -0.168516698942319 0.71349618502603 -0.0555676812366456 0.155742436599582 -0.596886946752142 0.752757424222964 -0.260051266598395 -0.700106658014866 -1.11658093186781 0.52258904577864 -0.929831778503331 -0.38865135248677 -0.486869242245276
0.467984242178125 -0.342423198655323 0.135935696525615 -0.596045168012303 0.231379110297073 0.4289526023748 -0.338783546901765 0.655766207148566 -0.90487794967163 0.773034161711844 0.695968983836425 0.0618470832412475 -0.572803950110981 -0.268252053002145 0.25306172626776 0.110564320756376 0.661690797100334 0.541358089153161 -1.66203272935808 -2.8784135499417 1.47165935085104 -1.35540543885035 -1.06058516217611 0.322988754126647 -0.385793572800362 -1.11308346204557 -1.23902271464787 0.500573215010509 -0.547405577772505 0.273751125600697 -0.852787683662935 1.52245198176506 -1.53522264456523 0.257115839636657 0.368176897266999 0.206582632897497 1.48284724336335 -0.769999747329569 0.27938800925745 -1.23635416805631 -0.605466199345581 1.29651332294477 0.0826089876458503 -0.317570671235808 -0.0564079173153844 1.12002106611919 0.274692405981438 -0.346984847525882 0.736407273452107 0.917455522724208 -0.0785846990582062 0.476542411736541 0.124658586779726 -0.797215117332809 -0.316903213200188 1.27985592550497 -0.916981925766731 -0.7952808774245 -0.345834536566188 -0.210984102123914 0.050889818563275 0.61848240237072 -0.799588244323861 0.77893689729804 1.20410200956393 0.561976268965348 0.856890905076826 0.271245072644923 0.977679726489018 0.852130510034644 -0.51014902667408 0.0609729086183246 -0.434356544205563 -0.0667427182397991 0.0132031221283348
-0.286085472419956 0.605466713565947 -0.348148785325285 -0.4026096072232 -0.65879650776791 -0.647084367592025 0.185385698062899 0.662807426626027 0.036882198671668 -0.26337698681825 0.0255523813382204 0.557626993106123 -0.270189892453019 0.311812945792944 -0.00225588474750758 0.869985783818028 0.40135388108839 1.00810691690095 1.14706802895243 0.106865533660679 -1.57421391806979 -0.756009096710054 0.403762746394909 -1.26450284802461 -1.60309099118713 -0.544952489514474 -0.305387762314461 -0.294846244802743 -0.440858603628827 -0.300804773298696 0.522209808258401 -0.343363193485149 -0.84447042634619 -0.0405994977005561 -0.882488280697108 -0.109656978919819 0.522353789961 -0.368024173818171 0.0200196273056679 1.57391567025726 -0.52667786902227 0.174068222018246 -0.373231683468959 -0.269197961366184 -0.441437615761422 -0.790718714333575 0.309622109921789 0.785654672165019 0.437959943423288 0.930317716749603 -0.217426511984673 -0.423810912930914 -0.662110400919337 -0.0366950224582892 -0.601878483849032 0.777995616917298 0.184512294770526 -0.0591967914726918 0.716958944973537 0.157857682076873 0.197351091769248 -0.23042728839882 1.52500971386766 0.188338865627279 -0.364321015849359 0.300974723129799 0.556052964564495 0.303340393925539 -0.312556765552978 -0.630958931121296 -0.155454473194384 0.22965981450193 0.595981918907233 -0.109183639072524 1.42426905899147
0.519376454039398 -0.525731703548047 -0.199181716273722 0.747630390059521 0.436799348056266 -0.427933674718728 0.778951809688666 0.749573371714059 -0.0568203220492575 0.184140770555783 -0.118570731861617 -0.462078164159548 -2.19245797930067 0.912237985776275 -0.25193892609767 0.558754935479877 0.386312164039902 -0.672638548701528 -3.52519221352588 -1.1971721187958 2.32701119437115 1.38194203796991 0.136014886462044 0.1726032081943 -0.332033633261884 -1.92411259530202 0.204204363702781 0.662653931846649 0.0432587883255243 1.36831545536982 0.303880582420468 0.843204415804051 0.0483961068962958 -1.13526821420407 0.149661780766604 0.401362108614253 0.487760386140291 -0.222984719925364 -0.0188451479887526 0.235036502653272 0.42727598687007 -0.402343241073392 0.289693499620979 -0.213966580249181 0.402150408435983 0.772495001657648 0.758126656178993 -0.356155196430526 0.422960135334663 0.431076075377953 -0.1745191932796 -0.962555734181902 0.0279381067282503 0.161704050417734 -0.136014629351861 -0.472688330090183 -0.655676989914991 -0.146277953645342 0.35703579880803 0.336707382172323 0.463307922165854 0.0516526644768669 -0.0032948669978698 -0.154577727469629 -0.503677049142252 -0.302873996053191 0.0018938736095442 0.685113534791005 -0.0834057721036262 -0.225490515770954 -1.22390952096845 0.0252268798462732 0.999390624579858 0.00753229992739709 -1.37997540217852
0.123186888091017 0.298173250573514 0.264711131558941 0.231935239623362 0.236860442292983 -0.747506720061396 -1.07727521260918 -0.179233051378621 -2.32096010620924 -0.139474046866987 0.65779454938393 0.441520405240416 -0.62817339939637 0.847887163570903 0.0611408015679624 -0.291832913455491 0.893967221936819 -0.825550459294123 0.88282612347785 -1.77223838140887 1.5757285541591 0.184322033234948 0.0964399728415903 -0.0662575513240769 0.0921272066283817 -0.169645926866988 -1.1699086691883 -0.339041428415528 0.196496971740616 0.296635217457536 0.184722096680027 0.153423302747005 -1.54966066690354 -0.130875511009807 0.752209522422538 -0.156591928644917 -0.249054921172574 -0.809026502039413 -0.021284609407074 1.18584692944565 0.046144850132086 0.0615588627258662 0.760596713709117 0.174484483404867 0.361739886720088 -0.408253689965084 0.791659994714317 0.257755015552123 0.481052381460273 -0.740105289217254 0.675932644368848 -0.126768690053352 -0.543659996623464 0.940787500520205 -0.218204270288891 -0.700170678450486 0.199230310098349 -0.143380321880536 -0.0485416312599941 -0.234762423197968 -0.209112854210493 -0.0312391443705173 -0.134133354141294 -0.222437332345304 -0.610609174340383 0.214086393594558 -0.554943534123933 -0.715411913001147 0.418705218912677 -0.228037963466225 0.509404692693679 -0.355260967213313 0.840251248239671 0.664935270502294 1.81234525599839
-0.213909244678324 -0.115020297341634 0.46854165705533 -0.167746653943597 -0.635738095206852 -0.12611871551019 -0.35803698586146 0.553943375511236 -0.0554617518411619 -0.104419130267411 -0.474857311595765 -0.902750620015729 0.00637736098440597 0.506933349612639 0.105146752085903 0.722565746738855 0.292476717354255 0.634380296329306 -0.0958630175904611 0.737930651287641 -1.68458180664619 0.471752963243656 0.0066344711676186 -0.390545997426864 0.172765444719907 0.0865340317027742 1.86667572303342 0.790339219703153 -0.099537636328936 -0.143181061488546 0.279094646538405 -0.406640323565425 0.789222333067278 0.0526546228608465 -0.231375253644324 -0.0376722982646804 0.00794778998346869 0.868982796993315 -1.2123853283365 -0.883861506185647 0.445774550331852 -0.476716989550942 0.187255403315221 0.704786577569702 -0.393063877451065 -1.08857391961046 -1.18748446420254 0.816534376499405 -0.595807855313198 -0.477896611071522 -0.244314580724683 0.182388821767373 -0.274607045400611 -0.104138365947343 0.923349259453992 1.64787572845003 0.473382270474674 0.437504344178635 0.231543146593962 0.18003009294658 -0.26653815652085 -0.268389092729797 0.113045434024378 -0.771254959244013 -0.69237278370383 0.53825039836867 -0.0501724811521118 0.291673248031716 -0.803777340538945 0.295707563916505 -0.858651338501282 0.802979270530253 0.0664814942936551 -0.652518391314224 -0.213479356451993
0.31207031308634 -0.143471338885393 -0.0856518866641717 0.329077123265122 -0.364480938383318 -0.0090353660584581 -0.823560426476057 0.786513677287133 -0.193352514199925 1.64233089023886 0.00315731304985105 0.883640391428084 -0.532275671931175 0.358432164213057 0.935930946269501 0.561622742463431 -0.214214434465798 1.09693308588706 -2.11803332300685 -0.704131203712693 -1.57058917870686 1.47018790927251 -0.140397329534903 -0.29311332216789 -0.590621685807616 -0.33415247828174 -0.680291690415035 -0.0746863944603364 0.485583177108846 -0.0138577246547941 -0.0682527263458069 0.751255386532636 0.134994416144873 -0.34256538058664 0.861741545793315 -0.648442423579754 1.06023780631859 -0.848719429233962 -0.332051888084892 -1.60384483824431 -0.624433988891726 0.723989365823303 0.158324594169587 -0.251114116629924 0.139784378858124 -0.786744305121475 0.499257839313193 -0.0249139767533034 0.81612017199425 0.568358515043235 -0.0939588595735884 0.419706920186474 0.139157801341635 -0.304156204536872 -0.484152616049451 0.0619183027619974 -0.718544800583593 -0.480179235278083 0.889552640091058 -0.506496005190995 0.123339868650028 0.747791855254578 -0.608311894853378 -1.05814595786797 -1.47257954819676 1.46983206877895 0.77182214430818 -0.473325706234368 0.670244338675452 0.737529816512013 -0.0372226125542415 -0.793099297519941 0.560692003600201 -0.544476578565347 0.820518041678102
-0.167833042965156 0.379451178800873 -0.363848961552981 -0.562640641678769 -0.281769877994732 -0.748813611122665 -0.44116302208575 0.834923411023139 -0.833970817794336 0.157089436849433 -0.363285376031379 0.113616475741293 -0.150277816765581 0.753014277295993 -0.110386143399409 0.771988751706902 0.217675908862389 1.0028850090799 0.140926976512321 -1.47704606629953 -2.90923386182376 0.299338216813651 0.387929387092309 -0.469272621306204 -0.433479284260441 0.133714007432474 -0.0983125063059278 -0.359878666103812 -0.379829902100745 -0.394229357911568 0.138370272850455 0.253054270072447 0.571604016885928 -0.303382045775219 -0.82789119040209 0.149156559256591 0.515859958063599 -0.617029986945752 -0.319968995024815 0.809894506017939 -0.792898494466852 0.349469560336449 -0.388671664191244 -0.254090424110794 -0.391653113875778 0.341955001011693 0.54694817875657 0.683405551843923 -0.218939348302696 0.666906791387169 0.20867962355178 0.0211395992637421 0.112868285108144 -0.431463026203688 -0.541487415575317 1.25854174842683 0.53621202883616 -0.169734372770014 0.473757908452348 0.109562619482579 -0.0941609481775935 -0.210195030971635 1.3508206500633 -0.192955021856679 -0.286459310626347 -0.197401742475341 0.282234990316164 0.454171511805393 -0.268889429146329 -0.255243306172319 -0.492360344428148 0.273739041422086 0.801048887274692 -0.490101631468625 2.18829305144281
0.0916428110432091 -0.202769431770271 0.0220181447597796 -0.137997205974613 1.45827728003519 0.737016110365954 -0.639890167555553 -0.0415544049210078 0.543445309620481 -0.386706828171133 -0.762219336075372 -1.09259692264718 0.290911430558857 0.361406414812461 -0.086179476760124 0.778641477697529 0.0994021392623829 0.10704011147508 1.11406279473342 -0.646779692024918 -0.344864974065294 0.56045906177421 0.511056368510637 -0.79928639696877 -0.95085902061701 -0.361110480991583 -1.20064387759972 -0.0343108397293585 -0.475946430331854 -0.679404917393135 -0.33351870168012 0.667129448805831 -0.963230648412835 -0.0963630968968097 -0.0768458628891392 0.0162925580898177 -0.334659756673218 0.323552339648249 -0.250195719055489 1.67271308636873 0.136488226309339 0.148788891694597 0.651787941283717 -0.476471449325974 -0.294295000569935 -0.969087361276235 0.701678372564844 0.737361409342009 0.0486061659159805 -0.0119929044959529 -0.459393419626442 -0.678105225416995 -0.478292046533303 -0.144689526933455 -0.191106142529197 -0.206562578303207 0.0685633154471277 -0.552980240764921 0.00592638972305103 0.394595997032829 0.00533812162386054 0.0958630175904611 0.119001905638865 0.249111742523064 -0.171356995136268 0.891529303179597 -0.30498358510645 0.328696857304151 0.986995856867544 -0.578010945541404 0.363678497501511 0.299700999282164 0.725303970190069 -1.14125399637944 1.24243173856709
-0.0172914311515987 0.00792387873642992 0.014788720628207 0.132364693190974 0.0347155311577352 0.0232075364673212 0.00132925964720928 -0.00697437082982569 -0.00820747126851344 0.0148717672173847 0.0266777526101421 0.12811311920137 -0.0576294477958276 -0.0454293124922053 0.036173603006734 -0.218222782222083 0.0923444647331963 0.179066701090082 -0.276914095074578 0.179918250016882 0.685709516195691 0.293088125369935 0.181153150226853 -0.232091048394388 0.352623273843735 0.0277208486234357 -0.366416206732359 -0.124552143163876 0.0721165781791262 0.0224176939844921 0.0464261286725206 0.0436195139125716 -0.503737984255673 -0.169876297591147 0.00654242572202848 -0.206656166409896 0.200199872599244 -0.00783363306212228 0.016548125611931 -0.548102346369012 -0.0921076662544575 0.154315732192936 0.187844956965328 0.0852811337799791 0.0778560487989817 0.385937297392778 0.110525497118711 -0.0225151387439296 0.113642186759614 -0.00256081742479775 0.0438421713312337 0.0624098974322999 0.0357172324315316 -0.0122847245538993 -0.293719073759539 -0.387186338662825 -0.273753182482162 -0.0215715443715393 0.0852700780421009 0.0549994677317456 -0.0165548104766946 0.247325598080286 -0.0445430536906714 -0.342272532087961 -0.400063445078846 0.22656420789605 0.154468712751947 -0.186636024883862 0.13713023043682 0.0418513671826184 -0.0847527723534771 -0.258022667252847 0.099648965038267 -0.0233070381082245 0.127494769210744
-0.315612777190644 0.342232165789196 0.100745797079852 0.576429203694279 -0.073371532983387 0.590925847154357 0.876469331308101 -0.895596529167837 0.875699543419562 -0.663100532234889 1.10163743090931 0.261393638864948 0.82730215097235 -0.74468519291082 0.818352916825268 -0.42054535649393 -0.0944741083807465 0.446152759411358 -2.22686523534874 0.514873426290612 -0.267270663432822 -0.230798298393195 -0.61603188521452 0.0126271953179385 1.01645399899895 -0.827551290739883 0.695557864653468 0.465832229944635 -0.535642015559978 0.299205547959113 -0.152570211159105 0.66213302661546 1.22834338607795 -0.0686743870462756 0.106743663433836 -0.514673137457889 0.038960934502942 0.246945589229498 0.421398962302196 -1.60562584048343 0.0383850076925458 -0.0270292222305937 -0.634384410092237 0.221454400114882 -0.489521333785114 1.31815737238797 -0.512322379052776 -0.746146092971834 -0.797600268387261 0.491010001745915 -0.958186917948753 -0.0135041981528767 -0.154197461508658 -0.435005747418175 0.932025442586502 1.16872390546406 -0.424677631358523 -0.160648098895279 -0.509470512900582 -0.0777979418975756 0.180145792529026 0.338247215059584 -0.298649932853191 0.0411188602706456 0.662599424487808 -0.154291820945897 0.278041009007599 -0.950509093657657 -0.640189443808812 0.16113557980265 -0.150250048865794 -0.165824241103716 0.577857193651842 0.169117565440486 -0.551139331853119
0.0471041282256523 0.0257660399004701 -0.31017515392588 -0.457384103544635 0.329206706797462 -0.765654071012909 -0.940891115924039 0.261095391052422 -1.40988091602871 0.860158004174908 -0.709669871279459 -0.441100801421413 0.272374814789959 1.33755993525393 -0.204379198627365 -0.335657344184083 -0.200943178138912 -0.349645937922132 -0.895517339231408 -1.96035330406657 0.322338522473303 0.856446104459868 0.175245786657359 0.720038610748058 2.38049834000524 0.619708046614094 0.308874433509007 -0.127165411066049 0.0481515951120606 0.245727915401803 0.137175224718883 0.355433745256432 0.657407598558195 -0.359596102012461 -0.326124984141475 0.738656473334851 0.315189573829076 -0.813340810913721 -0.202549602563624 -1.32293936468554 -0.885218790842826 0.492586601389375 -0.0156844925065198 -0.171313800625489 -0.315712021721364 2.17907102339134 0.477201385136115 0.140717688823186 -0.591168302057126 0.357513252418256 0.859241406371755 0.684748952551209 0.678222210550357 -0.479439272170797 -0.661336242157684 -0.30681549516184 0.510011986946427 -0.142366536428129 -0.45717404452495 -0.0519524549504928 -0.782606888053217 0.454522981425845 0.372993856549488 -0.689406760630289 -0.00694917403187085 -0.929003112382837 -0.231191934083694 0.137695358619522 -0.371870027938665 0.221942652352803 -0.535451239804034 0.334758229873388 -0.401796624823882 1.11603225873683 0.128008732466986
0.00231913385257789 -0.124181904500049 0.295191286668614 -0.450036665838968 -1.45518141631913 0.645642236574385 -0.342092812069895 0.0521841112255674 0.717366464613929 0.770970852491563 -0.64338969425926 0.466974313378466 -1.15696779944685 -0.439521630676121 -0.730089304920023 1.76363907422114 0.98464741245408 -0.734700576055941 -1.16816211971374 1.16194930924659 -0.187300397597283 -0.483042928498706 0.156439976526638 0.243486685934738 1.34371026794656 0.500816441243828 0.451879631632236 -0.970320975935289 -0.155062894385351 0.135156909780664 1.06381112364488 -0.269376138723151 0.331308068324858 0.0332672294956984 0.328180837166443 0.267468381163713 0.05377613748002 -1.01269376256946 -0.771003505484831 -0.565371151824488 -0.153900242136864 0.0654111446009409 0.479833164971479 0.248556641637508 -0.580597731094706 -0.829622313265661 -0.609623671008129 0.255040703347947 0.585803698084395 0.0317592782711564 0.00266109039625068 -0.526923409247238 -0.474426652038884 0.445229733853625 0.892039666893274 -0.221508393253357 0.298148567995926 0.409010365234279 0.26963222046563 -0.458479907145487 -0.241759933944282 0.136509052234179 -0.00587856722897348 -0.396839026271176 0.0306768443998312 -0.241682286668952 -0.626065095894026 0.932142427719863 0.756171590345844 -0.233989807097414 -1.08103004972481 -0.0422321473639563 0.593012296291127 1.80640241122362 -1.62517238505198
-0.294582449754767 0.335696939152298 0.110802661896214 0.337626293967125 -0.195918473828387 0.126917042629065 -0.241095818341044 -0.226501987231712 -0.608394427222189 -1.57260543676361 -0.191337798804271 -0.143858546821312 0.90201039979826 0.564819650481497 0.917327738963152 0.734031061138856 0.462773904315321 -0.131316454974017 1.70730726151999 -0.244280899290682 -0.699978874253809 1.08053151307956 1.35588160690966 -0.126511322759956 -0.0589126847202418 0.680386306962457 -0.371913993779995 0.11010846440154 -0.334185388385191 -0.10417333293226 -0.622546285926578 -0.227138592045347 0.864118272326933 0.515540112995682 -1.03556294203568 -0.341639012596525 -0.186946099764816 0.0799095878323009 -0.999904073615734 0.863184191031321 0.0784021508281253 -0.18817405799984 0.199341124587314 0.356621594302874 -0.263334306527837 -0.799906032510312 -0.267118711314544 -0.375968364259075 -0.505394288055929 -0.410670525687283 -0.111589676167028 -0.0860771469072054 -0.193735351262729 -0.0603360466945069 0.177117291680964 1.26260434643177 0.665150471725643 -0.298797256988171 1.16640734271331 1.74368243891036 -0.345467640334744 -0.437015834830531 0.191875673307552 -0.561655909677065 -1.32089790983083 -0.0678454638155981 -0.57991458933791 -0.690623663127434 -0.690612350279373 -0.904661977117731 0.676639697372683 0.874361542026123 0.431766159109695 -1.24515556384804 -0.208685537085993
0.0641890999001313 0.295575409282334 0.375341272522219 0.0257732389856 -0.0807768204802771 -0.385430533221666 -0.809192338107586 -0.091120363150921 -1.52114817602599 -0.310304480348036 0.773558666485598 0.474799461804542 -0.713160142016571 1.09480961288391 -0.0477499890058824 -0.422297048172158 0.806334558421177 -1.00362548640755 0.702759006664887 -1.66755237077129 1.62814380743937 0.551231377298709 -0.126597454671332 -0.104368222451135 0.66727265917788 -0.455397156048768 -0.491710112774803 -0.0425440220161932 0.355650746251063 0.957438727315604 0.0578284510776342 0.0789621368071624 -1.36894306132705 -0.232812756678666 0.818524152207288 0.0770345817636173 -0.0371292815577353 -0.452925555857545 0.340494615171045 0.357875263556219 0.00603926109348137 0.0241344186778028 0.500751649477658 0.34000996247569 0.650058875301612 0.786997301541756 0.709669357059093 0.266640743483951 0.644672674073491 -0.699648487668381 0.583007624841958 -0.0402110042137218 -0.351092182702703 0.332311569369937 -0.423314690277313 -1.30710729093386 0.273718472607429 0.0416621340877739 -0.540124474494107 -0.192736478200948 -0.39112989465294 0.480255082782131 -0.72209240689156 -0.211096716384161 -0.265168273464693 -0.47540675605729 -0.466849100719242 -1.4425938159694 -0.0422676285692396 -0.244782007037764 0.310241488353149 -0.329446076378032 -0.0561896307698369 1.41047329789083 0.701801014122237
0.275544212018421 0.0242745437276536 -0.630336724477921 -1.97577194464365 -0.717246394158369 0.317691770132101 -0.621069187924022 0.253762865737381 0.252939598930734 0.0338269583645523 0.30765418857948 0.434951240059333 0.611363021397562 -0.743033774204046 0.166817457741466 0.438392402751451 -0.0380996153891797 -1.0582022649981 0.218660383753911 0.165265283565412 1.37655583674179 -0.432708982151536 0.977837335031327 1.10654386453555 -0.285897267765844 0.636830556375322 -0.446115735544975 0.0445505098859845 0.144214387314878 -0.436262759103901 0.180787282436141 0.126218988481643 -1.22093527036905 0.714924432093776 -0.656804932288745 -0.387893134556476 0.234213492956809 -0.062194696208951 -0.333383718833934 1.59309660414529 -0.061530837715896 0.871469823795531 -0.190494734513517 0.00458144635466578 -0.239402233564223 -1.15793067708298 -0.131130307201371 -0.842408659787008 0.315798667853106 -0.0548302892311917 -0.655947212717548 -0.478886742387073 -0.293805719891281 1.13954472788144 0.366357328500403 0.339137330513866 -0.599700246376854 -0.37408966015034 0.778416249177034 -0.227971886149139 0.416907247401471 -0.773466363929825 0.740639049957603 0.32375005737914 -0.533886467229002 -0.0269950265762264 -0.229276977439126 -0.146699357235628 -0.341740828229077 0.0268528446449099 0.0116609752494254 0.645885205697521 -0.0488987573044765 0.44287486168558 0.394256611590989
0.225601844480285 0.0273539523919913 -0.583293788475873 -1.74060920089042 -2.66005527065306 0.644320947342856 -0.247529743565757 0.0398549066099723 1.35591940210659 0.000513449035875614 0.610934161611963 0.389872882967213 0.352524029313015 -0.528272980598921 -0.528486124940804 0.8504847477519 -0.542453121423464 -0.265033033508323 0.0635895189528795 2.32786454306924 -1.58200564217205 -0.00189901581320845 1.1533340612275 0.624509836395773 0.62433114481844 -1.38550661354997 1.54147299311913 -0.321022375445437 0.351168801537301 -0.449518588819794 -0.440705108849449 -0.212689513969164 1.29787060760195 0.802248820499745 -0.61978132301631 -0.271300094224131 0.380038161349147 -0.0354552371548379 -0.44135585472316 -0.569127017380858 0.407506270662485 0.101292927549729 -0.527784985471183 -0.116573499958421 -0.351866855684723 -0.743933402735107 -1.12449529752746 -0.685930373843071 -0.639667767247074 0.0162568197743511 -0.0429433141307224 0.238786711785612 0.71113051423029 0.207877696890339 1.12959199268928 1.4395138930847 -0.981187223608405 -0.660895812413841 0.795782242281765 -0.488657186459336 0.884354129296682 -0.156003403435543 0.406680946974372 0.171790997125531 -1.00055661926073 0.364478110171302 0.0454863909528785 1.42603489172978 -0.268863718128008 0.103014794446704 -0.565946564414517 0.167340162743938 0.0208176973143599 -0.358945613248933 -0.161194458034606