-2.63020602559775 -0.295086689483667 -0.822308241361151 -0.295086689483667 9.59031740821917 -2.6931578526876 -0.822308241361151 -2.6931578526876 -1.24920031881419
5.92593710402493 1.1862683030857 1.85911752283135 1.1862683030857 -0.810661710536926 -2.06718736186916 1.85911752283135 -2.06718736186916 4.41810632242625
-3.1196506444491 2.6767372813483 0.261346394376247 2.6767372813483 -2.58595379698603 1.21319747284132 0.261346394376247 1.21319747284132 -7.10311989767864
1.09959414881508 2.93757275327732 -3.26286104049484 2.93757275327732 4.24870407046699 -2.50252461454467 -3.26286104049484 -2.50252461454467 -0.347240257520552
-2.22091073094255 1.8943062116863 3.05701830023858 1.8943062116863 -0.337055863872458 2.37506806403151 3.05701830023858 2.37506806403151 -1.58860438166244
1.24494134198766 -0.715940707852326 -4.16836589905132 -0.715940707852326 2.85580793465539 -2.16572064125329 -4.16836589905132 -2.16572064125329 -7.73613709318208
-0.856326870139285 -0.864534475923368 0.842647527165814 -0.864534475923368 0.0984912694089912 -2.8781337616183 0.842647527165814 -2.8781337616183 -2.64832079966399
1.5330728037172 -1.74224413467362 5.71394855295594 -1.74224413467362 -4.22679140725357 0.27804481797866 5.71394855295594 0.27804481797866 -6.26748731902355
-5.56385747193647 1.04699189865997 0.435789821693546 1.04699189865997 -0.696167388114218 -2.81755935032054 0.435789821693546 -2.81755935032054 -1.94323889044481
-4.34863617977467 0.442675539258499 -0.0402432308416817 0.442675539258499 -5.92995842696546 -1.10313797483669 -0.0402432308416817 -1.10313797483669 -0.317211348987374
3.17638692908831 2.4928858521264 -5.09537100230791 2.4928858521264 4.8701942626674 -2.14615352737021 -5.09537100230791 -2.14615352737021 -2.36335940897035
1.17603484455988 -0.77305786985055 0.581164072369917 -0.77305786985055 -1.70511345761362 -3.02918066022999 0.581164072369917 -3.02918066022999 -1.42001410135668
-4.51363648708661 -0.147898282950653 -0.334140565184809 -0.147898282950653 -3.53860336244896 2.96344337319642 -0.334140565184809 2.96344337319642 2.10618110350097
-8.07953442906711 0.205784383331828 -0.761202427664335 0.205784383331828 -4.36942180919134 0.861097759378814 -0.761202427664335 0.861097759378814 -2.3994858677818
3.78317837566089 0.776732961549903 -0.0950547330568063 0.776732961549903 -1.39051495214528 2.33291473416562 -0.0950547330568063 2.33291473416562 3.68269194357227
4.44879217051674 -0.162224189159757 1.69373051732899 -0.162224189159757 -2.84304765408795 -3.68441378769618 1.69373051732899 -3.68441378769618 -1.84770601890435
-4.58844522792328 -4.75409307008657 -1.03805981088998 -4.75409307008657 -4.58568443055389 -1.58469769002886 -1.03805981088998 -1.58469769002886 -7.94281403173
-2.67590849494438 0.938412014306681 1.46293925374448 0.938412014306681 -0.614680358716167 0.817524877092502 1.46293925374448 0.817524877092502 3.64095665812876
-3.35560746880423 2.12091952034805 -0.960312848799248 2.12091952034805 0.26614384666722 -3.33640121182824 -0.960312848799248 -3.33640121182824 -4.0634952259191
-2.46100244443162 -2.74315559092697 1.44734114035575 -2.74315559092697 -2.779730998806 -1.58319265533499 1.44734114035575 -1.58319265533499 -2.86333193110091
-1.07045772216027 -0.262467999183527 -4.2020612026147 -0.262467999183527 2.62467999183527 -0.841441526794248 -4.2020612026147 -0.841441526794248 -0.252175136470447
-8.62123694371661 2.82836170292967 0.0513780509160704 2.82836170292967 5.30735265963007 2.45073302869656 0.0513780509160704 2.45073302869656 3.77628674233117
-3.37448043574648 -0.0236115249148441 -0.580449987489919 -0.0236115249148441 9.32655234136344 -2.76845129626548 -0.580449987489919 -2.76845129626548 -0.926752352907633
-0.0801201430188788 0.989483766283153 0.51877792604724 0.989483766283153 2.87431013080228 -1.47621363512284 0.51877792604724 -1.47621363512284 -1.90886240742479
-5.16778508218761 -0.251553559556222 1.93860297527567 -0.251553559556222 -0.828486179842776 6.03455115152808 1.93860297527567 6.03455115152808 2.58936109673633
0.722363872855734 0.510542887582248 0.768529985030724 0.510542887582248 -1.18945630192034 4.47268157365937 0.768529985030724 4.47268157365937 5.71645094872676
0.749339557458109 1.38150965684095 -0.130793813665415 1.38150965684095 1.47415527485395 1.32428736336233 -0.130793813665415 1.32428736336233 -0.997302829198792
0.524968118046827 -0.976495100408346 -1.62386511126402 -0.976495100408346 -2.57587983311059 -0.712651020353723 -1.62386511126402 -0.712651020353723 -0.160482481682709
-2.35133917583876 1.05390746349605 0.972050573127424 1.05390746349605 -0.266034893698032 0.583230343876455 0.972050573127424 0.583230343876455 4.0723802958391
2.99152723942931 3.50215428695887 -6.4563185716909 3.50215428695887 -2.73496828384128 1.05363532246344 -6.4563185716909 1.05363532246344 3.58933451458587
0.224621418779849 -5.14862577877407 2.04430729451323 -5.14862577877407 -8.98990442352609 -1.45877730398599 2.04430729451323 -1.45877730398599 3.77313506826825
4.82549113264405 -3.19101002987248 1.97395025488566 -3.19101002987248 -3.78696698580611 -0.817240551385781 1.97395025488566 -0.817240551385781 2.15500046934651
1.9963663339457 -1.08792300909351 -2.33323589513709 -1.08792300909351 -7.11015672186745 6.21275830066088 -2.33323589513709 6.21275830066088 -7.72314887419933
1.35514038428291 -0.197846241347426 -1.4955473942714 -0.197846241347426 -1.48703787851452 0.642468439644329 -1.4955473942714 0.642468439644329 -1.58489730971863
-6.99746906798704 0.481486356113979 0.81972057321884 0.481486356113979 -4.6039645787097 1.53200204218084 0.81972057321884 1.53200204218084 0.915221999224918
-1.52853680424894 -0.246702279554322 -0.317915308704023 -0.246702279554322 -7.14164949472717 0.0330631921052184 -0.317915308704023 0.0330631921052184 -5.80640519817027
-4.9335910013174 -0.78707093795336 -0.26601352258354 -0.78707093795336 -4.37139747420786 3.23604079019151 -0.26601352258354 3.23604079019151 0.863858346534175
0.153183044124969 0.206797109568708 -4.22785201784914 0.206797109568708 2.99728156337856 -0.204244058833292 -4.22785201784914 -0.204244058833292 -1.28163146917891
-1.43241706014538 -2.59222879742573 -0.156128503095431 -2.59222879742573 -0.614601091550268 0.0470863739494157 -0.156128503095431 0.0470863739494157 2.20066842458322
-0.765424060730371 -2.77876721717296 -0.868996293370454 -2.77876721717296 1.19739605539999 -0.156621424967931 -0.868996293370454 -0.156621424967931 -3.80691108752696
-0.884998074863932 -1.24096396719809 -1.37666367201056 -1.24096396719809 9.60124578107937 -2.30886164420057 -1.37666367201056 -2.30886164420057 -1.88799589304305
-7.44357782916913 -5.38654440300768 -2.29822198152 -5.38654440300768 -5.58614872468373 -2.30653882825651 -2.29822198152 -2.30653882825651 -6.65070510695596
-1.00462250160429 1.38072489542097 -1.12578300431033 1.38072489542097 -3.32686547013681 -0.100967085588371 -1.12578300431033 -0.100967085588371 -1.2545160384355
3.0704819988845 4.59947710329241 -3.25536049190114 4.59947710329241 9.31387867521678 3.00052797449983 -3.25536049190114 3.00052797449983 3.44023898491779
-1.74232240694296 1.67424323908846 -1.16743165617162 1.67424323908846 10.9077955606878 4.39740995326849 -1.16743165617162 4.39740995326849 1.99194602240947
4.32416964562912 -4.11969173804586 1.11709509511275 -4.11969173804586 1.7111572266178 -0.389584223921788 1.11709509511275 -0.389584223921788 -3.56006799097589
-0.0447712423641427 1.52222224038085 -0.787566854314693 1.52222224038085 1.56902853921609 0.00407011294219479 -0.787566854314693 0.00407011294219479 4.27361858930453
4.84831450699945 -0.208006190624349 -3.74632426305343 -0.208006190624349 1.39187121173102 1.55562076605231 -3.74632426305343 1.55562076605231 3.75960125394435
-1.5580522348738 0.216320081819034 -3.26123060058823 0.216320081819034 -8.20921019358816 0.416210790335357 -3.26123060058823 0.416210790335357 -2.94085782118535
1.35426837705108 2.95932719429681 -1.67778804490217 2.95932719429681 4.79260531211966 1.56744025121653 -1.67778804490217 1.56744025121653 1.83327811782285
-6.68528404917791 0.647156268877694 -0.882848984086237 0.647156268877694 -3.60130479255087 1.22240628565787 -0.882848984086237 1.22240628565787 -2.3808959027846
-4.59741133491392 1.6781722190263 1.74581947126612 1.6781722190263 1.44140683618693 2.59141012426387 1.74581947126612 2.59141012426387 -0.322625356836065
8.3159944154891 -0.303870458399838 -4.38535352194299 -0.303870458399838 5.55929910583301 0.839469467809625 -4.38535352194299 0.839469467809625 1.25483196490293
-7.68248813826406 -0.0217746378564557 -0.287029317198735 -0.0217746378564557 2.22101306135849 -3.6719957476114 -0.287029317198735 -3.6719957476114 -2.3437428383676
0.951478416180369 2.79949423763306 -3.06171269878513 2.79949423763306 -6.76024166036814 -3.1566108085354 -3.06171269878513 -3.1566108085354 2.73206663333681
2.24036962242509 -3.49957498300053 -3.87653454954222 -3.49957498300053 14.923321279686 -4.03694287573017 -3.87653454954222 -4.03694287573017 8.75294766565601
4.46098493156841 -0.195150911978655 1.40728544976157 -0.195150911978655 -2.88878321816291 -3.55944269031491 1.40728544976157 -3.55944269031491 -1.67664868038
0.0290084826458104 -1.23154194505395 3.93987937025825 -1.23154194505395 -7.29167768324235 -0.34282752217776 3.93987937025825 -0.34282752217776 -2.78217719921182
-1.54709488718062 0.355749091704634 4.07318921277321 0.355749091704634 -2.19792268285731 -3.58782611091263 4.07318921277321 -3.58782611091263 -3.26241221307428
2.40521624967654 0.565933235218008 0.593141563834259 0.565933235218008 0.497912413677382 -0.612187393865634 0.593141563834259 -0.612187393865634 0.682929048267885
-8.64844776319432 -1.868601421799 2.03040217849121 -1.868601421799 -1.53908036853561 -0.0335440593142376 2.03040217849121 -0.0335440593142376 4.42189628960038
-0.615378003398712 1.11752645417206 -0.866452228785387 1.11752645417206 0.0910759445030094 0.310150513712951 -0.866452228785387 0.310150513712951 4.40856801634838
-4.79372031153783 0.114786917380039 0.338894708455354 0.114786917380039 -1.56328849384244 -1.64254612727151 0.338894708455354 -1.64254612727151 1.72726980438535
-5.78800095608036 0.257244486936905 0.741630382552141 0.257244486936905 -1.11107725208918 -2.17563156505148 0.741630382552141 -2.17563156505148 0.391340017361462
5.02735026328004 -3.18164474704086 3.62863193328654 -3.18164474704086 -4.06557446366153 -0.698103583012912 3.62863193328654 -0.698103583012912 1.180247064806
-7.15284925626846 1.93760726688791 0.465646606194692 1.93760726688791 3.45871951379057 2.61279484587022 0.465646606194692 2.61279484587022 1.80308713620945
-4.43973091521471 0.152999957693553 0.196714231320283 0.152999957693553 -1.77316022398421 -1.51633886642718 0.196714231320283 -1.51633886642718 1.9507494605928
-2.41575974025098 -0.329047864733391 -4.72732099000305 -0.329047864733391 3.15611743590111 -1.82073151819143 -4.72732099000305 -1.82073151819143 -4.50795574684746
-3.16112197559786 1.94277288083619 0.924737939042083 1.94277288083619 -0.153665651591563 0.562526046004828 0.924737939042083 0.562526046004828 -4.65387401963018
-7.6205468900823 2.08467164077844 0.268656568328325 2.08467164077844 3.87743758712323 2.57806976145835 0.268656568328325 2.57806976145835 2.31199642936395
0.114773920311096 0.327925486603131 -1.710677955113 0.327925486603131 -2.13424837530871 2.38292520264942 -1.710677955113 2.38292520264942 3.96243296312117
-4.44876628847635 1.68680102799812 -0.268791058120026 1.68680102799812 -0.18102254934614 -3.15418078406153 -0.268791058120026 -3.15418078406153 -3.3132612062142
-2.44518697697876 0.578838510037008 -0.36245028198579 0.578838510037008 -7.32474151953373 2.46953065263452 -0.36245028198579 2.46953065263452 2.04486875508401
-2.40804689065651 2.85611954268507 -1.5036548506725 2.85611954268507 -8.99443998427867 0.959370279496716 -1.5036548506725 0.959370279496716 -5.36862508841572
6.41455922248344 -0.743133795327442 -1.67406313460045 -0.743133795327442 10.0470616010876 -1.49431597110969 -1.67406313460045 -1.49431597110969 1.73845017823893
-0.465918991769625 1.78294742890059 1.04255140732609 1.78294742890059 1.17863665739742 0.740396021574502 1.04255140732609 0.740396021574502 -1.66300788646485
-4.70387843397496 -0.758177874168116 -1.80414577910685 -0.758177874168116 1.66124314313799 -3.39195284542751 -1.80414577910685 -3.39195284542751 -6.43855765393029
8.06164045843503 -1.57930816849428 -2.2636026293962 -1.57930816849428 5.95010326479481 0.484437031051202 -2.2636026293962 0.484437031051202 -1.50544781398423
-0.871896566061788 1.91598587087559 0.259655717165736 1.91598587087559 1.42127339922298 0.743435316516635 0.259655717165736 0.743435316516635 -2.93820943108596
1.18078742333375 2.83339054013489 -3.55983692531485 2.83339054013489 -6.91996350418847 -2.78096657419407 -3.55983692531485 -2.78096657419407 2.89330364406726
0.849024941657668 -0.887411707636871 1.1922477904129 -0.887411707636871 -1.2870856828321 1.97804747045776 1.1922477904129 1.97804747045776 0.24386886622082
-3.71660063484556 -1.08128435249228 -2.43414710049425 -1.08128435249228 9.22863621778296 3.51794606775977 -2.43414710049425 3.51794606775977 2.50707092891815
-8.50697728843055 2.63158081828378 0.0231517374042561 2.63158081828378 4.97247871138078 2.4643738259197 0.0231517374042561 2.4643738259197 3.51649167017979
-1.43582006661122 -0.695989116258112 -3.9950871319068 -0.695989116258112 1.59474671520559 -0.937119203780608 -3.9950871319068 -0.937119203780608 -3.80053899311024
-4.50959109314198 1.16427992855655 -0.510369283750817 1.16427992855655 -2.59171901904712 1.81819057336228 -0.510369283750817 1.81819057336228 -1.00478952738442
6.17189976100293 0.159014011309682 3.34198939023739 0.159014011309682 -3.56568706716457 0.975645289730594 3.34198939023739 0.975645289730594 8.04503091117631
0.239434600542637 -4.35567198859478 6.94105623913496 -4.35567198859478 -8.7164383303926 -0.942455342561444 6.94105623913496 -0.942455342561444 -3.85387819809585
-10.237361028655 -0.586804582587503 2.41462155943101 -0.586804582587503 -6.46872754386156 0.584822134673356 2.41462155943101 0.584822134673356 5.08299645187283
0.50529497184634 2.64630765887905 -2.28481204660954 2.64630765887905 3.7986997488211 -2.36869500636268 -2.28481204660954 -2.36869500636268 -0.24765445260453
-4.89752624981007 1.46980631013337 0.0109687038069654 1.46980631013337 -0.378420281340308 -3.04929965833639 0.0109687038069654 -3.04929965833639 -2.88202692528017
1.12532651231656 -0.866060109969119 -1.80383220356626 -0.866060109969119 -6.27755672066789 6.13137460019539 -1.80383220356626 6.13137460019539 -6.84849443647555
-3.33176813286327 -0.741622806982854 -0.1881729510255 -0.741622806982854 -6.97900268362223 3.76345902051001 -0.1881729510255 3.76345902051001 -8.78324921404321
-2.69876445584444 0.24706998539421 -0.988279941576838 0.24706998539421 -7.2817769321678 2.40553853911285 -0.988279941576838 2.40553853911285 0.556586230833109
-5.89213049768901 0.668377425121394 0.684812935575199 0.668377425121394 -0.912170830186165 -2.56941813427815 0.684812935575199 -2.56941813427815 -0.969695116774481
-4.04423311779735 1.46988092256901 -0.552235636329665 1.46988092256901 1.34899351959137 1.24733820345108 -0.552235636329665 1.24733820345108 -7.84943887061618
1.13537905988898 -0.210999648297951 1.56139739740484 -0.210999648297951 2.986147403531 -0.669170313173503 1.56139739740484 -0.669170313173503 -3.34786108632749
3.5534546111135 -3.06682651538539 -3.47056740799497 -3.06682651538539 14.5961690910975 -3.45452472352042 -3.47056740799497 -3.45452472352042 7.26466228622677
-0.0821603182140255 -0.928411595818488 0.706578736640619 -0.928411595818488 -0.83803524578306 -2.99063558299053 0.706578736640619 -2.99063558299053 -2.05126927807684
-1.1731324355248 -0.424153146024985 2.74088836766779 -0.424153146024985 -7.94616020401239 0.0268451358243662 2.74088836766779 0.0268451358243662 0.931526213105506
-0.362352306770098 3.02509274288369 -3.3517588376234 3.02509274288369 1.47960525264457 -3.48077821957942 -3.3517588376234 -3.48077821957942 -5.03724608275098
5.79236159679206 -0.659205330978201 0.978001351697168 -0.659205330978201 -2.22887048384023 2.42609175089518 0.978001351697168 2.42609175089518 6.65959483959535
-1.53325025774836 -2.35763481414046 3.14001251415589 -2.35763481414046 -5.2613587611776 -1.03179340975189 3.14001251415589 -1.03179340975189 -3.26078222623881
4.74845563137804 -2.48524804594377 -2.96410638848838 -2.48524804594377 13.6996288948095 -2.86779968272522 -2.96410638848838 -2.86779968272522 5.64464303222967
2.04827179687679 -2.68755495686234 0.119731963074217 -2.68755495686234 -1.39829828304532 -0.239463926148435 0.119731963074217 -0.239463926148435 -2.64051739994033
-3.18744201694196 -0.518242348453073 -2.32454334937203 -0.518242348453073 9.81893148549681 3.75599915650698 -2.32454334937203 3.75599915650698 2.30441743292725
-1.23543245569996 1.21522088178257 -1.12426879915436 1.21522088178257 -4.25200986286917 -0.229906653310217 -1.12426879915436 -0.229906653310217 -1.76345982429155
-2.40394021008548 0.276220661227115 -0.875154570224521 0.276220661227115 -2.45043279662866 2.58170598216234 -0.875154570224521 2.58170598216234 3.58266402185663
-1.34920006142684 -0.914545231142097 -1.23512775302632 -0.914545231142097 9.72958120098915 -2.46435521423881 -1.23512775302632 -2.46435521423881 -1.73665255720101
-1.61292108900557 -3.11914124443077 0.0198513364800686 -3.11914124443077 -0.684871108562365 0.00248141706000857 0.0198513364800686 0.00248141706000857 1.54344141132533
2.62562580516217 -1.32663198576615 -2.71406793754658 -1.32663198576615 -7.66959116771054 6.25175323292297 -2.71406793754658 6.25175323292297 -8.25552029475726
1.51935816688207 0.43293539163844 0.835919278194975 0.43293539163844 1.19533733917783 -1.25524034934164 0.835919278194975 -1.25524034934164 -0.163371845901298
-7.35804701214125 -2.19834469950094 1.53588387525671 -2.19834469950094 0.325315583334219 -0.143927500505442 1.53588387525671 -0.143927500505442 2.89629449647253
-5.73329578103153 -0.903108174976061 2.96392417000122 -0.903108174976061 -8.49786362517368 -1.74616926384999 2.96392417000122 -1.74616926384999 -3.75414382310527
6.09712024054021 0.207092306361533 -1.37433985130836 0.207092306361533 7.6785523982101 -0.860643351112866 -1.37433985130836 -0.860643351112866 -0.427632165084205
4.17466361796009 -2.79202358561841 -3.2279429768596 -2.79202358561841 14.2115070248814 -3.16108417452199 -3.2279429768596 -3.16108417452199 6.4612346579062
3.07966330699313 -0.681893612112805 -1.88746369104427 -0.681893612112805 -0.641782223164993 1.83175342861675 -1.88746369104427 1.83175342861675 2.88802000424247
-0.0981653598349649 1.93310247059623 -1.18553549954534 1.93310247059623 -0.0276876655944773 0.488309738666235 -1.18553549954534 0.488309738666235 0.201364840687107
-3.85116211333746 0.0684286089789883 -0.476263118493759 0.0684286089789883 -3.06012739354036 2.79188724634272 -0.476263118493759 2.79188724634272 2.76451580275113
-5.74656723639042 -0.61656379401339 3.39110086707364 -0.61656379401339 -8.27544217277347 -1.73408567066266 3.39110086707364 -1.73408567066266 -4.33280572433628
-7.37946060347356 0.43549605077348 -0.825045270502052 0.43549605077348 -3.98538817106924 1.05078404911399 -0.825045270502052 1.05078404911399 -2.41720285062345
-4.04540559327577 -0.685065338084854 3.43074222669371 -0.685065338084854 -9.53405160235877 -0.00812330440416822 3.43074222669371 -0.00812330440416822 -1.81149688212951
-0.423835272830864 -3.96863937287082 -0.748592170194773 -3.96863937287082 -5.50710636970493 1.12288825529216 -0.748592170194773 1.12288825529216 -0.129352323526303
-0.914056823378658 -1.07776849323752 -2.61120113424888 -1.07776849323752 -4.9713777080475 -0.0763987792674699 -2.61120113424888 -0.0763987792674699 -1.30696483103993
0.502380902111838 3.22566972667437 -4.40887283492684 3.22566972667437 1.97932584930402 -3.3903847765471 -4.40887283492684 -3.3903847765471 -5.00459226529989
1.57751425291551 -3.65234655844505 -4.03201948033319 -3.65234655844505 14.8313077303768 -4.32078480120586 -4.03201948033319 -4.32078480120586 9.38487292836173
-3.04047999200464 0.91979170390351 4.34472395866332 0.91979170390351 -1.34764986729233 3.07768504969062 4.34472395866332 3.07768504969062 -0.45266153517948
-1.99945941577929 1.06979162811911 0.563190051075298 1.06979162811911 -7.77417845623079 2.07491071448794 0.563190051075298 2.07491071448794 2.81325556613689
-7.29481044316085 -0.186183052309834 -0.546665132313982 -0.186183052309834 1.96086406156102 -3.68404763081162 -0.546665132313982 -3.68404763081162 -3.27404878157613
-4.95119261660368 -0.600393789056593 -0.263186318490561 -0.600393789056593 -4.19179042679238 3.19113411169806 -0.263186318490561 3.19113411169806 1.14321557094338
0.242564576061501 -0.82909367391513 -3.77565680279336 -0.82909367391513 2.57277509363592 -2.38786931024478 -3.77565680279336 -2.38786931024478 -7.81972522663838
-2.33878298768894 0.122950040240657 -1.15846260137864 0.122950040240657 -8.40705052934449 1.26228707980408 -1.15846260137864 1.26228707980408 -2.51091304402586
-2.13039968258661 -0.0469129463782025 -0.424976102484893 -0.0469129463782025 -11.3225775876332 -2.19111055437016 -0.424976102484893 -2.19111055437016 -5.77581157468104
-2.1057884221999 -2.66890348535037 2.39651294317526 -2.66890348535037 -4.05180931485478 -1.34623787190392 2.39651294317526 -1.34623787190392 -3.16392091295706
6.15045415834344 -0.550545260334384 1.76228458332526 -0.550545260334384 -2.92274763206931 2.09153223901543 1.76228458332526 2.09153223901543 7.47284228365642
-4.16542339574751 0.576708882219635 -2.59928979616527 0.576708882219635 3.26892807172836 0.880096019311481 -2.59928979616527 0.880096019311481 -7.35782137884008
-7.26604459138042 3.76304625153597 0.996850328150788 3.76304625153597 7.34762824995031 3.04154077105854 0.996850328150788 3.04154077105854 3.76559574086627
-2.12739901191298 0.780046304368093 -0.23455937823656 0.780046304368093 -3.99569173391348 -0.935510078315581 -0.23455937823656 -0.935510078315581 2.05921314614654
3.32824364609528 4.85878629805057 -3.67030619636913 4.85878629805057 9.68761091286547 3.24085540332458 -3.67030619636913 3.24085540332458 3.6977710726685
1.34101126081043 0.291154584359792 -1.73205099454913 0.291154584359792 -1.3388860448662 0.892590696577465 -1.73205099454913 0.892590696577465 -1.4982772406836
-6.39490919227374 -5.38445817271534 -1.84372706582438 -5.38445817271534 -4.76988248410721 -1.76898137396663 -1.84372706582438 -1.76898137396663 -7.30293093039746
0.631206572278551 -0.766949921155659 1.45924100042891 -0.766949921155659 -1.05201095379759 1.9524418346824 1.45924100042891 1.9524418346824 -0.0904955659180718
-2.00608314063098 -4.51682549436188 0.411761746011866 -4.51682549436188 -0.0175751964761163 -0.19583790359101 0.411761746011866 -0.19583790359101 -3.28656174103374
1.88100920939365 3.41132178652747 5.15949136248937 3.41132178652747 -7.36994286279377 0.802351385927801 5.15949136248937 0.802351385927801 -0.608405521117438
5.47810017975267 1.01937007293522 1.38710039102326 1.01937007293522 -0.713829440994425 -2.03062844767732 1.38710039102326 -2.03062844767732 3.79897865377715
2.34819645422203 -1.2072492358765 -2.54710250681496 -1.2072492358765 -7.42306337940542 6.24067740010303 -2.54710250681496 6.24067740010303 -8.02254412124798
1.97971973908608 1.33786805897199 -2.47803496752909 1.33786805897199 3.66965833989281 -0.0081247048115708 -2.47803496752909 -0.0081247048115708 -4.76107701958049
-5.59914750866898 -0.933989533097049 2.35892228230921 -0.933989533097049 -8.38914188317683 -1.67878631461803 2.35892228230921 -1.67878631461803 -2.9863716609539
-0.425787526009068 1.73590299065235 -1.1488704843795 1.73590299065235 -1.19170118226207 0.262023092928657 -1.1488704843795 0.262023092928657 -0.264542545745279
1.76406259135697 0.588905105686086 3.62097058225904 0.588905105686086 -8.76460571705778 0.318327084154641 3.62097058225904 0.318327084154641 -0.583599654283509
5.76087911418361 0.473791927147811 -1.4079157835131 0.473791927147811 6.94535893205314 -0.691843893619247 -1.4079157835131 -0.691843893619247 -1.12794782656212
7.71872413911833 -0.0701502903867613 -4.74172119083015 -0.0701502903867613 4.80310269491857 1.01279481745887 -4.74172119083015 1.01279481745887 2.3346893519344
2.00877980674376 2.76128179101189 -1.02230661728303 2.76128179101189 0.389952008654351 3.55594074918859 -1.02230661728303 3.55594074918859 -2.83294864665647
-1.01059397352305 -1.28193153353745 -1.27085653108789 -1.28193153353745 -7.53930791754317 4.6874947867795 -1.27085653108789 4.6874947867795 -9.10088326293221
-1.20826449423122 0.336236499525883 -1.26293709578015 0.336236499525883 -2.21150673265398 2.47666885016626 -1.26293709578015 2.47666885016626 3.89815649043829
-5.94481981190323 -0.187760217003911 4.07826236051141 -0.187760217003911 -3.42662396032137 -2.47677815665453 4.07826236051141 -2.47677815665453 -2.7225231465567
-0.780308068392456 2.15337241425811 0.518661742789051 2.15337241425811 0.733998984214862 0.335740860287555 0.518661742789051 0.335740860287555 -1.45642069738533
-2.82083421373564 0.671238969935168 2.73930721333866 0.671238969935168 -9.40549827913205 0.209252634352259 2.73930721333866 0.209252634352259 -1.55988327426229
-2.50111509803402 -0.202941356638725 -4.92818402540255 -0.202941356638725 3.51033697969686 -2.01570131256031 -4.92818402540255 -2.01570131256031 -4.5689229751367
-0.655932421717185 1.88546265154689 -6.61421395957496 1.88546265154689 4.58054900353967 -2.73625365879512 -6.61421395957496 -2.73625365879512 -4.004206708307
-1.40729463195772 1.2466942774403 1.49984398879827 1.2466942774403 -7.8721394112606 -0.215041152658917 1.49984398879827 -0.215041152658917 -0.348421108105586
-0.659575617682113 -0.914100648571891 0.79915386042812 -0.914100648571891 -0.216209434841854 -2.92840626937701 0.79915386042812 -2.92840626937701 -2.47956642995848
1.14618658752058 0.132252298560066 3.52397270538177 0.132252298560066 -2.17665241380109 -3.96756895680199 3.52397270538177 -3.96756895680199 -2.88475326234145
-5.39034256372292 0.123067181820158 0.590722472736759 0.123067181820158 -1.27716386466697 -1.90617390508111 0.590722472736759 -1.90617390508111 1.14315737779613
-3.83443620999316 0.652728101273764 -2.75019748109908 0.652728101273764 3.15439730950292 0.79201317727779 -2.75019748109908 0.79201317727779 -7.19912667346294
3.18940520661728 0.674315849310388 0.309967769441066 0.674315849310388 -0.231116319320093 0.163140931284771 0.309967769441066 0.163140931284771 1.53624376959826
3.59608259395468 2.21941053167064 -5.31343616513968 2.21941053167064 4.86118644279746 -2.00225097336535 -5.31343616513968 -2.00225097336535 -2.95456536666747
-0.733859019995506 1.55093916596988 -1.13231168377314 1.55093916596988 -2.3074948566869 0.0630463075597514 -1.13231168377314 0.0630463075597514 -0.756555690717017
2.12762928327958 -0.233495739697664 1.26611051956751 -0.233495739697664 3.18037300622681 -0.30595993477625 1.26611051956751 -0.30595993477625 -3.18842458345776
-1.14711753007749 -2.1740608427183 0.600871087183449 -2.1740608427183 -3.95209301433841 -3.03713022249089 0.600871087183449 -3.03713022249089 -4.29895950557613
-0.668738741465975 -0.180150028313283 1.03722743574314 -0.180150028313283 1.71961390662679 -2.35832764337389 1.03722743574314 -2.35832764337389 -2.34195036807268
-5.61920423124427 0.175087181499334 0.683934302731775 0.175087181499334 -1.18183847512051 -2.04085995935162 0.683934302731775 -2.04085995935162 0.785156579536078
3.9263816181882 -0.0990537759318676 2.33601821572654 -0.0990537759318676 -2.63868253107392 -3.90987265553289 2.33601821572654 -3.90987265553289 -2.19294053938051
-1.73767302646687 -3.12891124069509 -0.591138766915154 -3.12891124069509 -5.29825304114187 2.15009542198907 -0.591138766915154 2.15009542198907 -0.184215336666583
-1.45994566768303 1.84260948941192 4.44430753823168 1.84260948941192 -0.170534964031351 4.6086034182131 4.44430753823168 4.6086034182131 -2.67240766805227
-0.208437769884103 2.53599286692325 3.32698748084241 2.53599286692325 -8.47379702951911 0.823061963132099 3.32698748084241 0.823061963132099 1.4617366682898
-0.579973832557874 0.110349003539773 -4.55767047178223 0.110349003539773 2.94862802481857 -0.55687752949141 -4.55767047178223 -0.55687752949141 -0.318215731137949
2.21316310509479 3.48957971606672 5.40553146891856 3.48957971606672 -6.98446677770921 0.886326711153068 5.40553146891856 0.886326711153068 -0.968590567577454
-1.81005781563081 0.170089584358014 -0.814906814610785 0.170089584358014 -7.41032084688125 -0.281790206921487 -0.814906814610785 -0.281790206921487 -4.74473780843476
0.71251972296911 -0.841321365198141 0.613863145942617 -0.841321365198141 -1.42503944593822 -3.01724698072688 0.613863145942617 -3.01724698072688 -1.6031693766805
-2.11699003840563 -3.36891561949323 -3.79338824140705 -3.36891561949323 8.25035077150216 -5.77873803630776 -3.79338824140705 -5.77873803630776 8.78497135226703
-6.1826043142821 -0.505633130257196 -1.14213601187508 -0.505633130257196 1.66759789233844 -3.6028839124601 -1.14213601187508 -3.6028839124601 -5.05434842755134
-3.12839591904498 0.762071494396381 2.46697537673869 0.762071494396381 -1.17289170700899 1.38241001544141 2.46697537673869 1.38241001544141 2.54092301500896
2.77254433295997 4.29506867811112 -2.86504581205783 4.29506867811112 8.71263931502751 2.73254369335009 -2.86504581205783 2.73254369335009 3.16005052918071
-0.336833880730661 1.27670906405976 -2.93099804280954 1.27670906405976 2.95001285865724 0.252625410547995 -2.93099804280954 0.252625410547995 -5.91360772863426
-3.40762318593433 0.293245660622238 3.05464229814831 0.293245660622238 -9.67710680053384 0.249801859048573 3.05464229814831 0.249801859048573 -1.81920919089721
2.94193803754698 0.116951614926473 0.635168253479985 0.116951614926473 3.30892413955764 0.00403281430780943 0.635168253479985 0.00403281430780943 -2.36322918437632
-4.53499700312192 0.298100837697606 4.30038060308213 0.298100837697606 -2.82643757224397 -2.91200355343495 4.30038060308213 -2.91200355343495 -3.22114516289913