-0.0000183893 0.0000002104 0.0000002495 5.2031814871 0.0000004960 2.4734648134 -0.0000184418 3.1093653265 0.0000002867 3.0127802358 4.6480284261 4.8911953495 2.3001100560 1.5972957921 2.4578514713 7.3935832562 1.5707021498 0.0557356375 8.1062530528 4.6214347801 2.4890776759 1.1150842193 4.6762506786 2.1895116643 4.0570033266 1.5651808964 4.6858076517 9.2912795005 1.5424801684 2.7574054452 6.3493553954 4.6535502401 0.2611256474 1.2100956861 4.6710098381 3.7295323730 3.9173381341 1.5253023170 1.2716523990 9.1962675836 1.5477206890 1.2174058568 6.4890250856 4.6934283005 3.6752754230 4.8636291910 4.6673557524 0.6918601627 0.3847753701 1.5499764492 3.2135808948 5.5427367985 1.5513747196 4.2550690685 10.0215884914 4.6687541200 1.7333500577 1.8239649051 5.9004949562 1.5115391379 3.3458007400 0.3262656600 3.9877676011 8.5853871599 2.7722881607 3.4359029253 7.1272851590 3.4467077723 0.9057336317 8.5823968236 0.3182334377 3.4353925979 7.0605622674 5.8924648396 0.9591621242 1.8209747228 3.4464444894 1.5110286262 3.2790781832 2.7720223338 4.0411962278