0 0 0 0 0 0 0 0 0 -0.00236592790592258 -0.00202088604005124 -0.00636836212799353 0.00383479838261631 -0.00386256628240328 -0.0232723282334908 0.00236592790592258 0.00202088604005124 0.00636836212799353 -0.00383479838261631 0.00386256628240328 0.0232723282334908 0.04691026714751 0.00377771992194311 0.0038527960954412 -0.0159179485528769 0.00517922753063514 -0.0443319662302538 -0.04691026714751 -0.00377771992194311 -0.0038527960954412 0.0159179485528769 -0.00517922753063514 0.0443319662302538 -0.0150525156761832 0.00180517059633585 -0.00179360063809128 -0.0276766256719231 0.0041888391049001 0.044641784001025 0.0150525156761832 -0.00180517059633585 0.00179360063809128 0.0276766256719231 -0.0041888391049001 -0.044641784001025 0.0121065471969329 0.0011708797743503 -0.000230627834341725 0.0430569568317024 0.00200597364942491 0.00482775791018348 -0.0121065471969329 -0.0011708797743503 0.000230627834341725 -0.0430569568317024 -0.00200597364942491 -0.00482775791018348 -0.014152630034939 -0.0147858924161917 -0.0107631464896469 0.0033863982230935 -0.0190364379650628 0.0190642058648498 0.0108811600637415 -0.0113622132165324 0.0107893717283346 -0.00721913972424411 -0.0182843906791659 -0.029169921616022 0.014152630034939 0.0147858924161917 0.0107631464896469 -0.0033863982230935 0.0190364379650628 -0.0190642058648498 -0.0108811600637415 0.0113622132165324 -0.0107893717283346 0.00721913972424411 0.0182843906791659 0.029169921616022