0.951098827146591 -0.765274896632656 0.867178342398362 -0.765274896632656 2.52360886278602 0.283731162720201 0.867178342398362 0.283731162720201 4.21400719842891