5.9090135572 6.0789189736 2.4516494833 3.6455144524 4.7568638298 4.8148673288 2.2138070729 1.1485626994 2.4243793841 7.6873083572 1.2474756017 0.1460184485 9.1191407388 4.8378518288 2.5160533715 1.6237668523 4.4008449560 2.3106282794 4.3491739586 1.4770592099 4.8320752686 9.7101267378 1.5785469694 2.6529622483 6.9813770399 4.4772081548 0.1235060209 1.9508583985 4.6085661475 3.8038904097 3.9786708410 1.4205723445 1.3675241905 9.3667788408 1.4076828205 1.1568678062 7.3525841060 4.5826722366 3.6142179013 5.5488559008 4.8897176530 0.4647559353 0.3767758530 1.1245225264 2.9700862053 5.7854002128 1.0698797253 4.4669999167 10.9703441808 4.9072427282 1.9974907636 2.7114985386 5.4073552927 1.5500377548 3.3481580996 0.4761844049 3.9840795120 9.4628520095 3.0022212101 3.1427705700 7.3137946462 3.1028045200 0.6536791479 8.5980723724 0.5912768679 3.3956574339 7.9563031764 5.5047129263 0.9726087646 1.8601162385 2.9770323358 1.8083395750 4.0168773873 2.8705506604 4.3248692581
5.9156080425 6.0941304420 2.4741995354 3.4129284819 4.4266912853 4.9115733138 2.4259471427 1.4954199568 2.4406989909 7.9268669411 1.5530378733 0.0444865374 8.8897527129 4.5146284306 2.5104498659 1.5657107982 4.5878537318 2.2135446279 4.4031833342 1.3565955421 4.6939921070 9.7534774583 1.4079697339 2.7468786490 6.9324665149 4.6198481349 0.2557044118 1.8518290620 4.5715681170 3.7328861275 4.0917651090 1.4444727427 1.2702313491 9.4616474416 1.4152923916 1.2289455818 7.2111988369 4.5324337286 3.6772536590 5.4263438546 4.6764486332 0.5890295563 0.5114768281 1.3774140093 3.0387851388 5.9088174143 1.3010789578 4.3422980142 10.8078093635 4.6082981566 1.9459671943 2.3896006654 5.7140519353 1.5265355031 3.6201886063 0.2313603970 3.9140586432 9.1010581692 2.6822535638 3.4809006438 7.5910098869 3.3350876033 0.9170948607 8.9498516007 0.2693770975 3.4413653818 7.7310122196 5.7423253731 1.0232401158 2.2485761277 3.3055485633 1.4943089166 3.7407429109 2.6427914641 4.0155367434
5.9017307719 6.0917274224 2.4956393477 3.5093316330 4.5983967009 4.8695483943 2.3460663347 1.3288275486 2.4093405429 7.8129403574 1.3916710396 0.0991656346 8.9874223212 4.6456298947 2.5566194384 1.5916357206 4.5432725177 2.2610690404 4.3265704163 1.3890163691 4.7659650843 9.7340541293 1.4450322663 2.6647880641 7.0059937375 4.6120939237 0.1960456550 1.9169472070 4.7288256958 3.7645830882 4.0151946176 1.2825357259 1.3164518086 9.4208005601 1.2588104350 1.1538679737 7.3059727539 4.7109547349 3.6539391486 5.4750690553 4.7884980031 0.5009733577 0.5032245323 1.2283897885 2.9733236260 5.8429769281 1.2013796853 4.4357713587 10.8228431990 4.7753372239 1.9674042863 2.4321899739 5.5911725942 1.4868458145 3.5238808229 0.3353252404 3.9148082822 9.2455935959 2.8125041892 3.2245492132 7.5300022368 3.2516188057 0.6966016861 8.9304276394 0.3902309153 3.4581230200 7.8112522397 5.6405362118 1.0629788645 2.0960891997 3.1735260264 1.7079800765 3.7828647874 2.7385550876 4.2366408450
5.9255154867 6.0911590673 2.4671773026 3.6256672559 4.6657224181 4.8549479209 2.2375169951 1.1840449305 2.4328588311 7.7094774104 1.3147300640 0.1207506837 9.0815928455 4.7884223552 2.5203010748 1.5958103997 4.4500343280 2.3128150673 4.3251163751 1.4314246119 4.8264200349 9.7348594270 1.5593326292 2.6402869806 6.9936322128 4.5742250840 0.1111130697 2.0031087732 4.5787767167 3.8120517187 3.9768102252 1.3422267575 1.3648032686 9.3652078408 1.3991243040 1.1362531776 7.3537112605 4.6104508349 3.5808004719 5.5496447729 4.9663705996 0.4632402443 0.4095872938 1.1086982926 2.9996532192 5.7725957077 1.0156149564 4.4804713109 10.9201817209 4.9053722699 1.9661944494 2.5782087094 5.4368671772 1.5437293856 3.3912829530 0.4301180913 3.9655238367 9.4569426228 2.9508517314 3.1892580390 7.2794912995 3.1818603935 0.6019054788 8.7970436826 0.5462950201 3.4295974886 7.9323563014 5.5399998619 0.9914937960 1.8629971473 3.0625459441 1.7501718119 3.9943446355 2.8247892093 4.3355336276
5.8994162497 6.0791845310 2.4912556236 3.6137618883 4.7374615791 4.7768191337 2.2224246733 1.2151590690 2.3969736398 7.7100583113 1.2389924285 0.1565935569 9.1164389518 4.7896021839 2.5535308108 1.6196688654 4.4393591978 2.3193353744 4.3593498965 1.4819961943 4.8236781937 9.6980308769 1.5620973141 2.6265273410 6.9725316871 4.5080038449 0.1506491547 1.9000178993 4.6360750223 3.8167204084 4.0525662174 1.3839757753 1.3708337722 9.4142538474 1.3321146242 1.1365662592 7.2896013814 4.5881389591 3.5903497686 5.5202370472 4.8444799089 0.5334614915 0.3496083085 1.1304217985 3.0286863210 5.8212657904 1.1494840732 4.4510262881 10.9601610449 4.8104299517 1.9129839092 2.6712461078 5.4552083304 1.5968615642 3.4361532695 0.4461484522 3.9388707518 9.3510569846 2.9915583002 3.1663490725 7.4526176250 3.1109993573 0.6677136624 8.6446535740 0.5492596963 3.3717106299 7.8990484299 5.5692772570 1.0009524947 1.9889432141 2.9949874668 1.8133120219 3.8998491360 2.8714565276 4.2793334078
5.9161287514 6.0926506212 2.4625257230 3.4108504124 4.4363324759 4.9115827017 2.4342810316 1.4867304736 2.4324152918 7.9269996491 1.5437363931 0.0447586809 8.8988281099 4.5161957707 2.5149965817 1.5840535634 4.5375530437 2.2209647159 4.3816093215 1.3742166382 4.7086790224 9.7373112882 1.4534628944 2.7358684939 6.9574403667 4.6089038921 0.2444720156 1.8738699413 4.6133009301 3.7357483535 4.0621712206 1.4232883783 1.2863537133 9.4373971080 1.3693688292 1.2173307501 7.2358464569 4.5614863292 3.6675839805 5.3861171368 4.7005514055 0.5756625304 0.5448532515 1.3628391208 3.0356820765 5.9178536346 1.2718655547 4.3487158070 10.7681760638 4.6334786410 1.9699767923 2.4098322747 5.7383981817 1.4838436963 3.6154776974 0.2162486439 3.8973696206 9.1286903923 2.6704694365 3.4377399695 7.5817129329 3.3345375699 0.8919060441 8.9235192894 0.2421698262 3.4684614864 7.7346262561 5.7634128893 1.0597486334 2.2109431798 3.3274912623 1.5267206089 3.7463214928 2.6430769203 4.0646911077
5.9069172944 6.0786075412 2.4533127575 3.6435090983 4.7632730453 4.8073759477 2.2138046985 1.1487651265 2.4206910560 7.6875628749 1.2382700671 0.1474622143 9.1231188846 4.8407771895 2.5185184214 1.6328794125 4.4240411546 2.3122883982 4.3542595314 1.4756079662 4.8269971497 9.6971374721 1.5608475022 2.6561919192 6.9794489511 4.4875745362 0.1320403197 1.9464264998 4.6104631257 3.8094640107 3.9859440963 1.4216447795 1.3714350026 9.3682635719 1.4023412513 1.1546392998 7.3422211464 4.5794310280 3.6006213821 5.5393491588 4.8756336637 0.4656982039 0.3642206368 1.1296972054 2.9773764964 5.7959169763 1.0802130860 4.4687407108 10.9840466097 4.8885610272 1.9891629748 2.6997552274 5.3779433133 1.5639130380 3.3555732749 0.4862546650 3.9939095812 9.4534188131 3.0166315849 3.1509111024 7.3328438781 3.0862464313 0.6697857341 8.6018311236 0.6214682181 3.3766073164 7.9506356246 5.4898571511 0.9709830234 1.8689967788 2.9613481434 1.8007249965 4.0051358909 2.8866498475 4.3167336963
5.9039014744 6.0882969815 2.5095161895 3.5361379195 4.6251530878 4.8479734313 2.3126049520 1.3029623062 2.4117311080 7.7870247956 1.3607220881 0.1155539031 9.0086128623 4.6787490243 2.5602968029 1.5965239902 4.5121592046 2.2771118363 4.3287087175 1.4194498793 4.7705833526 9.7347288691 1.4683571921 2.6518873964 7.0048082990 4.5869648254 0.1858505526 1.9049892376 4.7050886917 3.7888665828 4.0028941603 1.3022252007 1.3249578310 9.4202262618 1.2877936823 1.1409669138 7.3134743881 4.6993687648 3.6215659279 5.4601872864 4.7976853764 0.5193652365 0.4999216344 1.2134495521 2.9852896561 5.8525686713 1.1974503097 4.4219530963 10.8303294460 4.7852205823 1.9395787871 2.4906448136 5.5718501430 1.4801720989 3.5035249700 0.3205656037 3.9165081605 9.2737572324 2.8080118465 3.1873431894 7.5210488885 3.2273604174 0.6703513529 8.8728126714 0.3904217045 3.4574142302 7.8447543398 5.6420918844 1.0674153496 2.0811328976 3.1920208631 1.7397852348 3.8070506997 2.7666484262 4.2750064923
5.9033709814 6.0784649284 2.4591194556 3.6351639656 4.7671604262 4.7910517515 2.2147238565 1.1575795964 2.4122684106 7.6922008090 1.2256905217 0.1522527594 9.1290920268 4.8370912631 2.5259744229 1.6618397349 4.4294764492 2.3184124651 4.3472348580 1.4883992941 4.8177663159 9.6647768233 1.5642018788 2.6525793110 6.9935816592 4.4956300779 0.1459188605 1.9501178924 4.6174652729 3.8288733688 4.0109368536 1.4086083604 1.3786709172 9.3671288237 1.3791798967 1.1416511013 7.3194762923 4.5777816862 3.5690593471 5.4985118194 4.8636162126 0.4820374757 0.3639700725 1.1195117912 3.0089091292 5.8240161129 1.0896343677 4.4655853044 10.9628848351 4.8687332004 1.9535145279 2.6815599112 5.3415900921 1.5853651963 3.3846651045 0.4992123585 4.0091588995 9.4319415552 3.0140517935 3.1612606991 7.3669256698 3.0789139677 0.6902000115 8.6143208946 0.6549891417 3.3503286115 7.9355824444 5.4737892972 0.9752061383 1.8888879634 2.9826484387 1.7991075155 3.9804535207 2.8999278357 4.3032065065
5.9018477252 6.0944386129 2.4580644706 3.4469395709 4.5323294577 4.9091012213 2.4058148789 1.3954793125 2.4135185821 7.8750457590 1.4601047731 0.0521533612 8.9480928025 4.5763119193 2.5416653071 1.5868648769 4.5449439069 2.2412693010 4.3480964494 1.3625513868 4.7331310071 9.7570264295 1.4407638756 2.7070838546 6.9782607183 4.6202094302 0.2243368566 1.9388512136 4.7174173534 3.7319769955 4.0459039850 1.3087798604 1.3042947183 9.4241499799 1.2641149611 1.2081075208 7.3218918191 4.6893013910 3.6628112180 5.4085739516 4.7622005561 0.4936682453 0.5508329481 1.3193005184 2.9364811835 5.8941986111 1.2269054130 4.4756835872 10.7853187836 4.6892054703 2.0160925309 2.4319658644 5.6804184640 1.4158269931 3.5019785374 0.2785058841 3.8698263321 9.2011293636 2.7380780410 3.2701584577 7.5563604898 3.2935389482 0.7662566552 8.8747313553 0.3367416119 3.5379654062 7.7904035909 5.7210148586 1.0927956475 2.0884067076 3.2472453362 1.6639869176 3.7469727285 2.6731330757 4.1917959027
5.9276264343 6.0978635310 2.4775029085 3.6095592024 4.6344800522 4.8669285103 2.2449619414 1.2127963339 2.4282922051 7.7241845349 1.3398246465 0.1050383790 9.0769922698 4.7646193569 2.5279238918 1.5924106166 4.4418994219 2.3244029819 4.3426254488 1.4050590052 4.8274663279 9.7502130716 1.5554626764 2.6330425046 6.9780050862 4.5967685298 0.1103431761 1.9776877966 4.5748149621 3.7995422360 3.9774020956 1.3218591391 1.3610996707 9.3802301138 1.4008136526 1.1551440135 7.3297202794 4.6402382328 3.5669617498 5.5012562003 4.9692388473 0.4536999977 0.4629257652 1.1254413483 2.9966314338 5.8189793552 1.0359116392 4.4904430412 10.8697007047 4.8773797177 1.9631293629 2.5992520830 5.4956112035 1.5012326072 3.3821723795 0.4072107132 3.9498274729 9.4358206393 2.9373347061 3.1947393607 7.3081268525 3.1812162722 0.6014411203 8.7611454154 0.4975779354 3.4743396083 7.9488847883 5.5808818347 1.0040773951 1.8830651485 3.0743151176 1.7429693502 3.9722886334 2.8053095042 4.3339800757
5.9029466610 6.0900945983 2.5031871200 3.5226447965 4.6115044948 4.8588011204 2.3299203538 1.3158284793 2.4104229952 7.8000373766 1.3764011648 0.1078248009 8.9971223581 4.6620551380 2.5587617243 1.6013830247 4.5259161960 2.2652170100 4.3226523465 1.4070845528 4.7671296482 9.7272654203 1.4580741813 2.6616804687 7.0128633069 4.5982937673 0.1917476773 1.9116533790 4.7189464633 3.7790208293 4.0085908510 1.2895931108 1.3220948578 9.4194867463 1.2711800709 1.1433132804 7.3087174137 4.7071838480 3.6365458041 5.4600394479 4.7942134957 0.5116392883 0.5074198364 1.2180592153 2.9821349373 5.8511525706 1.1979572749 4.4262795760 10.8188464981 4.7837335548 1.9511256321 2.4539494484 5.5739958125 1.4885571953 3.5167076987 0.3288828976 3.9177270851 9.2620831814 2.8028306164 3.2041097148 7.5237614790 3.2441482042 0.6818023875 8.9110644908 0.3963482591 3.4521622830 7.8260780076 5.6380921966 1.0641628492 2.0869038560 3.1923140449 1.7260827053 3.7967532526 2.7487450687 4.2573231600
5.9011516600 6.0797043782 2.5037760285 3.6056841433 4.7212747169 4.7875982950 2.2323683461 1.2296018629 2.4002404990 7.7181062839 1.2562264410 0.1499933870 9.0947466378 4.7750338925 2.5593452429 1.6526489099 4.4509617906 2.2843652819 4.3382001183 1.4597048438 4.7996692847 9.6773603471 1.5312754313 2.6590821732 7.0001259896 4.5228770161 0.1715833106 1.8694328552 4.6385786485 3.8243361492 4.0411735005 1.3875889187 1.3657367840 9.4375508906 1.3404401790 1.1258222500 7.2968374417 4.6028030033 3.5934055784 5.4802024606 4.8405264735 0.5519701575 0.4135847727 1.1500113400 3.0207121368 5.8511804204 1.1733941006 4.4371975509 10.9065203013 4.8015136512 1.9011768108 2.6161456096 5.4675648556 1.5995251915 3.4606549111 0.4330773294 3.9360858234 9.3410780267 2.9239418526 3.1428465017 7.4701545912 3.1419877853 0.6446226774 8.7087759913 0.5348742283 3.3671340878 7.8694249381 5.5791711831 0.9887090230 2.0060825531 3.0643099088 1.8247110331 3.8847923058 2.8318364371 4.2980933464
5.9020172530 6.0804215537 2.5093228386 3.5991338142 4.7110401325 4.7943550592 2.2377952360 1.2372166871 2.4033036182 7.7245314163 1.2673634503 0.1457091351 9.0836994875 4.7658944697 2.5610903422 1.6480283788 4.4619731883 2.2822552560 4.3361687296 1.4485009178 4.7906769513 9.6853707672 1.5152423460 2.6628527194 7.0025774542 4.5307019516 0.1732529186 1.8624121491 4.6402279946 3.8227695581 4.0330986716 1.3873695681 1.3523270137 9.4431277401 1.3447622371 1.1267432785 7.2994963350 4.6103759683 3.6116250830 5.4807576900 4.8329528359 0.5526906470 0.4382524259 1.1643547198 3.0120614950 5.8514859668 1.1847467372 4.4336604547 10.8904120094 4.7949465199 1.9011615035 2.6054169191 5.4876204720 1.5789582455 3.4696791173 0.4196868515 3.9364067841 9.3329233626 2.9000296777 3.1373207292 7.4760689167 3.1667972128 0.6353617936 8.7248511301 0.5103430045 3.3820584552 7.8609787558 5.5851221069 0.9905918378 2.0197133775 3.0845516860 1.8187377149 3.8763515774 2.8151365918 4.3071888852
5.9268537248 6.0944153814 2.4723539874 3.6179254479 4.6497402779 4.8610184643 2.2407270399 1.1979397804 2.4310428283 7.7164062974 1.3269929144 0.1129817780 9.0793090819 4.7765538999 2.5238111356 1.5947992426 4.4392570355 2.3186410844 4.3341776080 1.4230517027 4.8284267542 9.7426066915 1.5635878384 2.6358225555 6.9860038358 4.5824768487 0.1076029706 1.9939461194 4.5761415925 3.8086665177 3.9779463615 1.3310811426 1.3592909998 9.3713771457 1.3994428815 1.1429583598 7.3403378509 4.6232294411 3.5797907502 5.5290165334 4.9685867068 0.4582000188 0.4377480494 1.1153734946 3.0001286304 5.7928457529 1.0236579737 4.4858600809 10.8911963224 4.8928211948 1.9620927404 2.5902451820 5.4671197085 1.5191127337 3.3843639929 0.4168513942 3.9561232428 9.4491458697 2.9356033328 3.1896894946 7.2898645300 3.1923332197 0.5983121334 8.7799139571 0.5201295557 3.4554632860 7.9432675818 5.5607259422 1.0008716734 1.8693388141 3.0822187421 1.7500058425 3.9848277095 2.8087365893 4.3369658824
5.9004603634 6.0789546815 2.4679151804 3.6243458007 4.7608586796 4.7775613115 2.2144477419 1.1771003359 2.4041903583 7.6999789084 1.2230592346 0.1571007500 9.1333918601 4.8214854502 2.5357245279 1.6515916989 4.3956655469 2.3347639659 4.3475136052 1.5140591806 4.8217682671 9.6712278335 1.6072232725 2.6317696604 6.9941217165 4.4792628122 0.1380193342 1.9539546956 4.6275736638 3.8391170429 4.0407158519 1.3894837046 1.3702406815 9.3689399879 1.3488173005 1.1289880007 7.2935392539 4.5767734045 3.5854757444 5.5004158493 4.8572897268 0.5015419718 0.3568380996 1.1056943980 3.0357718288 5.8217688380 1.1001664985 4.4617469341 10.9441361224 4.8547735246 1.9225880623 2.7077500479 5.3771445450 1.5740786724 3.4074702823 0.4879366275 3.9966172013 9.4079364478 2.9869508410 3.1621756276 7.3884846432 3.1211305148 0.6857808268 8.5929360688 0.6186026430 3.3672314453 7.9289763042 5.4959143527 0.9929493862 1.9156040346 3.0233269225 1.8108274748 3.9584277974 2.8790659522 4.2948710401
5.9002308128 6.0792957632 2.4976203782 3.6105479962 4.7299857833 4.7816396680 2.2272535170 1.2224098561 2.3980248596 7.7133245485 1.2468032444 0.1537470181 9.1059204313 4.7827506982 2.5567836644 1.6394273855 4.4455148484 2.2992105356 4.3477873272 1.4704251015 4.8120173615 9.6848157659 1.5460497634 2.6441863623 6.9874277035 4.5161160595 0.1632520700 1.8826399915 4.6373381899 3.8208462107 4.0476135636 1.3860236505 1.3720312535 9.4274640012 1.3357563336 1.1305855504 7.2938340903 4.5955022485 3.5854502188 5.4957402896 4.8440806171 0.5448224861 0.3807152206 1.1389675995 3.0258090333 5.8396517029 1.1614932520 4.4434389020 10.9329322356 4.8061397413 1.9061161078 2.6403305241 5.4591835630 1.6041639325 3.4483490519 0.4404916761 3.9355701856 9.3457669257 2.9598623645 3.1546325266 7.4634375883 3.1199806093 0.6567641886 8.6795708921 0.5450896535 3.3654619284 7.8836355288 5.5757039725 0.9938300481 1.9975051202 3.0276660989 1.8207927268 3.8914785519 2.8538591999 4.2873075188
5.9192281346 6.0829556872 2.4545826264 3.6421473191 4.7120241860 4.8376609041 2.2258980523 1.1573806374 2.4334311175 7.6949302577 1.2850040996 0.1393757741 9.0944416694 4.8161581475 2.5139348170 1.6088210508 4.4344533962 2.3165875136 4.3097379454 1.4421577083 4.8259421456 9.7175010053 1.5668218355 2.6352137338 7.0069525328 4.5398873435 0.1235937607 1.9931406335 4.5922420915 3.7958796731 3.9666332219 1.3796545525 1.3895968152 9.3574310070 1.4054723049 1.1476962139 7.3893469129 4.5991220454 3.5580055831 5.5356655430 4.9558206638 0.4768592941 0.4037590507 1.0956347666 2.9845992756 5.7734784863 1.0169299368 4.4632674443 10.9344801948 4.9414789907 1.9875813998 2.6276135822 5.4246873898 1.5659527117 3.3872086244 0.4581386617 3.9799111688 9.4640170583 3.0129075530 3.1739804259 7.2847921778 3.0820117469 0.6304616074 8.7324094387 0.5593211877 3.4012173156 7.9312263405 5.5210253113 0.9737834015 1.8594026991 2.9814354417 1.7697717526 4.0133061710 2.8856321978 4.3250494201
5.9149301636 6.0948154764 2.4798255855 3.4140228840 4.4230302144 4.9112460034 2.4205767432 1.4984720033 2.4451363120 7.9261081810 1.5566974723 0.0437865586 8.8863628811 4.5143892516 2.5088486622 1.5555279246 4.6040904426 2.2122643163 4.4131534477 1.3507957248 4.6843218694 9.7665530620 1.3924635456 2.7520846371 6.9168735555 4.6222417603 0.2615640879 1.8457536001 4.5507806121 3.7342788182 4.1088475895 1.4521462434 1.2600932358 9.4732387205 1.4380868164 1.2365146859 7.2035490260 4.5214537444 3.6781198768 5.4446443623 4.6652479342 0.5940236379 0.4993016623 1.3864285363 3.0345096483 5.9088757785 1.3159689618 4.3465508936 10.8243882757 4.5937575817 1.9330696869 2.3905037199 5.7135683867 1.5358117152 3.6130126614 0.2328405850 3.9202583221 9.0909192633 2.6829863968 3.4917700921 7.5952378294 3.3351135657 0.9265817071 8.9484140262 0.2723129199 3.4384623244 7.7358469877 5.7378271166 1.0087777292 2.2575278218 3.3036699203 1.4872345885 3.7385316984 2.6419959758 3.9977598468
5.9113793328 6.0793823407 2.4508582114 3.6462729469 4.7480150057 4.8214488129 2.2149155159 1.1498366394 2.4275565881 7.6881777622 1.2574464162 0.1451628331 9.1140324609 4.8331704923 2.5143847626 1.6212413390 4.3809659945 2.3099214222 4.3380130801 1.4765701966 4.8346873841 9.7150700954 1.5948821173 2.6476596572 6.9892688267 4.4748874502 0.1189686146 1.9595740939 4.6064211770 3.8002553601 3.9734950395 1.4142096096 1.3691032395 9.3638597255 1.4095541305 1.1569288173 7.3647225848 4.5879274446 3.6112467814 5.5445711171 4.9088060952 0.4684012557 0.3956334964 1.1138366546 2.9694185595 5.7819914367 1.0555949629 4.4636849588 10.9471495140 4.9275649697 1.9991959384 2.7114457741 5.4301573774 1.5431118873 3.3490336291 0.4674878221 3.9773100550 9.4689422282 2.9908310110 3.1389986335 7.2993399982 3.1080043171 0.6412057806 8.6092526679 0.5658537995 3.4085361090 7.9575404885 5.5177386027 0.9747430158 1.8538608471 2.9962309071 1.8130480847 4.0240558077 2.8623867899 4.3299332925
5.9123397832 6.0916763456 2.4498816750 3.4159008235 4.4694434031 4.9137788443 2.4338728862 1.4547517164 2.4251742336 7.9162578447 1.5133109738 0.0393607983 8.9183955218 4.5344418208 2.5232557620 1.5574928920 4.5745305400 2.2369335406 4.3824582687 1.3486699508 4.7100994943 9.7737528198 1.4163666790 2.7257697366 6.9321208143 4.6361347768 0.2445719543 1.9092333332 4.6557792320 3.7313399773 4.0466937912 1.3953265066 1.2797649370 9.4250225424 1.3229822846 1.2334508670 7.2791755700 4.6011409564 3.6724221462 5.4429303523 4.7212951353 0.5287488088 0.5109037994 1.3664546671 2.9859043705 5.8823351018 1.2508865669 4.4110923589 10.8170308686 4.6390768922 2.0076195499 2.4106834963 5.6946396507 1.4429762784 3.5881744866 0.2371060507 3.8960059960 9.1340744471 2.7300261134 3.3903570122 7.5792987238 3.3165289908 0.8531138938 8.8965541660 0.2948105954 3.4946032097 7.7335779028 5.7415109865 1.0754280624 2.1760109238 3.2658543236 1.5457085535 3.7323891618 2.6754938807 4.1304818916
5.9006021289 6.0930120990 2.4873840035 3.4964136608 4.5852083857 4.8797644339 2.3606150794 1.3423075372 2.4088293931 7.8255876938 1.4068523378 0.0898699765 8.9790650021 4.6294431062 2.5539873097 1.5722158407 4.5533433428 2.2619963263 4.3378831017 1.3728111951 4.7655389093 9.7522218086 1.4377683190 2.6633511339 6.9876660514 4.6225653659 0.2002707946 1.9218132587 4.7343121625 3.7498065702 4.0216751681 1.2800302432 1.3114000206 9.4229683576 1.2514664725 1.1696288661 7.3073707682 4.7125828906 3.6643669973 5.4934714378 4.7817761655 0.4901312646 0.4929733498 1.2439318854 2.9605072343 5.8350857868 1.2066974844 4.4483624407 10.8361586812 4.7609217006 1.9856491309 2.4279537443 5.6230808728 1.4717346255 3.5217017984 0.3329736283 3.9050941787 9.2288423913 2.8219740198 3.2429107175 7.5387303328 3.2523714728 0.7131470832 8.9276204415 0.3694989790 3.4780034184 7.8046864495 5.6543048723 1.0684638459 2.1029822785 3.1570218347 1.6917975906 3.7682554311 2.7315674378 4.2170916829
5.9155105642 6.0920406085 2.4572536883 3.4113211893 4.4447292903 4.9119061720 2.4359579613 1.4786864424 2.4293651433 7.9249938310 1.5358442536 0.0436108701 8.9049125334 4.5199448214 2.5175469613 1.5801576752 4.5328169162 2.2267912420 4.3783647606 1.3730724702 4.7116963178 9.7447406578 1.4560482041 2.7302272146 6.9543609511 4.6120186447 0.2429194562 1.8867690800 4.6303896424 3.7364861866 4.0525814133 1.4133708080 1.2878519500 9.4294164359 1.3505208317 1.2194141179 7.2511221223 4.5757644041 3.6638832722 5.3915080936 4.7096632277 0.5626237445 0.5428065954 1.3613105121 3.0238230923 5.9121182105 1.2615000674 4.3638253225 10.7714129350 4.6391697531 1.9830114802 2.4168623936 5.7381106759 1.4633233984 3.6078412013 0.2151504999 3.8931463513 9.1345328783 2.6819159457 3.4193360295 7.5800056535 3.3294299373 0.8794363373 8.9091417112 0.2433561666 3.4817249495 7.7362671038 5.7655663990 1.0721105968 2.1954338048 3.3203892760 1.5373819593 3.7441465995 2.6508310748 4.0891593188
5.9034177992 6.0824391352 2.5167541214 3.5823837132 4.6855492294 4.8097892067 2.2529251027 1.2549731013 2.4097301056 7.7413282653 1.2948259731 0.1368176737 9.0613619392 4.7424719789 2.5623265457 1.5967945257 4.4978008128 2.3037299040 4.3530239882 1.4271779061 4.7854487383 9.7372206481 1.4801578397 2.6418860102 6.9751991475 4.5558279916 0.1667583941 1.8669221596 4.6492710453 3.8050234070 4.0138806276 1.3744073116 1.3237986870 9.4410353618 1.3447313643 1.1441686169 7.3080369498 4.6329192694 3.6388904429 5.5138234109 4.8113823846 0.5378167158 0.4498650073 1.1962569663 2.9897549811 5.8316821032 1.2011554294 4.4324107655 10.8935634306 4.7790987714 1.9156000898 2.6024350346 5.5444136145 1.5130331584 3.4739053302 0.3717920798 3.9275631324 9.3052202751 2.8911319997 3.1495560819 7.4964258662 3.1861876239 0.6366967672 8.7382419964 0.4355026378 3.4343298195 7.8650128940 5.6133202642 1.0203692068 2.0584777773 3.0859004360 1.7820978923 3.8486596120 2.8127481528 4.3100036276
5.9139586068 6.0800955674 2.4510220514 3.6460076704 4.7373673176 4.8271924546 2.2174377062 1.1516625797 2.4301537242 7.6898204490 1.2672550726 0.1443136326 9.1078566101 4.8278416626 2.5134792772 1.6193129695 4.3816487136 2.3124241510 4.3252446123 1.4688853842 4.8339958077 9.7158938603 1.5974933494 2.6408223243 6.9978342762 4.4881331109 0.1187158821 1.9707930296 4.6028846294 3.7968359828 3.9693778705 1.4041048551 1.3765769600 9.3605502786 1.4092747784 1.1556248678 7.3776095074 4.5935984772 3.5929382032 5.5351393648 4.9286376589 0.4733810554 0.4101310557 1.1030861307 2.9729619960 5.7818071252 1.0401243947 4.4609823154 10.9294714403 4.9421847696 1.9970381480 2.6958524985 5.4405083520 1.5450233417 3.3580019128 0.4619604663 3.9751100298 9.4699623979 2.9940808268 3.1447305904 7.2916864472 3.0954738163 0.6358154388 8.6380228180 0.5515190944 3.4125946988 7.9530993185 5.5250913294 0.9759433952 1.8528075269 2.9988716134 1.8066027559 4.0246699840 2.8681925668 4.3299578053
5.9216329760 6.0852731211 2.4579870112 3.6381128665 4.6974753476 4.8431421924 2.2304398975 1.1631817119 2.4340325165 7.6986933779 1.2937610871 0.1343944030 9.0888078246 4.8087270493 2.5152868941 1.6026608312 4.4564038130 2.3129876351 4.3106452295 1.4344520269 4.8233423740 9.7209195884 1.5534054670 2.6390993947 7.0055237525 4.5597404806 0.1227859180 2.0012417340 4.5869185129 3.8017297706 3.9692935841 1.3670293214 1.3857540837 9.3585110960 1.4027913439 1.1412813355 7.3826197759 4.6001231524 3.5590587149 5.5470486162 4.9615207664 0.4738386843 0.3926616231 1.0987336964 2.9905928358 5.7661110900 1.0120151538 4.4682354964 10.9445875715 4.9300807321 1.9811281070 2.5930751510 5.4134336328 1.5721473969 3.3964704375 0.4535329312 3.9799124095 9.4618664966 3.0024150257 3.1850121124 7.2807475353 3.1073417334 0.6228293494 8.7765008681 0.5684567119 3.3979057861 7.9230003625 5.5187200737 0.9747834265 1.8610579838 2.9957087451 1.7556352073 4.0067375034 2.8752309891 4.3263572024
5.9142062934 6.0916845890 2.4529136021 3.4131024319 4.4560643692 4.9126623008 2.4357280109 1.4677095864 2.4270721604 7.9213081838 1.5253932416 0.0416329009 8.9116506802 4.5262600306 2.5202530724 1.5679853355 4.5488675272 2.2335140194 4.3802709537 1.3627446022 4.7118858902 9.7602629035 1.4402042906 2.7257878096 6.9429523926 4.6227102185 0.2435246762 1.8987563948 4.6441596512 3.7346251393 4.0475273338 1.4045694149 1.2847824003 9.4256328149 1.3354139760 1.2263447383 7.2660677323 4.5886586367 3.6653902375 5.4149803096 4.7161186056 0.5459576608 0.5275001130 1.3634770346 3.0060148635 5.8979597365 1.2548845067 4.3858609910 10.7919850947 4.6400248801 1.9961713155 2.4170354502 5.7224122394 1.4492493051 3.5987985428 0.2227848823 3.8932854097 9.1340612243 2.7064556975 3.4055731093 7.5799413829 3.3221977145 0.8670474841 8.8997538717 0.2620858464 3.4905545266 7.7354858917 5.7573654869 1.0769403037 2.1858428525 3.2947624117 1.5409511676 3.7383530846 2.6636609729 4.1108894320
5.9166253869 6.0812369930 2.4522446433 3.6447020352 4.7253328723 4.8324469094 2.2212863968 1.1539220934 2.4321191760 7.6920468222 1.2764025623 0.1426208425 9.1010651495 4.8222846120 2.5133357501 1.6149314041 4.4043932100 2.3163342676 4.3149643773 1.4553706244 4.8304172304 9.7161844251 1.5850883928 2.6354717484 7.0041283966 4.5131457318 0.1211860174 1.9825026819 4.5978563507 3.7944381153 3.9667334550 1.3921681215 1.3854427361 9.3581470188 1.4077756248 1.1527680669 7.3871956706 4.5974927902 3.5710775881 5.5306190016 4.9449860460 0.4766976051 0.4126397218 1.0966290060 2.9784743807 5.7796474233 1.0265631769 4.4606655302 10.9257516766 4.9467429323 1.9929021284 2.6658484669 5.4372228034 1.5542189281 3.3724197158 0.4596510333 3.9769412730 9.4672695887 3.0069469453 3.1586267562 7.2880592348 3.0802895609 0.6339693165 8.6817244023 0.5504254718 3.4087365529 7.9432599152 5.5253055894 0.9752827384 1.8559636939 2.9866814339 1.7892301512 4.0200635128 2.8805276248 4.3270323445
5.9139534790 6.0959386306 2.4888032152 3.4136303910 4.4149904723 4.9093226226 2.4114020457 1.5053978082 2.4520886893 7.9259001993 1.5649072448 0.0429765414 8.8802549449 4.5115168909 2.5076721665 1.5621096889 4.5890702931 2.2187236787 4.4141612702 1.3609199274 4.6676620170 9.7684210041 1.4061949854 2.7582566173 6.9213208153 4.6069682319 0.2612180161 1.8429454600 4.5197660318 3.7388893992 4.1383973990 1.4571582380 1.2469473892 9.4872277875 1.4724713002 1.2439814187 7.1955262481 4.5112339060 3.6748759384 5.4080655312 4.6521847814 0.6144676911 0.5379518797 1.3986610386 3.0306758925 5.9410106356 1.3374021920 4.3545301970 10.7971060120 4.5718309859 1.9021176700 2.4222464624 5.7558359665 1.5244205434 3.5844374632 0.2130928541 3.9211470520 9.0922760608 2.6514928381 3.4815730769 7.5963551148 3.3429022551 0.9341905344 8.9136918025 0.2353929439 3.4577364145 7.7603178866 5.7540005229 0.9983910153 2.2475585386 3.3386586433 1.5015735263 3.7434025091 2.6282087264 3.9832482427
5.9050609435 6.0784453960 2.4558111815 3.6400171242 4.7667392649 4.7992505659 2.2143266318 1.1515552954 2.4165843440 7.6892108608 1.2307851318 0.1496234707 9.1262792620 4.8407408882 2.5218413608 1.6488520529 4.4355991962 2.3143391337 4.3522977234 1.4785374273 4.8214252626 9.6786790836 1.5540907699 2.6566376230 6.9852432450 4.4956228209 0.1410187316 1.9466796942 4.6132629415 3.8182587409 3.9967145728 1.4172193383 1.3765712059 9.3681326509 1.3927119941 1.1494494995 7.3317314647 4.5780797523 3.5812260169 5.5183058014 4.8676347852 0.4721204560 0.3618400276 1.1272378574 2.9914231171 5.8112774340 1.0861441511 4.4679875056 10.9792065889 4.8761376849 1.9733209996 2.6856419500 5.3519774997 1.5785447610 3.3691222379 0.4949785393 4.0036655871 9.4427738298 3.0219642561 3.1579472910 7.3516512244 3.0747754047 0.6832473441 8.6115078023 0.6464714139 3.3584043614 7.9427248520 5.4779405924 0.9713207175 1.8786659947 2.9629764466 1.7968542103 3.9922468450 2.8989725448 4.3089001487