-28926.8910194069
-28926.9442000838
-28927.1043685201
-28927.0178722828
-28927.0311014984
-28926.8300780474
-28926.9024268214
-28927.1590025562
-28926.8008656894
-28926.9479845051
-28927.0416578773
-28927.0611370004
-28926.9679269017
-28926.9845067894
-28927.0263063108
-28926.8694763014
-28927.1198207686
-28926.962212378
-28926.7217822374
-28926.7836731377
-28927.0539480286
-28927.1321730979
-28926.8429143309
-28927.1800521835
-28926.8431971931
-28926.8740910777
-28927.0706581227
-28926.982150829
-28926.9333066921
-28926.8190494152
-28926.9800812683
-28927.1012552673
-28927.2013537881
-28926.8818521685
-28926.9206600719
-28927.2515531873
-28927.0289723448
-28927.0598167047
-28926.8030257279
-28927.0092058696
-28927.0425631995
-28926.8526683825
-28927.0283568236
-28926.9175032809
-28927.0202849789
-28926.7380523236
-28926.8809585471
-28926.5483508433
-28926.8429660325
-28926.9551183739