0.0274385416422682 0.015468262842438 0.0887770609411212 -0.308354299608368 -0.603327042621251 -0.225021803906957 0.273536181487531 0.365112658103471 -0.126403336483006 0.277951534663841 0.189257520311898 0.145452372847047 -0.279486996677987 -0.434261156327591 0.196963626723147 0.903509866386756 0.455007634121201 0.130753897893147 -0.833317243708609 -0.266134750643389 -0.3382485006105 -1.10361409399784 -0.187136361300394 -0.284331466750079 0.818008646289947 1.10358246944531 0.548232444121717 0.303515485960306 -0.0175706528105676 0.137350059643467 0.148608657456165 -0.374828080596527 0.388967598012122 -0.101628970559187 -0.245874725316417 -0.153571398212535 0.125799127552457 0.142695894572824 -1.17384991118677 -0.977156764376363 0.354575254354685 0.325039722058134 0.44653945312691 -0.390478891669046 0.469227369913958 0.503614828477914 -0.279964707398396 -0.111532597706355 -0.672543675043922 0.11623565717768 -0.469225313032493 -0.835775217060122 -0.468324141840332 0.492379884802072 0.58741269361094 0.0973277743042235 0.216850328064094 -0.236856585640234 0.213985349292555 0.309523636721619 0.325535430491368 -0.804757444557351 0.257420772313947 1.05846091784241 0.337842266521024 -0.437258803953667 -0.313891167403852 -0.129666064707975 0.0360288499735853 0.185997106078579 0.249000670923916 -0.205900776691618 -0.323302942770533 0.562232864928194 -0.217623715495197
-0.0189055688818076 -0.0059217617397532 -0.0268764987817654 -0.0620743686432075 0.0848000806271883 -0.0833337812523267 -0.133643045021908 -0.103749101129959 0.00628377287771658 -0.0483763094121884 -0.0612135637498116 -0.0539491726333221 0.157759723097069 -0.0192351841366862 0.131117708802393 0.239361867265458 -1.48989489059539 0.296901583607345 -0.314226181972578 0.592660055340126 -0.141342466568393 0.133386191948878 1.32460672422368 -0.0741544334912695 0.144820138906527 -0.577239100771399 -0.118093535361574 0.261808100480287 0.0566699125920781 0.155973835764474 0.0690083731742688 -0.183884688813304 -0.0334767742950167 -0.0847923673216919 -0.0655746666774642 -0.00198231951256935 0.229529459639041 0.21342073533022 -0.221902028943855 -0.525926850177106 0.092198940369498 0.00290431662956982 0.580284313781369 0.0236392244649352 -0.195771921023956 0.430573939190139 -0.039644076259738 0.275820091245009 -0.554888512544726 -0.0236785623229668 -0.0783329881888411 0.707130651110051 0.870643214556503 -0.728471053426882 -0.494694647781535 -0.440429743843228 -0.182319659128088 0.310924115889578 -0.50136639992572 -0.65900219591448 -0.0685874838043497 0.0553951603037099 -0.19141776007125 -0.857046970958036 -0.83610714630665 0.641969417607193 0.39633431898153 0.464023459805735 0.297880916295202 -0.597467758656019 0.706101439046651 0.580872324770377 0.0997091288211388 -0.136219803278065 0.400702620994312
0.00888238549944659 -0.0354441814169597 -0.0720366169121471 0.0977327228427833 -0.0199131836898179 -0.131376875867072 -0.395004030893588 0.118933771440313 0.141285902328086 -0.0632221085010686 -0.0219055304995325 -0.157407482146067 0.332060629831122 0.0589710487318311 -0.121140548142827 -1.32673533943049 -0.999312463084162 0.696145618532292 1.0142798752897 0.255538982883014 0.101280843371118 1.56079250939591 0.792532883786324 -0.623348212588019 -1.5716484726617 -0.456581919773012 -0.00999078749927622 -0.0303086626174708 -0.311236247651998 -0.0240030353741811 -0.00873017627098471 0.322511300516421 0.041891990591566 0.0605065107459769 0.356078834706112 0.368869552100574 0.293516728045351 -0.151816621212109 -0.493519140023887 0.238967717354593 -0.0713015388983422 -0.0124814138440569 -0.429070873059077 0.369246732739347 -0.283767881228477 0.0201574383638699 0.134291991124336 0.219591379727323 0.660254065396542 -0.426471746216981 0.139308467908998 1.24155653550343 1.04375550091356 -0.949402748539293 -0.662618193531182 -0.62306899092905 -0.481460415321032 -0.018536101548531 -0.0144354512364729 -0.147230032653779 0.176232832650713 -0.475978826214939 0.123714478186969 -1.57081286456626 -1.03547269636137 0.986235582055784 0.585235741689678 0.802373518938604 0.472509381402667 -0.162411617641935 0.161813579355782 0.136045996794213 -0.0510764805562874 0.226891509159279 0.0802859971405242
-0.0436323694217322 0.0169661867698348 0.0284484704419274 -0.21521896395161 0.0422928253671945 0.0148843656163621 3.65096460161929e-05 0.487455453463001 -0.204026700566181 0.242847510019272 0.267239810210837 -0.123370207651647 0.173168593487185 -0.213372141505593 0.156489855902182 0.165297679448496 -0.0032601571231361 0.495545425377786 0.0785034522403111 -0.976184373663453 -0.0697732759693263 -0.000391064588666404 -0.445835742555457 -0.391999698402748 -0.112519900809891 0.494711874163811 0.424962766551706 -0.506550769660019 0.0679038278271873 -0.478033393688991 -0.160173473497069 0.0756595565037962 0.375007800614592 0.147356787974103 0.113486377988587 0.482518166614768 0.149418811643468 0.385446731163208 -0.81352233070307 -1.07971827357006 0.00501441990319584 0.0343177817043052 0.776581253799446 0.106405563542912 -0.229379564402228 0.8179312561248 0.293284814660093 -0.049911514316151 -0.547275994240166 -0.0445209422149151 0.228404088367119 0.671712437821596 0.677708247294114 -0.260149225578199 -0.0752679776947634 0.0182895328828301 -0.0195866537571378 -0.318531749100656 0.838907847532385 0.0457632986201985 0.606782603483629 -1.70335599222438 0.452153711087541 -1.0540746181168 -0.505910822414003 0.249334142831543 0.152613662780068 0.381193100292138 -0.0691664959369445 0.340998294019959 -1.11759214621838 -0.0418837630657032 -0.209894469167459 0.738066405464378 -0.237027049691704
0.0325270092782293 0.0174253855570525 0.00750633179889261 -0.282057070069381 -0.212721138521699 0.398897964618343 0.204990606643045 -0.171424615114453 0.308388238152552 0.247080057855318 0.382634974199595 -0.275611060666057 -0.470666415609399 -0.0114959105118029 -0.134913426437161 1.24611869859436 -0.690715194352658 -0.426334192268962 -0.671960806258579 0.192247968852844 -0.608056841551631 -0.87984981599698 0.335571983603256 0.78786119175735 1.05088773739588 -0.328715883457709 -0.0042070939279082 0.0941061837085693 -0.00582380275994919 0.317040510038023 -0.134045936679002 0.0285826819575644 -0.261576187095029 -0.092688735268518 0.144163993718968 -0.285235723264438 -0.0391653370985961 0.0533958715190485 0.495127878440249 -0.457953345490268 -0.0210966618631456 -0.00621229624678347 0.977545514973381 0.016257848215084 0.0372614361919066 0.214902461316075 -0.0348512853344714 -0.0798437676253985 -0.986076945072742 0.212545018046198 -0.188318553922805 -0.253809402680542 -0.307431788271001 -0.323841588604364 0.17662081191718 0.112866228226679 0.432609737620816 0.291322035521447 -1.162325975665 -0.378258958881316 -0.346763475658136 1.00523319638318 -0.257665284098182 0.296324628356216 0.201910426648158 0.0484475289329383 -0.177049928812962 -0.435488857452431 -0.165349872815689 -0.309789745761244 1.38614398969415 0.149310568256335 0.269451214896649 -0.706888196207282 0.412973461598318
-0.0658410328272725 0.0128897048149986 0.0520987506447408 0.297616607026859 0.68246015770025 0.075285718297405 -0.451815354086433 -0.69891135277311 0.203195206233671 -0.389599060622092 -0.617713128702548 -0.232002602491363 0.256399273556043 0.579462589635822 0.0333993841298697 -1.41426490176267 2.53284923617807 0.25393487244995 0.832379562870433 -1.18574100005017 -0.415587243720858 1.57634947525156 -2.43393277805177 -0.0518120727904587 -1.56429357876072 1.02283727351757 0.405897532246124 0.0445561663100152 -0.216577534159705 -0.0932186393561193 0.276009581450036 0.0707071001547546 -0.351319725214847 0.246680251520422 0.23775261462873 0.432276265713189 0.107512165771459 -0.0554301272886268 0.139637826053693 1.40954821545163 -0.176348018012792 -0.327679729419362 -1.06687639124914 0.309296865540025 -0.513219179371822 -0.620161331867098 0.240781629697158 0.590320866893258 1.30789893318797 -0.37431051779772 0.0578868150892234 -0.29220418056005 -0.840446394868729 0.185186180560726 -0.193548432159533 0.447587948454051 0.261644064183397 -0.514560266087459 1.09264731624309 0.324939449086682 0.169597847262728 -0.269359169451059 0.0375946509893502 0.0918245879427404 0.967627489655954 -0.132413029905418 -0.0860228966585475 -0.558777818286183 -0.388261316338837 0.335785899275689 -1.2186662730022 -0.458952218552049 -0.292971140236573 0.449313929113957 -0.0888320825203287
0.024424953184833 0.015198554260248 0.0850250520374993 -0.367648278730314 -0.72781696512079 -0.15679144614709 0.129663750716326 0.639960872855936 -0.103468336809891 0.344611463424646 0.425512468123415 0.177438936520163 -0.20223798502157 -0.732433121350189 0.212160124101929 0.940960535673507 -1.59634364864909 0.0535789339694959 -0.966651499400479 0.600877811015968 -0.0677274502415035 -0.750170381559478 1.50095628489757 -0.381861843878674 1.05923790481608 -0.317960964493924 0.060916601488201 0.331948015570874 0.0639677280323852 0.228223339908321 0.247785053977687 -0.389535297296655 0.0868214808876059 -0.114472138431025 -0.30379110807671 -0.209813479459747 -0.00897854470796811 0.133905554518968 -0.410859758782127 -0.817391838960419 0.431142152695038 0.388267744093417 0.720890931005408 -0.5408857777466 0.478699309063511 0.343185273238366 -0.311911418993115 -0.176704886947091 -1.3137690157809 0.443417107061976 -0.532394971056186 -0.167916860884883 0.244167770810069 0.0535951319110383 0.434591028692653 -0.0953940486162813 -0.00524761883936969 -0.0858575748107418 -0.643173207484995 -0.0782450565061824 -0.017138193482404 0.36042836767552 -0.187401699009469 0.41929682944425 -0.367590943159458 0.0600231436015371 -0.158936516405633 0.208249221105082 0.139113321279939 0.0558792987786993 1.22662434739299 0.265255176706619 -0.0813062103475119 -0.267571739457364 0.021398252108054
-0.0489887458686009 0.00449891398585453 -0.165238286996174 -0.0872868503192208 0.235355319280456 0.0847926244318751 -0.0458095784531768 -0.0141274332369842 -0.0742287383342179 0.0700093031175155 -0.164504237423102 -0.282344262144029 0.390434925827716 0.0560037401073742 -0.139901621101669 -1.30601302999411 1.51729358015926 0.566194418631134 0.932887533030814 -1.17493363060901 0.232112131429412 1.08532147579282 -1.18426210227633 -0.33311529580266 -1.37688210956428 0.627766136866161 -0.143842605989952 -0.14013456292766 -0.170919136494257 -0.411390948420644 0.176539565099285 0.3618208764278 -0.29379440704322 0.192906942252418 0.142008639053097 0.477544627230703 -0.0738597852213078 -0.368943599833339 0.705801134352659 1.24742019034178 -0.156897632652757 -0.259218229604786 -0.768073734947123 0.284950845181439 -0.331334293563546 -0.612052848019122 0.187426381587058 0.367009617035214 0.939486522993149 -0.377755280032402 0.368759251831976 0.313725588445863 0.3752037185742 0.0131835817544106 -0.0439167332843654 0.435056655234451 -0.00603694710183245 -0.392756373671943 1.27994874228111 0.422016798072456 0.0985385061569717 -0.250237113794986 0.181784869947006 -0.512056784233517 -0.0010814054305923 0.112377461768391 -0.196357618021314 -0.099284897018838 -0.307129940915909 0.365294177892819 -1.86471602921697 -0.462488512011955 -0.208375462205039 0.320328949281313 -0.321512170344457
0.0136993447819351 0.0181347525525361 0.0770392097469152 -0.17502415767943 -0.654634665232247 0.170474078767116 -0.107543533213811 0.718215442438897 0.0225488201779305 0.212366069358682 0.645131615750525 0.00533503630166199 -0.063665109346744 -0.794897011920964 0.14705005552553 -1.64702983594726 -1.73340677332809 0.425381856150343 0.325078802805983 0.596887975192875 0.508342056306461 1.6172906723856 1.72828642402941 -0.672878689612649 -0.577392338440594 -1.0497479679537 -0.874448959488416 0.0123803695420544 0.0696359791314908 -0.156755193611257 0.102983684114535 -0.115340399519734 -0.331410398177777 0.0445571947507481 -0.147881806968223 -0.0184725953332775 -0.0879982741961701 0.00624160680766971 1.00560086394518 0.906041630360851 0.0882430430905885 0.046071059509504 -0.187111935832988 -0.0641047677600376 -0.0960147125985566 -0.631688866931436 0.0272426236826602 -0.00564948205573103 0.121959444076359 0.0966641729213517 0.106446186951859 1.02254519634944 1.49094184326144 -0.751699672929227 -0.154343242982539 -0.476691535642804 -0.544485063201393 -0.0228642943727324 -0.582468207677578 -0.220623934223105 -0.273558807183654 1.06917727027871 -0.496319584139439 -0.832497319334344 -1.4478134097988 0.938832177576873 0.200446184154762 0.748563185804216 0.28488373942362 0.0990614682696262 0.508782228940121 0.308001287326817 0.0823073974009419 -0.745161618080313 0.122751086330471
0.046938035047297 -0.0287474895850037 0.134648345838269 0.415335275741309 0.197308411478835 -0.396170796905007 -0.321485687995586 -0.27500068109111 0.0860910308570988 -0.265683779382034 -0.333741616208966 0.389074555848338 0.19146172591258 0.448692493801132 -0.0625183979296157 -1.23790608512218 2.14512373746105 0.410508546271859 0.64657657498018 -0.835989389842738 0.163031253183477 0.726840203534765 -1.67164402222693 -0.414092662225843 -1.0143809195917 0.943343947071888 -0.0810897235732469 -0.237176173597968 -0.186488957859064 -0.0731352487250146 -0.107910943665622 0.32218708457539 -0.29504370542345 0.0567007658140636 0.185917916142149 0.134306389294596 -0.314773312442454 -0.348974366123581 0.406462917539008 1.47372548828334 -0.167657436710022 -0.0520519565913961 -1.08720609343576 -0.0585203345806594 0.19676385211079 -0.886093736796299 0.0507769471928447 -0.270144126840407 1.14820162775021 0.0294206040446543 -0.0434199964103986 -0.448973772341567 -0.73763523168713 0.659946818727603 0.656703116656193 0.374738863362952 0.480626864107056 -0.504815275923334 1.25105367145094 0.727195015587598 0.108298408711723 -0.280831425826006 0.176822643411002 0.675940871894711 0.467535070688053 -0.757675427807455 -0.421101228710036 -0.611994741117715 -0.410174817254049 0.863255924772437 -1.56447227033805 -0.893672316556674 -0.162471781424806 0.685598701706727 -0.21628905653414
-0.0748306332731187 0.0357444861109521 -0.0320426136930567 -0.198300342565669 0.192276765193364 -0.106932382308314 0.492687645691378 0.144567656706612 -0.265822104660602 0.22969580992758 0.0509181006834284 0.0366649405668533 -0.194700542890509 0.0452429076093761 0.163247739957742 -0.243784933747265 1.53045016534444 -1.04394679088987 -0.27992099866725 -0.655000018802592 -0.555556741910895 -0.12917189893584 -1.3474298809671 1.1051968642857 0.167997593482412 0.124452127302606 0.742621112359989 -0.34808990709333 0.1635868682894 0.0174076449544108 0.0799041885184534 0.180997855676192 0.273738527201719 0.154039852966348 -0.0472982464139779 0.0244108121247563 0.00610456708001738 0.0760580772877758 -0.0679107698021341 0.333743415980248 -0.253299810297415 0.0448148191543271 -1.01643060197228 0.243789561730563 -0.188013107025149 -0.202462956431881 0.257598178340363 -0.0615601482767822 1.22483331785673 -0.221208859889914 0.323159475288301 -0.777363382976779 -0.684048584412138 0.893231886812831 0.608872652162965 0.33778030296687 0.345443214867339 -0.222248613470826 0.402117241222348 0.21978395525455 0.207132077359023 -0.0652478796346009 0.158525911443042 0.566996602402758 0.710605238125987 -0.955777281311684 -0.760214647976863 -0.385678130328099 -0.637753581933056 0.376792145286088 -0.993556794522764 -0.296674555315568 -0.00128066582258209 0.156582929788504 -0.136256570034264
-0.0265795365201548 -0.0167772107851735 -0.1240739182231 0.0445047442733727 0.133742289552628 -0.0198869584511302 -0.289203447611775 0.0328658804997035 0.0558067937070333 -0.027104555514275 -0.101197539671757 -0.230009227240916 0.442791043765853 0.0664367571217761 -0.150165202505334 -2.00347325289316 0.493700916923418 1.06259499247829 1.36814062044524 -0.782230478744994 0.313989126383656 1.95489228377514 -0.378424023618938 -0.917010979217434 -2.04712439135827 0.338963266919831 -0.219346353722722 -0.0970894331643854 -0.28188737734846 -0.325351339600188 0.0642680327263776 0.394978834095633 -0.196973911130475 0.145482454738483 0.300693958809731 0.58157603534183 0.14257633833763 -0.286539271893326 0.170999097761236 1.07535202843875 -0.15896428430542 -0.208303471353739 -0.828507997731617 0.40533780337727 -0.400780782490009 -0.478926851575655 0.206565149405039 0.365971920335768 1.09676365027633 -0.48953778883684 0.335258052069554 1.05823723198301 1.0649840603007 -0.71535534876084 -0.425792461112933 -0.132843946572483 -0.293166029755448 -0.341190098216636 1.05249210493913 0.260237414371041 0.249977689620124 -0.660140936915929 0.237231195177175 -1.33829964125103 -0.853334042802262 0.794440898455944 0.272820129627284 0.45654900966956 0.146558460855227 0.241915999825493 -1.35194062202138 -0.311755610222088 -0.254430837993367 0.54650800612291 -0.212483825822594
-0.00562531369850904 0.0314139792951018 -0.0619848942994495 -0.41707359769001 -0.376773376242713 0.19738323054215 0.0771741925931018 0.104564654631109 0.209585936947604 0.406419980138412 0.423834052847403 -0.131225180858976 0.0313196198578628 -0.351820061631378 -0.201919168394387 -2.44729916514645 0.763246491257306 1.74682303979831 1.03639135104599 -0.0663421405743539 0.460289448614938 2.12136624231183 -0.172656430002225 -1.52599316031845 -1.40550155827805 0.145940367974784 -0.913740537686969 0.438320669010335 0.028970404113849 -0.358265042593969 -0.115826337766005 -0.126443702781771 -0.504133162607271 -0.319545277442881 -0.0256333710459324 0.402745875620303 -0.0244054128109089 0.0192866061733287 0.727234867665996 1.14022504142622 -0.284789122876198 -0.455378644115577 -0.58112069320736 0.233785918722126 -0.251789802191407 -0.795183689775246 -0.0388418924881146 0.191601850962431 0.730033254900082 -0.137526694339334 0.348874350262311 0.9534000405577 0.827148913303155 -1.12854478291306 -0.232511680654124 -0.423420619672797 -0.0137931899988077 -0.2455564229096 0.850814363006778 0.443551318577613 -0.0568712298655336 0.198545111460088 0.204098177197114 -0.930283521095236 -1.01430250098582 0.938945048947303 0.408419783143439 0.175975979577683 0.496235766219712 0.35804264228549 -1.16211643086568 -0.700841221808304 -0.124308659820373 0.377139244033425 -0.119760380679342
-0.0117028842092891 0.0230275593390724 -0.109337905182452 -0.329699329908497 -0.415573873991331 0.161552612519821 0.265474234582716 0.183535533184501 0.0762316266614443 0.349980695380675 0.433989390863935 -0.0426118991045613 0.0267415159355788 -0.41507765133773 -0.198325025143258 -2.40130318181044 0.936213510360852 1.59502853006195 1.18328276958848 -0.0666607000913543 0.677268074660454 2.08795657377463 -0.309530321586382 -1.63486518184892 -1.74067990619081 0.484167271329894 -0.700755861227477 0.464441006743272 0.102512915369072 -0.423797543201387 -0.0980186293665158 -0.25507849854488 -0.18592202990508 -0.335597694621578 -0.15842409581049 0.453839068338499 0.060892433130979 0.129307396002393 0.0464618669879872 0.994276445925576 -0.212173493831456 -0.447668423941396 -0.936379089318841 0.144398221095875 -0.18311207271275 -0.649274689242813 -0.115939209136436 0.177563634959021 0.931252569375764 -0.112020078613726 0.385112487925032 0.680432329685252 0.619313639593046 -0.819775250358801 -0.363791883092308 -0.561298269412216 -0.226784037102697 -0.338526436718553 1.1931732841163 0.622926037667183 0.19392432724739 -0.658707033424152 0.463151342064277 -0.698793853419382 -0.860909794350622 0.740972264755047 0.551904234648177 0.419341052395762 0.666307210439917 0.394626850254815 -1.34268414120536 -0.736701664611885 -0.281418922594647 0.81509738768543 -0.356757862699977
-0.0575754546573529 0.0195303466270143 -0.00282666935423961 -0.154426289571717 0.178532940349733 -0.0396918987538155 0.253452019525877 0.237833861446626 -0.231136141173937 0.210048478167204 0.140687092711384 -0.0431531160402239 -0.00817301850396295 -0.016343723016277 0.149049601420375 -0.18893998923563 1.84070553764748 -0.00879496803715429 -0.0841357079137668 -1.31949485956104 -0.406987422312762 -0.019324401370261 -1.69814925390414 0.231036639533033 -0.0508021439907995 0.828463003449555 0.857320793303157 -0.50274219651609 0.0927093040831751 -0.406625154064615 -0.119059755430087 0.136291537019181 0.518703082469564 0.190142750672699 0.0745498689530505 0.388302196857967 0.195256672216798 0.299716940113523 -0.837419179571584 -0.505322811424996 -0.110810118091527 0.0382744503137643 -0.211354340787741 0.240376166938232 -0.281467002198908 0.416861738899043 0.298332658887106 -0.0570931159536461 0.530665647963898 -0.204790574920505 0.364060820343948 -0.214651007556893 -0.124773000811255 0.477296001683537 0.334941806544202 0.25691040860027 0.219982958536356 -0.391703507471687 1.20305042891459 0.327223615954343 0.558957795414432 -1.52967806346425 0.476290443756992 -0.116113272730471 0.256048061045774 -0.495218124114556 -0.375095475187068 -0.0403989517576503 -0.43730945465976 0.523218194396961 -1.95384404555818 -0.486790052308846 -0.214125217232223 0.894544177187948 -0.31302830562899
0.034781865585004 -0.00467580579190481 0.0560875580271015 0.296749631489066 -0.252420750581011 0.543238078812812 0.0964739113857743 0.0656150329762285 0.151643328948624 -0.151490605499795 0.457194613339607 -0.197353148650714 -0.429679452862742 -0.0909902653982154 -0.00415258656906712 -1.01638715035131 2.30913175223055 -0.113919351537117 0.6977965230187 -1.32266605656079 0.275400487426006 0.811373403791778 -2.22019656852675 -0.0104062775553478 -0.987047021794003 1.00928730975208 -0.0386300336971474 -0.430631788981361 -0.0995708035425704 -0.546555057286438 -0.293026161815781 0.238279690504316 0.0151108796877724 0.293596432202146 0.269445815582801 0.406942942251066 0.275848373365162 0.000967762729612324 0.174912314749733 0.734341393129993 -0.100170384489822 -0.169602218135842 -0.375798414427971 0.435016803156053 -0.514548439019031 -0.373105956589368 0.26552102863606 0.0802656854360504 0.876910532382493 -0.247812050546924 0.512488986451498 -0.420269477267343 0.256646870662477 0.29796242022328 -0.211928467826854 -0.240364596979988 -0.395714940550171 -0.216103680092044 1.10452169294459 0.263642324527326 0.193373854345132 -0.814850819019729 0.0029670515142737 0.479751403933217 -0.139823973826339 -0.118664319968306 -0.0322925247911394 0.365253297373688 -0.0990882077286803 0.348624953384595 -1.76459809520453 -0.4167398686722 -0.20186183282353 0.521258757690697 -0.155287608685479
0.0108204820605034 0.0302760096242028 -0.0212884660598222 -0.408043116725033 -0.305488292396097 0.281455689350846 0.0707256120879459 -0.0145367526486587 0.28796649052034 0.374790028289411 0.398749612042629 -0.224328377742833 -0.162052177605803 -0.21399769058135 -0.170955646140273 -0.896644767384795 -0.0972097607301289 0.724172428273751 0.270949653044412 0.116704369041677 -0.0942655920221611 0.7900260595 0.174640549286077 -0.379014862819961 -0.301450891189109 -0.185344817543768 -0.585922740099222 0.295507275083783 -0.00160899552654461 -0.0450521318534324 -0.10538586455629 -0.0341935974858135 -0.530819399853459 -0.22128933537726 0.0738374166353683 0.0862558384845381 -0.0871025023178573 -0.00443077978730318 0.910795597648452 0.634757734078262 -0.223527479522126 -0.298522149092134 0.124886643512235 0.176983851495877 -0.157263757553652 -0.485845686605906 -0.00767551029944652 0.0953693660386929 0.0578773020124446 -0.0237978614479774 0.136638378656335 0.476881282958015 0.312178042253106 -0.846051139752581 0.00779918029757179 -0.124527460586287 0.270385553302443 0.04259338717137 -0.299319447770276 -0.00492263156778894 -0.290702914200272 0.922912429252713 -0.0844581240835155 -0.404722024488475 -0.428327310409227 0.561208537958275 0.0851860030121904 -0.209686724139423 0.141804750677809 0.00110017447396683 0.280940697653871 -0.252403009978369 0.119338719978873 -0.313550753521278 0.199215654817906
-0.0201484395074574 0.0609567106767822 0.108568374404096 -0.365945952207263 -0.306695681816463 0.0661030281039661 -0.0172644345823614 0.579319122153589 -0.175720669165753 0.217550181982798 0.0384436288143182 -0.429396117440841 0.244741640738999 -0.322642169599677 0.186223105929622 -0.00683990220400549 -1.11237358082972 -0.528512607289675 0.841329054127698 0.755397945804558 0.257226654125621 0.288320531242623 0.665274398833952 0.568365714128365 -0.583349838495814 -0.944855240728812 -0.441064805995763 -0.179740843990466 0.020595297005881 0.31235364850824 0.19559374366699 -0.00791153744763571 -0.566589854092915 0.127257199401456 -0.0267566854363883 -0.0951559645866264 -0.629050659341491 -0.0445055156039223 1.00079393195983 0.448955774628742 -0.363790597541392 -0.225472260947946 -0.157061668949646 0.290009230925964 -0.00930533175083136 -0.0849132091078018 0.334311886595331 0.167645609641594 0.0976949276458511 -0.434628566779402 -0.0802443452908437 0.261900917256427 0.0908079742783177 -0.392456068977951 -0.391605548491883 -0.219170490357404 -0.210335156021486 0.0780766493361781 -1.16573705646568 -0.306221056418253 -0.0550935700588015 1.67265935034044 -0.292232462680203 -0.467169974227891 0.0169908693474232 0.298124399638704 0.269775687947863 0.139935559645853 0.177084638687696 -0.126380196566517 1.3829805059999 0.377063910749744 0.0133679297557741 -1.09861510070564 0.23315317056124
0.00854351427797235 -0.00726490533685596 -0.0637754096153422 -0.218259548978282 -0.0806354098795101 -0.124563198901754 0.0736744087792115 0.0831340066399704 -0.126452187417817 0.0994867285126599 0.098072108284624 0.0423023384439733 0.0534969158210511 -0.208353864949649 0.172520161605122 1.19940074986389 -2.35228949625407 0.523915477213833 -0.878287100303414 1.06624621419009 0.0892532290004309 -0.994570322864988 2.21023714846983 -0.25800286976874 1.62913548141602 -1.00574047477466 -0.567331874081667 0.250472883832992 0.212617008897498 0.0770132416184107 -0.0627891349525386 -0.255332780516077 0.138761851659488 -0.207191726921528 -0.225955885202569 -0.167475402700307 0.191009983320675 0.285080171603595 -0.154997588398815 -1.82931915607373 0.211182591185355 0.270063651353061 1.57505363992816 -0.113113311112746 0.081812974518624 0.84330674565697 -0.171970717143597 0.0292383129247566 -1.53396100489621 0.1346540022623 -0.166295266959361 0.868612044109123 1.22101240342401 -0.837642608320796 -0.434238016411102 -0.616382840614605 -0.297066391234784 0.514345579084476 -0.810882066231659 -0.804258393691735 -0.170676424481305 0.182320173348455 -0.271682417066568 -0.932905530743638 -1.20092978412346 0.722012702734764 0.432284493239052 0.673108289006257 0.464113448369859 -0.702386968229778 0.970826454555485 0.716453466353341 0.225762795454976 -0.299638521507643 0.512083009472205
0.0217358377786122 0.0254377101965076 0.0972382999604655 -0.253183596494603 -0.444867722715661 -0.207202525549223 0.349626397548208 0.13651239466656 -0.143453598282752 0.191236240281902 -0.0401025037164061 0.0015863698304219 -0.264015905623534 -0.160128222104823 0.188724016681732 0.0819070768456798 2.82033570198635 0.4402417962993 -0.220504377987911 -0.987009226597071 -0.453149755937306 -0.565062362494449 -1.88243606304399 -0.210512304937719 0.0924028287447856 2.13515506143753 0.587705799219802 0.17735948947355 -0.0985960988380113 0.015280829518876 0.0750062395282529 -0.265129449827028 0.41764901028004 -0.0276557997470829 -0.152378664072612 -0.0967101956441467 0.0530287181774209 0.0294619987841516 -1.08668930196751 -0.364672999690178 0.052651537538648 0.0945504701051607 -0.308920456231802 -0.00458067502411614 0.298363512109092 0.228459624166693 -0.0840166658989394 0.0433837438745656 0.390861471621666 -0.404029112544717 -0.273698675123321 -1.10107590226917 -0.882185662011467 0.626141714728624 0.573387590226874 0.224545892957831 0.323753142701338 -0.359223035136619 1.03727401030496 0.673369512952401 0.481871020283622 -1.256226471227 0.501846424637778 1.2462757929163 0.78563230357908 -0.624920441358364 -0.402331671115148 -0.401939578085748 -0.0661665343192196 0.368576960712078 -1.17315751346338 -0.790271342614785 -0.465089695735517 0.989777017719355 -0.357059967165252
-0.0327882332243733 0.0377286053948039 0.159059672183392 0.169208068224977 0.15649936897896 -0.00553429669365177 -0.313310612610158 -0.125567985497749 -0.0107207233094169 -0.240648703732437 -0.0634031140700503 0.157170683667329 -0.140574221340954 0.174288308335076 0.102081484481642 1.7098387683839 -0.579641024102971 -0.614297677028751 -0.742985437489602 0.522681605444596 0.0100640639014918 -1.66832704375331 0.585486938338677 0.555045092646302 1.63471888615467 -0.537514806134499 -0.262513353712839 -0.0956876684455101 -0.0321331164775476 0.0368449176951021 0.196154500976577 -0.184268297206657 0.127449774928682 0.0866250487076315 0.0745858643787003 -0.317443915915484 -0.157691074678151 0.0954043330236098 0.153468297029067 -1.22382158928579 0.0591499974193471 0.2692360136733 1.09818135582656 -0.184662704227705 0.169198812258382 0.624882903271615 0.0519665960105695 -0.113004296395064 -1.09979009424292 0.141504188873634 -0.299387581968828 -0.19286786150457 -0.19845486578578 0.408782308501769 -0.210131524756381 0.0966819135239933 -0.0696354649111244 0.41703117450978 -0.802708276397146 -0.40383885100914 -0.167630954361151 0.254787449817483 -0.186843512801714 0.300536864487788 0.29498842673406 -0.17797166881978 0.16034162355689 -0.0767808140127865 -0.162969289629323 -0.353616747591668 0.703873065088747 0.575687440815711 0.242352315806404 -0.464491657449365 -0.0999279295870527