10.329542115 0.023345451 -0.007214624 0.013951006 6.145750940 -0.003964797 -0.003429655 -0.003153948 4.996999200
10.226102014 0.037147822 0.011183109 0.022199164 6.105281514 -0.017100702 0.005316176 -0.013603400 5.088597044
8.878907457 0.300543237 0.133428864 0.179601609 8.856305708 0.192764619 0.063428812 0.153341903 5.301659618
9.294544226 0.209621183 -0.120874435 0.125267506 9.076174535 -0.050324732 -0.057460744 -0.040032711 5.352155726
9.718536779 0.185802557 -0.127494259 0.111033735 6.462971090 -0.228136132 -0.060607646 -0.181479510 5.105234597
9.869551379 0.115142514 -0.054739527 0.068808006 6.708148771 -0.033365723 -0.026021830 -0.026542025 5.099920402
9.584012692 -0.350403047 -0.136876544 -0.209397329 8.036818506 0.016161462 -0.065067755 0.012856246 5.274262584
8.969066346 -0.033139667 -0.063181434 -0.019803931 8.840880204 -0.066032663 -0.030034905 -0.052528178 5.198673546
8.901346541 -0.015351201 -0.037148544 -0.009173723 8.816427886 -0.056693816 -0.017659507 -0.045099239 5.169978841
9.565495336 -0.334175013 -0.119912066 -0.199699620 8.087002978 0.032978562 -0.057003257 0.026234044 5.258434005
9.419896314 0.177214158 0.329596117 0.105901395 8.949548213 0.155734712 0.156681917 0.123885064 5.362575011
9.399533839 0.250442780 -0.068064805 0.149662081 9.101320329 0.012928279 -0.032356340 0.010284288 5.353419907
9.129021282 0.086108406 -0.131344066 0.051457516 8.920580263 -0.135939547 -0.062437750 -0.108138251 5.212727981
9.402405533 0.251325020 -0.062654141 0.150189299 9.099555184 0.014908848 -0.029784243 0.011859807 5.351917042
9.425832710 0.248092476 0.011834281 0.148257563 9.076267141 0.033697330 0.005625727 0.026805815 5.342807457
9.424926148 0.054286929 0.144946038 0.032441322 8.651822069 0.178607195 0.068903794 0.142079845 5.320231541
9.079134880 0.007174209 -0.110841414 0.004287235 8.876589398 -0.114754593 -0.052691292 -0.091285879 5.212195691
9.563358581 -0.331981305 -0.116745056 -0.198388682 8.093549572 0.034960132 -0.055497738 0.027810359 5.256437987
10.106444483 -0.089684922 -0.193887206 -0.053594806 6.824496887 0.076793488 -0.092169226 0.061088283 5.162774253
10.319914742 0.025119945 -0.005646129 0.015011426 6.138182077 -0.004685627 -0.002684031 -0.003727359 5.006417649
9.439234151 0.219162098 0.168456486 0.130969061 9.031736915 0.072433476 0.080080085 0.057619947 5.353282062
9.942354798 0.083474909 -0.001913979 0.049883764 6.222083508 -0.124477552 -0.000909859 -0.099020374 5.168863653
9.692479194 0.252626251 -0.140803888 0.150966901 6.640084921 -0.173827229 -0.066934718 -0.138277440 5.067957340
9.422422552 0.185619354 0.311126306 0.110924255 8.968977070 0.145035379 0.147901821 0.115373875 5.362082222
9.859675225 -0.439466242 -0.035391170 -0.262620597 7.636539066 -0.071815092 -0.016824095 -0.057128030 5.128513803
9.699617848 0.250882951 -0.131845449 0.149925123 6.647302322 -0.164045453 -0.062676095 -0.130496157 5.064804039
9.013855323 0.550524027 -0.078795285 0.328987610 8.826087324 0.425376387 -0.037457347 0.338381727 5.340951717
9.435005373 0.205729828 0.233309115 0.122942072 9.009028729 0.103752390 0.110909436 0.082533761 5.357622596
9.895027406 0.091785754 -0.057849610 0.054850242 6.712644756 -0.015493963 -0.027500287 -0.012325258 5.106706790
9.424249283 0.149498974 0.318204792 0.089339080 8.875711483 0.186114892 0.151266760 0.148052126 5.353254340
9.569845504 -0.338439152 -0.125561242 -0.202247826 8.074108308 0.028876236 -0.059688738 0.022970694 5.262513619
9.995426903 -0.376010400 -0.103095900 -0.224700026 7.393328320 -0.027897873 -0.049009264 -0.022192418 5.132082080
10.279171007 0.030797479 0.002313581 0.018404263 6.114477170 -0.008675870 0.001099820 -0.006901549 5.044889373
9.423547820 0.047033827 0.138154718 0.028106941 8.638871982 0.175719962 0.065675367 0.139783086 5.319066345
10.132674541 -0.126716839 -0.211566235 -0.075724706 6.887494959 0.076199284 -0.100573404 0.060615601 5.167385209
9.529494861 -0.288070988 -0.042704100 -0.172148319 8.213153797 0.061476413 -0.020300483 0.048903737 5.240239933
9.074732027 0.001641792 -0.109408584 0.000981118 8.874600928 -0.110647730 -0.052010160 -0.088018920 5.213179725
9.428472486 0.131796677 0.281108097 0.078760366 8.828404379 0.190681184 0.133631901 0.151684556 5.356471294
10.136422458 -0.148022295 -0.209634823 -0.088456632 6.926898723 0.070521186 -0.099655258 0.056098743 5.162968766
8.868245870 0.245158825 0.145132117 0.146504443 8.859949679 0.124877899 0.068992252 0.099338845 5.314184299
8.882127682 0.317782135 0.123493853 0.189903401 8.853316883 0.208789054 0.058705952 0.166089146 5.296680426
9.422867966 0.043302123 0.135010015 0.025876912 8.632365289 0.174176456 0.064180453 0.138555246 5.318526219
9.426613362 0.140379823 0.299751338 0.083889567 8.851335328 0.190015354 0.142494440 0.151154896 5.355248006
9.109587482 0.054095917 -0.126497015 0.032327175 8.899724293 -0.133245551 -0.060133581 -0.105995210 5.203425000
9.795265857 0.180260395 -0.064260800 0.107721795 6.690271623 -0.084913275 -0.030548010 -0.067547475 5.071199778
9.427748416 0.135345846 0.288871134 0.080881314 8.837891952 0.190636346 0.137322258 0.151648888 5.356239741
9.760588183 0.159480818 -0.091478239 0.095304129 6.392039858 -0.209713478 -0.043486513 -0.166824513 5.118674198
9.396375196 0.249321006 -0.072897182 0.148991721 9.102841424 0.010709827 -0.034653534 0.008519536 5.355426678
10.131549574 -0.123782683 -0.211225289 -0.073971284 6.882129140 0.076735257 -0.100411326 0.061041961 5.167719728
10.052887297 -0.045194222 -0.149924077 -0.027007612 6.768227781 0.069726075 -0.071270232 0.055466243 5.145338481
9.281229436 0.202702767 -0.124531647 0.121133131 9.067731650 -0.057843932 -0.059199293 -0.046014142 5.343698700
9.426225520 0.141983685 0.303154714 0.084848019 8.855614072 0.189627721 0.144112322 0.150846539 5.354837375
9.432805062 0.202185812 0.249669465 0.120824203 9.002420677 0.113006838 0.118686745 0.089895561 5.357599613
10.145766578 0.048025297 0.020772063 0.028699433 6.121491248 -0.037897409 0.009874530 -0.030146926 5.140029955
9.407558574 0.252340319 -0.050221577 0.150796032 9.095451615 0.018392742 -0.023874107 0.014631202 5.350181707
10.256118801 0.033469870 0.006538590 0.020001257 6.107544396 -0.011825493 0.003108286 -0.009407036 5.064860513
9.715149809 0.188264943 -0.130311939 0.112505232 6.469005148 -0.229372636 -0.061947102 -0.182463134 5.104552856
9.428677632 0.074275171 0.169254907 0.044386094 8.690020140 0.185033250 0.080459635 0.147191694 5.325363068
9.684799780 0.252203020 -0.150440253 0.150713983 6.629152077 -0.186842591 -0.071515610 -0.148631002 5.071646352
10.261995730 0.032787925 0.005514543 0.019593734 6.108865964 -0.010951898 0.002621478 -0.008712101 5.059907296
9.473943247 -0.168769374 0.067070811 -0.100854877 8.399951376 0.111636212 0.031883820 0.088805245 5.283642430
9.432684477 0.242944870 0.045273198 0.145181406 9.066868175 0.042339321 0.021521769 0.033680413 5.336157993
10.018763482 -0.017769568 -0.123356040 -0.010618915 6.746045996 0.061946548 -0.058640438 0.049277723 5.138048504
9.094292179 0.028769578 -0.118048182 0.017192410 8.886090664 -0.126393887 -0.056117213 -0.100544796 5.206902307
8.955930839 0.491849859 -0.040361103 0.293924519 8.846037061 0.366254245 -0.019186679 0.291350785 5.314829066
9.871614108 -0.437674153 -0.036500469 -0.261549663 7.617468252 -0.073617629 -0.017351428 -0.058561926 5.122889916
9.527723573 -0.285021619 -0.038035457 -0.170326047 8.220511992 0.063060642 -0.018081124 0.050163971 5.240474472
8.967947169 0.507738628 -0.051293852 0.303419487 8.841061342 0.380702508 -0.024383840 0.302844202 5.322967550
10.363362074 0.015176712 -0.009717449 0.009069450 6.176406222 -0.001938640 -0.004619437 -0.001542165 4.966113842
10.388478773 0.006336350 -0.006001874 0.003786539 6.201349778 -0.001089545 -0.002853144 -0.000866720 4.950495574
9.154028437 0.117452453 -0.129142924 0.070188402 8.948126686 -0.132335054 -0.061391381 -0.105270921 5.240201654
9.745560420 0.221311291 -0.088141630 0.132253397 6.672901660 -0.121573411 -0.041900371 -0.096710166 5.057032441
8.918720495 -0.020743932 -0.042793147 -0.012396365 8.821944957 -0.059126985 -0.020342813 -0.047034796 5.177569236
10.005116448 -0.006443063 -0.113216407 -0.003850310 6.739480492 0.056727216 -0.053820305 0.045125808 5.135131026
10.392207249 0.004778732 -0.004815842 0.002855722 6.205027466 -0.000983700 -0.002289333 -0.000782521 4.949166397
8.907016409 0.391025310 0.050606620 0.233672784 8.849527264 0.281006220 0.024057147 0.223537020 5.276594950
9.863526388 0.113876776 -0.035278793 0.068051614 6.281038746 -0.161306131 -0.016770673 -0.128317060 5.157726973
9.418855098 0.011689834 0.115076343 0.006985727 8.580987543 0.161308360 0.054704473 0.128318833 5.314005400
10.136325548 -0.154477958 -0.208023342 -0.092314471 6.938814460 0.068571709 -0.098889199 0.054547958 5.161393355
9.307743309 0.215896725 -0.116375179 0.129017707 9.083513338 -0.043170234 -0.055321908 -0.034341394 5.359984073
9.245222064 0.181989673 -0.128655074 0.108755195 9.039734186 -0.080485627 -0.061159469 -0.064025335 5.320574006
9.467276745 -0.156471566 0.071224134 -0.093505831 8.412214514 0.114619119 0.033858208 0.091178111 5.291105281
10.130642242 -0.186932467 -0.197956663 -0.111708958 6.998223769 0.060403788 -0.094103746 0.048050476 5.154526083
9.427375642 0.137061622 0.292604025 0.081906644 8.842476703 0.190512140 0.139096783 0.151550084 5.355973232
9.548932991 -0.315584930 -0.089519529 -0.188590373 8.140731051 0.046962033 -0.042555390 0.037357724 5.244987603
9.428312875 -0.059867573 0.087562925 -0.035776258 8.494558414 0.143804479 0.041625269 0.114394709 5.308395207
9.445439270 -0.110437734 0.078771707 -0.065996477 8.452945809 0.128656108 0.037446139 0.102344365 5.309074760
9.581490948 -0.348480427 -0.135564088 -0.208248391 8.042903325 0.018257685 -0.064443845 0.014523766 5.272443982
9.333439051 0.226480515 -0.106457711 0.135342473 9.095050625 -0.029269889 -0.050607387 -0.023283839 5.371354743
8.940231177 0.465843539 -0.021889031 0.278383404 8.852067408 0.345394270 -0.010405509 0.274756929 5.300825029
8.910565934 0.399494172 0.040787703 0.238733691 8.850574717 0.289579836 0.019389475 0.230357228 5.276621464
8.898431921 0.370150168 0.074981808 0.221198010 8.847858162 0.259097546 0.035644514 0.206108938 5.279869042
9.421841806 0.184242055 0.314829864 0.110101195 8.965935005 0.146909182 0.149662402 0.116864462 5.362399730
9.098617368 0.035634314 -0.120544660 0.021294707 8.889568897 -0.128824939 -0.057303977 -0.102478668 5.205356059
8.937905847 0.461376632 -0.018504851 0.275714025 8.852716389 0.341975488 -0.008796753 0.272037330 5.298431597
9.418626057 -0.004337092 0.107715090 -0.002591802 8.557584018 0.155963016 0.051205114 0.124066677 5.311413727
9.891491836 -0.433338652 -0.040676720 -0.258958811 7.585175146 -0.074374066 -0.019336716 -0.059163662 5.116747319
9.680289977 0.250213583 -0.155650276 0.149525115 6.619904620 -0.196317536 -0.073992327 -0.156168206 5.073963487
9.072499411 -0.001027262 -0.108780151 -0.000613881 8.873710037 -0.108505784 -0.051711418 -0.086315027 5.213550449
9.421029030 0.250292295 -0.006400814 0.149572153 9.081629138 0.028895390 -0.003042790 0.022985930 5.346231140
9.494349591 -0.208269183 0.044771572 -0.124459565 8.355189425 0.100971209 0.021283308 0.080321365 5.261194232
9.437739223 0.211751168 0.204475319 0.126540364 9.019677087 0.088288541 0.097202556 0.070232457 5.357191621
9.431337947 0.109168297 0.232317924 0.065237874 8.769182923 0.189072325 0.110438248 0.150404729 5.346987076
9.376604359 0.241774400 -0.088800408 0.144481945 9.105556969 -0.003056099 -0.042213538 -0.002431090 5.368344868
9.798386804 0.141205094 -0.065808270 0.084382741 6.341308737 -0.191663023 -0.031283639 -0.152465597 5.136212755
9.430058213 0.083274617 0.183208669 0.049764072 8.708744281 0.186850157 0.087092912 0.148637021 5.329347283
10.351758232 0.018369428 -0.009556880 0.010977385 6.165301344 -0.002534398 -0.004543107 -0.002016083 4.975980123
9.686534915 0.252572627 -0.148310210 0.150934856 6.632035211 -0.183611122 -0.070503039 -0.146060408 5.070792427
10.089394586 -0.265680062 -0.165973603 -0.158767728 7.149914064 0.032936703 -0.078899784 0.026200745 5.138838292
9.991429522 0.069984159 0.014989939 0.041821828 6.188249932 -0.101282800 0.007125850 -0.080569232 5.172682448
10.121473381 -0.106417760 -0.205441195 -0.063594181 6.851428343 0.078097583 -0.097661709 0.062125675 5.167309416
10.355779742 0.017315116 -0.009713840 0.010347339 6.169094944 -0.002314320 -0.004617721 -0.001841013 4.972433546
9.425257370 0.191005355 0.294377773 0.114142875 8.980397861 0.136831022 0.139939979 0.108847409 5.360297853
9.423059566 0.186985276 0.307211712 0.111740516 8.971942234 0.143100624 0.146040919 0.113834801 5.361696678
9.910455002 0.077570074 -0.061657630 0.046355095 6.715270929 -0.004428017 -0.029310526 -0.003522433 5.110578994
9.421570215 0.035639854 0.129195573 0.021298017 8.619311350 0.170952393 0.061416409 0.135990543 5.317470873
9.961505072 0.031220776 -0.084394125 0.018657221 6.725217885 0.032007766 -0.040118899 0.025461788 5.124206881
9.423380949 0.152593262 0.323689524 0.091188196 8.884061648 0.183772337 0.153874067 0.146188653 5.353172988
9.838346386 0.124273297 -0.046153828 0.074264470 6.301702830 -0.172943156 -0.021940399 -0.137574171 5.151178327
8.977561184 0.518613470 -0.058843597 0.309918183 8.837485406 0.391674891 -0.027972804 0.311572598 5.328186504
10.068759378 -0.057714344 -0.162713344 -0.034489510 6.781618682 0.071872308 -0.077349936 0.057173545 5.149609034
9.741240984 0.224681960 -0.091212954 0.134267675 6.671110158 -0.124948552 -0.043360403 -0.099395049 5.056765069
9.732932332 0.230979742 -0.097660924 0.138031166 6.667467946 -0.131612933 -0.046425610 -0.104696483 5.056806820
10.048529971 -0.316382713 -0.138676603 -0.189067121 7.257143712 0.001122144 -0.065923458 0.000892652 5.136263035
9.809148034 0.136522781 -0.059987077 0.081584638 6.329480617 -0.186574097 -0.028516386 -0.148417419 5.140796369
8.931364640 0.447912564 -0.007696519 0.267668034 8.853900090 0.331657287 -0.003658737 0.263829326 5.291489424
9.194922821 0.150853004 -0.126702977 0.090148235 8.991335198 -0.113671521 -0.060231490 -0.090424309 5.283276089
9.437297497 0.210525335 0.210396746 0.125807818 9.017574013 0.091309720 0.100017457 0.072635768 5.357421513
9.589307115 -0.354185260 -0.138870643 -0.211657542 8.024789496 0.012089383 -0.066015700 0.009616957 5.277633038
9.419914247 0.023693460 0.121526914 0.014158973 8.599727798 0.165976752 0.057770917 0.132032482 5.315813802
9.349564445 0.232300292 -0.100163854 0.138820313 9.100485767 -0.020044375 -0.047615442 -0.015945056 5.374204612
10.112014338 -0.095311333 -0.198349856 -0.056957092 6.833215887 0.077444488 -0.094290661 0.061606146 5.164690274
9.936172855 0.054006652 -0.071291318 0.032273831 6.719856405 0.014220934 -0.033890146 0.011312580 5.117292173
8.862039796 -0.001262149 -0.024507953 -0.000754247 8.806309200 -0.052402506 -0.011650480 -0.041685554 5.156833098
9.586615942 -0.352303691 -0.137975410 -0.210533135 8.030780984 0.014101648 -0.065590128 0.011217689 5.275995586
8.851550871 0.201718511 0.131594169 0.120544949 8.856688962 0.065739053 0.062556643 0.052294615 5.317181524
9.438677932 0.229990934 0.114691246 0.137440264 9.047929825 0.056999556 0.054521408 0.045342452 5.341251729
9.522669105 -0.275511260 -0.024319362 -0.164642752 8.242394248 0.068121546 -0.011560829 0.054189859 5.241695729
8.929308858 0.443423784 -0.003857852 0.264985584 8.854040078 0.328163150 -0.001833928 0.261049783 5.289322846
9.832269667 0.126793493 -0.048871815 0.075770514 6.307063326 -0.175762545 -0.023232463 -0.139816961 5.149273937
9.579043607 -0.346532947 -0.134029477 -0.207084597 8.049037127 0.020378726 -0.063714329 0.016211028 5.270551242
9.681679496 0.251010434 -0.154111192 0.150001305 6.623084744 -0.193206083 -0.073260684 -0.153693082 5.073226390
8.810489761 0.114963431 0.060294804 0.068700988 8.822116315 -0.008720232 0.028662672 -0.006936839 5.247629352
9.830886590 -0.441342101 -0.037096612 -0.263741592 7.680532116 -0.066171242 -0.017634820 -0.052638416 5.148022328
10.396928053 0.002821506 -0.003124929 0.001686103 6.209641825 -0.000803337 -0.001485514 -0.000639045 4.947947963
9.126360673 0.082049806 -0.131181413 0.049032137 8.917630491 -0.135892444 -0.062360429 -0.108100781 5.210497833
9.419737025 0.168631891 0.337406059 0.100772719 8.927678714 0.166107569 0.160394572 0.132136545 5.359475052
9.721997470 0.183340845 -0.124561515 0.109562641 6.456834296 -0.226816719 -0.059213492 -0.180429934 5.105960099
9.419590681 0.174349761 0.333492838 0.104189660 8.942459199 0.159186028 0.158534322 0.126630544 5.361897177
8.845931179 0.189412315 0.123915511 0.113190891 8.854804247 0.052182323 0.058906397 0.041510401 5.314463182
9.546904446 -0.313059861 -0.085048925 -0.187081418 8.147745829 0.048449319 -0.040430175 0.038540843 5.243849186
8.828464636 0.015423294 -0.009772650 0.009216805 8.799695717 -0.050924185 -0.004645678 -0.040509568 5.155612609
9.442126683 -0.101964286 0.079696018 -0.060932830 8.459789788 0.131537713 0.037885534 0.104636646 5.310047253
9.419840592 -0.019949296 0.101316170 -0.011921498 8.536892974 0.151895349 0.048163225 0.120830898 5.309138174
9.900162054 0.087054336 -0.058950668 0.052022794 6.713518617 -0.011830553 -0.028023703 -0.009411060 5.107994794
9.984374835 0.071583028 0.012978983 0.042777296 6.192792083 -0.104598991 0.006169891 -0.083207221 5.172308088
8.879627101 0.304785197 0.131271742 0.182136562 8.855610469 0.196823595 0.062403369 0.156570769 5.300506381
8.914164132 0.408082039 0.031117662 0.243865714 8.851665051 0.297915382 0.014792574 0.236988053 5.277525412
9.717851285 0.241460448 -0.111394980 0.144294330 6.659893155 -0.144664062 -0.052954444 -0.115078496 5.058876311
10.114309237 -0.227486056 -0.183481006 -0.135943374 7.073761886 0.050675178 -0.087222374 0.040311486 5.146408192
9.597958714 -0.359744371 -0.140448166 -0.214979610 8.007085055 0.006437175 -0.066765616 0.005120694 5.281896739
9.955231542 -0.406589054 -0.073678151 -0.242973521 7.477309446 -0.050374059 -0.035024788 -0.040071950 5.120506165
9.397994786 0.249910857 -0.070553327 0.149344209 9.102113924 0.011851615 -0.033539323 0.009427815 5.354360369
9.431208328 0.111459175 0.237111210 0.066606880 8.774979878 0.189217944 0.112716858 0.150520566 5.348594335
9.012016985 -0.035617652 -0.085578249 -0.021284750 8.857070515 -0.073160982 -0.040681802 -0.058198669 5.209769686
9.524310813 -0.278742772 -0.028838200 -0.166573871 8.235144585 0.066382503 -0.013708973 0.052806471 5.241211729
9.240658372 0.179263523 -0.128645039 0.107126075 9.035706162 -0.083557818 -0.061154699 -0.066469225 5.317612503
9.285678088 0.205075600 -0.123427706 0.122551112 9.070670892 -0.055286392 -0.058674507 -0.043979650 5.346555139
10.038112441 -0.328916677 -0.132024004 -0.196557291 7.284491640 -0.005612476 -0.062760976 -0.004464656 5.136568136
8.998824212 -0.036171542 -0.078453086 -0.021615749 8.852433486 -0.070465311 -0.037294674 -0.056054296 5.207254057
8.861668109 0.225790637 0.141800130 0.134930209 8.858955294 0.096860952 0.067408307 0.077051706 5.317265499
9.419771924 0.250742782 -0.010885119 0.149841359 9.082979444 0.027751046 -0.005174519 0.022075619 5.346895010
9.406324690 0.252180147 -0.053513335 0.150700314 9.096536877 0.017559804 -0.025438928 0.013968610 5.350491520
9.759836084 -0.432648144 -0.067342811 -0.258546171 7.779563686 -0.051381330 -0.032013122 -0.040873222 5.220586033
8.927304039 0.438942992 0.000104344 0.262307908 8.854059400 0.324624114 0.000049603 0.258234523 5.287265668
9.502915850 -0.228048130 0.028555767 -0.136279264 8.328201111 0.092995541 0.013574712 0.073976819 5.253362451
9.488701876 -0.196567583 0.052818622 -0.117466806 8.369492296 0.104683872 0.025108679 0.083274743 5.267042099
9.217691695 0.165375763 -0.127699248 0.098826889 9.014189777 -0.099133321 -0.060705093 -0.078859348 5.301784343
9.213096128 0.162538400 -0.127443598 0.097131310 9.009677121 -0.102190947 -0.060583563 -0.081291652 5.298325921
9.169269368 0.131681970 -0.127449920 0.078691818 8.964487850 -0.126938789 -0.060586569 -0.100978259 5.257649313
10.006456117 -0.365042302 -0.111031862 -0.218145601 7.366626705 -0.022379845 -0.052781826 -0.017802893 5.134478217
9.422958315 0.154095103 0.326136820 0.092085680 8.888138863 0.182464371 0.155037452 0.145148181 5.353309867
9.177508226 0.138346362 -0.126911252 0.082674392 8.973206352 -0.123174270 -0.060330499 -0.097983629 5.266457037
9.911045117 -0.427363776 -0.047738406 -0.255388286 7.553228202 -0.071113433 -0.022693668 -0.056569868 5.114422118
9.922931139 -0.422840901 -0.053488698 -0.252685461 7.533657966 -0.067030319 -0.025427216 -0.053321801 5.114678688
10.359648481 0.016249658 -0.009766344 0.009710632 6.172801883 -0.002115933 -0.004642681 -0.001683199 4.969142682
8.878490398 -0.007555757 -0.030008010 -0.004515244 8.810168967 -0.053894298 -0.014265072 -0.042872257 5.161320337
9.594974542 -0.357902744 -0.140095099 -0.213879072 8.012941764 0.008248260 -0.066597777 0.006561390 5.280589492
9.433276799 -0.076477028 0.083585975 -0.045701901 8.480307502 0.139577330 0.039734724 0.111032064 5.309727234
10.123931643 -0.206814834 -0.191242028 -0.123590460 7.034785864 0.056227072 -0.090911774 0.044727950 5.150718210
8.952826196 -0.029841978 -0.055805183 -0.017833265 8.834451868 -0.063876196 -0.026528416 -0.050812734 5.192475863
9.181758039 0.141569844 -0.126749174 0.084600712 8.977669973 -0.121032287 -0.060253451 -0.096279708 5.270790186
9.674313894 0.243391447 -0.161007584 0.145448276 6.599026609 -0.213360118 -0.076539060 -0.169725372 5.078209043
9.433451668 0.242087160 0.050281642 0.144668847 9.065501035 0.043535289 0.023902661 0.034631792 5.335510564
10.103475509 -0.086853632 -0.191461613 -0.051902855 6.820238913 0.076412690 -0.091016159 0.060785363 5.161700729
9.981237796 0.013907846 -0.096619451 0.008311189 6.730613209 0.044490494 -0.045930519 0.035391645 5.129430572
9.186083282 0.144725501 -0.126661849 0.086486501 8.982188022 -0.118727083 -0.060211939 -0.094445946 5.275048402
8.870332325 0.252819243 0.145316059 0.151082231 8.860099772 0.135917103 0.069079693 0.108120397 5.312618760
9.089973930 0.022221103 -0.115676426 0.013279107 8.882951792 -0.123559484 -0.054989738 -0.098290063 5.208565859
10.267850042 0.032112929 0.004456890 0.019190363 6.110483823 -0.010130570 0.002118696 -0.008058745 5.054878147
9.434163303 0.241199590 0.055362819 0.144138444 9.064122282 0.044713987 0.026318128 0.035569432 5.335012298
9.147095690 0.109913554 -0.130062531 0.065683232 8.940571995 -0.134027394 -0.061828540 -0.106617157 5.232045317
9.423245641 -0.039616001 0.093972681 -0.023674123 8.514255524 0.147924344 0.044672310 0.117672011 5.307710591
8.908784418 0.395244812 0.045687867 0.236194316 8.850037896 0.285316819 0.021718892 0.226966049 5.276501523
8.990833117 0.531691218 -0.067839727 0.317733313 8.833192352 0.405815618 -0.032249344 0.322821375 5.333958687
9.076942008 0.004375241 -0.110092468 0.002614600 8.875558913 -0.112734609 -0.052335261 -0.089679006 5.212727663
10.244267825 0.034875943 0.008485119 0.020841512 6.105788480 -0.013743671 0.004033618 -0.010932923 5.074546133
8.820662844 0.020850146 -0.005041870 0.012459837 8.798366426 -0.050716724 -0.002396782 -0.040344535 5.157702853
8.912930159 -0.018994899 -0.040861416 -0.011351160 8.820033705 -0.058303496 -0.019424516 -0.046379720 5.174990231
8.915980965 0.412419139 0.026381496 0.246457521 8.852187353 0.301970559 0.012541117 0.240213897 5.278312665
9.714436371 0.243580303 -0.114901946 0.145561134 6.657919827 -0.147891984 -0.054621569 -0.117646269 5.059711187
10.386410823 0.007180677 -0.006583981 0.004291100 6.199298209 -0.001143537 -0.003129863 -0.000909670 4.951366603
10.098680204 -0.252846599 -0.172337376 -0.151098579 7.123733933 0.040072985 -0.081924965 0.031877571 5.141066093
9.920758949 0.068095565 -0.065034715 0.040693223 6.717053826 0.003040192 -0.030915910 0.002418436 5.113213747
9.930886820 -0.419410642 -0.057902069 -0.250635573 7.520352362 -0.063536636 -0.027525224 -0.050542619 5.115480920
10.381768645 0.009001308 -0.007687955 0.005379091 6.194671826 -0.001266706 -0.003654666 -0.001007649 4.953639797
9.857124730 0.116515290 -0.038010862 0.069628363 6.286105527 -0.164261632 -0.018069433 -0.130668124 5.156255771
9.716202416 -0.417404397 -0.098856448 -0.249436661 7.839764673 -0.034286239 -0.046993933 -0.027274285 5.262313122
10.079383331 -0.278624634 -0.159158920 -0.166503273 7.176784290 0.024876789 -0.075660250 0.019789182 5.137207202
10.116648749 0.051766298 0.023419723 0.030935018 6.130613903 -0.047846468 0.011133162 -0.038061282 5.153457551
9.790470701 0.184317390 -0.065788614 0.110146215 6.688804634 -0.088334613 -0.031274295 -0.070269107 5.069216835
9.439358491 0.222895094 0.150134559 0.133199862 9.037475350 0.066161384 0.071370290 0.052630574 5.349687780
9.428032543 0.246779041 0.021150699 0.147472668 9.073596650 0.036178603 0.010054524 0.028779637 5.340786620
8.838234336 0.173016341 0.111527645 0.103392822 8.850982692 0.036359932 0.053017509 0.028923883 5.307165200
8.883101335 0.322195085 0.120451430 0.192540535 8.852520621 0.212769994 0.057259658 0.169255935 5.295286419
9.690370756 0.252795672 -0.143483776 0.151068146 6.637499714 -0.177095570 -0.068208671 -0.140877366 5.068946222
10.100395305 -0.084011162 -0.188922526 -0.050204224 6.816051121 0.076004667 -0.089809139 0.060460786 5.160566680
10.406198636 0.000008975 -0.000023036 0.000005363 6.218603525 -0.000016366 -0.000010951 -0.000013019 4.946906329
8.826767584 0.149051761 0.090429930 0.089071830 8.841784329 0.016593857 0.042988173 0.013200211 5.288030073
9.427190234 -0.055770409 0.088733705 -0.033327834 8.498297592 0.144709717 0.042181829 0.115114815 5.308117920
9.999148001 -0.372436171 -0.105805012 -0.222564102 7.384490373 -0.026012438 -0.050297110 -0.020692577 5.132975698
9.592091799 -0.356050654 -0.139573287 -0.212772282 8.018843225 0.010135093 -0.066349720 0.008062343 5.279166576
8.872935751 0.264351532 0.144477435 0.157973812 8.859962282 0.151780928 0.068681032 0.120739877 5.310143955
9.085652327 0.015983001 -0.113527551 0.009551280 8.880155401 -0.120320921 -0.053968215 -0.095713825 5.210171636
9.959485849 -0.403964983 -0.076681795 -0.241405403 7.469303727 -0.047894657 -0.036452646 -0.038099615 5.121670187
9.903195691 -0.429976799 -0.044536720 -0.256949801 7.566065997 -0.072956635 -0.021171665 -0.058036113 5.114925094
9.423485328 0.249268026 0.002656363 0.148960060 9.078941707 0.031258414 0.001262770 0.024865687 5.344658976
10.118530633 -0.219148641 -0.186736640 -0.130961019 7.057875873 0.053174184 -0.088770023 0.042299415 5.148192983
9.941284470 0.049366420 -0.073667977 0.029500875 6.720843763 0.017898363 -0.035019951 0.014237930 5.118677109
8.813854103 0.026611764 -0.000170894 0.015902922 8.797306893 -0.050412212 -0.000081239 -0.040102300 5.160747000
10.086860811 0.055435529 0.025102956 0.033127713 6.141119558 -0.059205462 0.011933330 -0.047097223 5.163513291
10.041936546 0.061199825 0.024073196 0.036572398 6.160147912 -0.078159711 0.011443807 -0.062175097 5.171765077
9.231492582 0.173759819 -0.128398178 0.103837117 9.027349996 -0.089784229 -0.061037347 -0.071422259 5.311526749
10.305506910 0.027407472 -0.002938094 0.016378429 6.128160743 -0.005900076 -0.001396698 -0.004693439 5.020407592
10.076355557 -0.063759732 -0.168941211 -0.038102173 6.788810683 0.072831225 -0.080310512 0.057936351 5.151981823
9.419911572 0.167193680 0.337576305 0.099913258 8.923848607 0.167859864 0.160475503 0.133530475 5.358716988
8.896727766 0.365812107 0.079889226 0.218605629 8.847780226 0.254561493 0.037977380 0.202500563 5.281015470
10.122252494 -0.210898962 -0.189786838 -0.126031094 7.042384686 0.055283817 -0.090220012 0.043977602 5.149899540
9.492524004 -0.204384125 0.047573958 -0.122137893 8.360057672 0.102282392 0.022615494 0.081364395 5.263033851
9.436862397 0.236451476 0.081299780 0.141301019 9.057138913 0.050231549 0.038647923 0.039958584 5.335258232
8.802742629 0.096532020 0.046654659 0.057686562 8.811238352 -0.022236053 0.022178482 -0.017688509 5.224882163
9.388925806 0.246440348 -0.080914368 0.147270268 9.104984112 0.005426945 -0.038464708 0.004317069 5.360744482
10.101576881 -0.248590981 -0.174343335 -0.148555465 7.115174711 0.042190481 -0.082878549 0.033562013 5.141905734
9.420682837 0.162900339 0.336241367 0.097347601 8.912231369 0.173042463 0.159840906 0.137653169 5.356401755
9.576663156 -0.344557769 -0.132265830 -0.205904250 8.055222018 0.022512759 -0.062875934 0.017908625 5.268597251
10.400766661 0.001381352 -0.001716136 0.000825482 6.213366405 -0.000577147 -0.000815809 -0.000459113 4.947334053
9.426997022 0.138739354 0.296232440 0.082909239 8.846957134 0.190307850 0.140821642 0.151387573 5.355634835
8.886511383 0.335618135 0.109964286 0.200562015 8.850243801 0.224947093 0.052274327 0.178942669 5.290827646
9.429485421 0.126164562 0.268766656 0.075394671 8.813378849 0.190387083 0.127765082 0.151450602 5.355807273
10.048825708 -0.041983598 -0.146696124 -0.025088975 6.765127979 0.069092689 -0.069735743 0.054962392 5.144377480
10.273585992 0.031450221 0.003386201 0.018794335 6.112362855 -0.009371784 0.001609717 -0.007455140 5.049860516
9.114130984 0.061913235 -0.128416376 0.036998725 8.904378832 -0.134405822 -0.061045998 -0.106918192 5.204022510
9.542878288 -0.307864839 -0.075846049 -0.183976925 8.161973638 0.051325052 -0.036055353 0.040828453 5.242026227
9.504521947 -0.232019755 0.024927218 -0.138652667 8.322289116 0.091155009 0.011849788 0.072512698 5.252056299
9.428622312 0.196157220 0.275307897 0.117221578 8.990764088 0.127123659 0.130874628 0.101125320 5.358531378
10.123945121 0.050847229 0.022826269 0.030385792 6.128228916 -0.045239919 0.010851049 -0.035987804 5.150416353
9.733641259 -0.424372324 -0.086161096 -0.253600624 7.815704884 -0.041775290 -0.040958874 -0.033231734 5.247531864
9.353405445 0.233636724 -0.098670456 0.139618951 9.101557749 -0.017757414 -0.046905517 -0.014125806 5.374254731
9.693967932 0.205080963 -0.146335180 0.122554317 6.508020070 -0.235358773 -0.069564159 -0.187225034 5.099668532
9.521068277 -0.272217446 -0.019858297 -0.162674402 8.249583680 0.069910877 -0.009440148 0.055613250 5.242246020