5.6126059844 2.2806330230 2.3560955578 2.7843388441 4.6543015400 4.8999194802 2.2326813095 1.5078118747 2.5912899863 7.6369074000 1.4026563214 -0.0589518772 8.0694009491 4.6718383941 2.5947800149 1.1341391877 4.4609463391 2.1514684460 4.0477165030 1.6318794013 4.7923727773 9.2358902363 1.5417801561 2.7189115122 6.1508299538 4.6567164365 0.2697965869 1.3885679597 4.6329170025 3.6528218027 3.8556258406 1.6609400576 1.3143699920 9.0454391003 1.6259050452 1.1935850247 6.4071228480 4.4467857984 3.7535504754 4.6432126309 4.7307133056 0.6730763354 0.3864238136 1.3600271209 3.0881947713 5.5458745187 1.5711203514 4.3756696575 9.9451422478 4.3771984535 1.8995770748 1.7842828459 5.6362777029 1.3234679249 3.2116433886 0.4222227866 4.1243268045 8.3997812215 2.6586679901 3.4707390838 6.9010675268 3.5401040085 1.0984497649 8.4938642617 0.2581415145 3.4188485265 6.9064145508 5.9300538536 0.8229905527 1.9589218615 3.2311931871 1.6500847617 3.3359524138 2.8108218475 4.0398932568
5.6074856241 2.4004459707 2.4468351259 2.7903430032 4.6729016113 4.9686391301 2.2841403570 1.4782708531 2.7106567984 7.5759766669 1.3645762136 -0.0754855404 7.9676919335 4.6005670174 2.6484762836 1.0916871150 4.3657757320 2.1831977356 4.0014569732 1.5975097926 4.9149376918 9.1809656251 1.4661541783 2.7387461373 6.0568727221 4.6862403473 0.2470227502 1.2713365759 4.6769169212 3.6996129502 3.8554711554 1.5934721422 1.3443098202 8.9483029182 1.6118263280 1.2363042058 6.3304609384 4.4162039913 3.8360162690 4.5671816802 4.7099542820 0.6603242986 0.4192161444 1.3502884181 3.1769225355 5.5021409200 1.6336420515 4.5312918062 9.8010132722 4.2461443764 1.9165769317 1.7469128607 5.5484072771 1.3337989907 3.1360674273 0.5074276609 4.1872498579 8.4108854338 2.6057980756 3.5100263863 6.8489753715 3.6445719830 1.1341001946 8.3956275243 0.2704893050 3.3800326670 6.8890039014 5.9217274944 0.8513099534 1.8862594419 3.1550112881 1.5773044754 3.3396201371 2.8759247301 4.2136649430
4.9271774713 3.7311444522 2.4752183220 2.5525113097 8.0513513169 5.1961111436 1.7956454486 3.4272963028 2.4659220811 6.5719248836 1.1176939890 0.3702086307 7.1950883896 5.9119665134 3.0774609732 1.3855443132 6.5611721788 2.5754251803 3.4111462092 2.3031857041 5.1570727502 7.7007233221 2.5943160205 3.1432155428 5.6982430660 6.9644890350 0.5318813595 2.4257701889 6.9062724851 3.6710319180 3.1932941873 2.8372227236 1.2526027317 6.6810996201 2.0595872184 2.1119092952 6.0365268542 6.6233008859 4.3772006711 4.2247200068 7.4147516465 0.5599486683 0.2257960386 2.5178442649 2.4157184335 4.8959241406 1.9153044171 4.9424070800 8.8435531451 6.8180952264 3.2985318879 1.5237804936 7.7063187158 1.5431308567 2.5248007500 1.0338913269 4.9703868938 7.1798732311 4.0061885611 3.6452723102 5.9739161544 5.7356166372 1.5196203587 7.8523230352 1.6173563892 4.3458172654 6.6917093251 8.0984654097 0.9356645304 1.7347328712 5.1225809796 1.9958830289 2.9799001437 3.2890729301 4.0069560908
5.0511183666 3.4470082844 2.6101357350 2.6876932974 7.9382468318 5.4050804247 1.8402811231 3.1245185404 2.2804479445 6.7423402093 1.2533732052 -0.1280434187 7.4390795492 6.0453392615 2.9398116122 1.3769308270 6.4121435468 2.5357000866 3.4438881540 2.0483177781 5.0006578734 7.8514156423 2.7972524452 2.6069031439 6.0011329696 7.0825017003 0.1729732778 2.1907771330 6.8102960358 3.7812283423 3.3233307057 2.7764094033 1.0189540379 6.9585196112 2.3705864347 1.4096121300 5.9841905857 6.2833382101 4.1689972499 4.5215482134 7.3619898143 0.5668125494 -0.0093978607 2.8085804892 2.1694179348 4.9128510113 1.7104125990 4.7404849271 9.1637234901 6.7666586155 2.8090722885 1.6068668848 7.4369283736 1.3749544655 2.5586218579 0.7671324279 4.9909472927 7.2788822579 4.1125257745 3.2117598519 6.6186059857 6.1506581085 1.1964879451 7.8040196193 1.7271766129 3.7413640933 6.7826141222 8.4459282839 0.0612345450 1.8506421388 5.0454551361 1.9691825383 2.9919569031 2.8787546288 3.7685685043
5.0399654246 3.0483316938 2.5954589353 2.6534447220 5.0099458397 4.7687412591 2.0981954114 1.5995833329 2.4934085337 7.1924548958 1.5991830586 -0.1940777509 7.6403515421 4.6239036620 2.3334265959 1.0784783068 4.6143732479 2.0446659309 3.7758221153 1.5012936441 4.8097791499 8.6250673119 1.4642604660 2.5922673430 6.0120954780 5.0466235909 0.0882905712 1.1799518763 4.8093316292 3.5739637843 3.7628571449 1.6774890006 1.2329081324 8.5653861618 1.5849047033 1.0561229619 6.0876387989 4.7834486547 3.6232781221 4.4587964331 4.9206894870 0.3617197111 0.3771750087 1.2728355016 3.1796548898 5.2971841556 1.6685725652 4.4179960649 9.3051793273 4.9482174769 1.5746506993 1.8820415944 5.7959001790 1.3210608844 3.1935713908 0.2591275480 4.0728730828 7.8175208157 2.7410716366 3.0951020788 6.6722881346 3.8041080805 0.8121952091 7.9076814354 0.3137086452 3.3705499797 6.6854659717 6.3212592306 0.6761598997 1.7284572319 3.2969938934 1.4990737883 2.9596724859 2.6610606291 4.0891007975
4.5794389787 3.6303408000 2.2865125967 2.7821045843 5.3868772172 5.0749088910 2.0509440276 1.8353196958 2.3244956461 7.1372753304 1.2823754137 0.0308344356 7.8575943150 4.9971564786 2.6511420774 1.1821853324 4.9869594651 2.3394341584 3.8326696673 1.6134088154 4.6659086475 8.7712459070 1.6915188914 2.8707040453 6.1527186241 4.9333311902 0.1867910196 1.3648327843 5.0501543025 3.8653867811 3.5904899267 1.6463227433 1.1184655517 8.4644646237 1.6273535153 1.3464707900 6.2862657726 4.8302191705 3.7550426322 4.6270932651 4.7283356636 0.4357236017 0.4290658924 1.3562332669 3.1553999420 5.3480102411 1.7493961861 4.4667465925 9.5483649286 5.3052221231 1.9612032872 1.8959120390 6.1534043658 1.4958699529 3.3512300519 0.2475407372 4.0096697830 8.2367693617 3.0017430226 3.4824721613 7.0271987881 3.9928105444 1.0816640046 8.0342746431 0.4551403773 3.6087365305 6.5346093541 6.3120114405 0.8131739127 1.8340120026 3.7625661051 1.6379448519 3.0743564545 2.6750725154 3.8403936501
4.8658898841 3.5298757852 2.4066825101 2.5890586019 6.5368775579 5.3891574735 1.7993784645 2.7870475661 2.2144579021 6.7055379957 0.9103167408 -0.2126800940 7.5671271937 4.9206381751 2.9225454685 1.1266615031 5.8815237070 2.6051410169 3.5016867047 1.6784411926 4.8117179620 8.2189929203 1.8422074994 2.5984777908 5.7566584857 5.7888548666 0.3717643883 1.4490307859 5.7044579373 4.1147097285 3.1061934763 2.1356426113 0.9435806343 7.4191667865 1.8911727574 1.2779481571 6.2286686865 5.3693687997 4.2354715063 4.2418370564 5.5168334816 0.5493821813 0.1254238436 2.0099236598 2.3921095393 5.0454801854 1.8505717743 4.5948142281 9.1774329749 5.6862099437 2.3829047218 1.8960948461 6.9993289814 1.8377802112 3.0862283796 0.2413916533 4.4835325426 7.9571886014 3.1654721015 3.3742434372 6.3847146654 4.8733316840 1.4523512377 7.7151850177 0.6584367055 3.5099962685 6.0298893245 7.3067153005 0.5376863318 1.4846072263 4.6011861859 1.7680313489 2.8369263830 2.6798892709 3.7641830698
4.7474744658 3.2713982583 2.6081782669 2.4289349277 7.6566138600 5.1781497541 1.8409761671 3.2480321667 2.2390849848 6.4271137234 1.0444687936 -0.0573056010 6.9156816644 5.6052582515 2.7855067527 1.3091443337 6.3068439751 2.3951375634 3.2820241568 1.7960731290 4.7757986055 7.7093171668 2.3674484169 2.7773168137 5.6286857264 6.8251870011 0.2076687573 2.1616938869 6.8348565723 3.5676941459 3.3255729447 2.3037301086 1.0629804407 6.6443005831 1.7979575162 1.7437485500 5.5099040868 6.2437080598 3.9190455876 4.2240559673 7.3187667122 0.6323456989 0.1412690948 2.4840986437 2.1767045295 4.7454607826 1.5679408953 4.2183521969 8.8615264689 5.9502473333 2.8409346967 1.0981967691 7.3117326480 1.2136133859 2.4613832983 0.5224329274 4.5867405968 7.1033372425 3.7014794998 3.3002033492 6.0728029150 5.5478309137 1.0983260177 7.8551145417 1.3765827549 4.0013492284 6.6627686730 7.9614207771 0.3546458064 2.0073638423 5.0872341921 1.6972160910 2.7402793771 3.0092087085 3.9318880534
4.7506420006 3.3164917220 2.5861938057 2.3893454345 7.6349380710 5.1619332499 1.8474392486 3.2728843624 2.2512501238 6.3452039231 1.0796076611 0.0072937157 6.9110019274 5.5568779049 2.7729653155 1.2711383597 6.3059777233 2.3749197707 3.2988095644 1.8076289655 4.7697521432 7.6746782349 2.3447083787 2.7903584306 5.6434900109 6.7959828040 0.2376461339 2.1722146385 6.7757499923 3.5387142365 3.2490220414 2.3415260683 1.0691982868 6.6153439426 1.7830889117 1.7689375065 5.5700799633 6.2428866130 3.9257846436 4.2184444025 7.3103454645 0.6376579280 0.1473177450 2.5033487165 2.1394819995 4.7717955226 1.5699816375 4.2847744076 8.7507903805 5.9312041408 2.8207717900 1.0795132674 7.3090500861 1.1910169780 2.4267177975 0.5676710752 4.5701427686 7.1028406504 3.7096464995 3.2444775382 5.9681622403 5.5805259866 1.1196786065 7.8182012670 1.3887708543 4.0095465199 6.6635741516 7.9618244984 0.4070639149 1.9246566455 5.1126849193 1.6439103442 2.7499919941 3.0040614529 3.9344078384
4.8971235995 3.5415072352 2.3763334820 2.5914792741 6.6415719315 5.3982631327 1.7946945792 2.7844569004 2.2179993008 6.6987118651 0.9085717554 -0.2048957391 7.5606863321 4.9714213520 2.9254749411 1.1446543299 5.8944883502 2.6195510718 3.4637246698 1.7269559183 4.8040379765 8.1920995718 1.8852792474 2.5892076206 5.7651625520 5.8176362407 0.3977875229 1.5189176146 5.7532346964 4.1132393886 3.0948904375 2.1711370220 0.9706586164 7.3652522761 1.9082245124 1.2872971375 6.2820160191 5.4318993254 4.2608583487 4.2296343600 5.5621804236 0.6108374371 0.1181612829 2.0135395953 2.3488247677 5.0327827840 1.8959388319 4.6348498834 9.1691338543 5.8081173272 2.4291120670 1.9221626797 7.0094344833 1.8881997901 3.0775559770 0.2818651390 4.4703721892 7.9360950084 3.2318801594 3.3462628314 6.3833865168 4.9325890449 1.4981014533 7.7073275909 0.7217604657 3.4895382749 6.0602637328 7.3487177280 0.5557058208 1.5133027005 4.6140435481 1.7708438158 2.8386159482 2.7481759879 3.8068415033
5.0584031322 3.5871080817 2.5764062408 3.0818993750 7.7815453934 5.7723264888 1.8042967025 3.2301626949 2.4186197123 6.6128077492 1.3512785611 0.1671395231 7.8356274996 5.9428413415 3.2534293817 1.3919505638 6.5275340223 2.9613718005 3.4971723906 2.1671102182 5.2397412882 8.2503075410 2.5691509493 2.8899058327 6.2256202781 7.1408124487 0.7197358718 2.2553346182 6.7245794324 4.2380444493 3.1519149138 2.7043165828 1.2678319205 7.2025826363 2.2068806194 1.7775629917 6.9372323320 6.5894114881 4.7724807692 4.7103248882 7.3249958193 0.6256619289 0.2562617793 2.2580698666 1.9650333560 5.0463786775 2.2572430677 5.0561177020 9.3302663478 7.0396920298 3.5658452663 1.8278862330 7.4919448775 1.8246240427 2.9339031003 0.7521526968 5.3548475118 7.9538072794 4.0091784594 3.4109507151 6.5928530569 6.0484836381 1.8020723164 8.0505106574 1.5587434119 4.0952780484 6.8224319603 8.5446903507 0.9627629208 1.4740808067 5.0677039253 2.4613729733 2.7296153977 2.8773894566 4.0532990722
4.9781769474 3.6012099768 2.5901985455 2.7794083293 7.8978736843 5.4027515419 1.8284592743 3.2209283665 2.4104047154 6.8273175382 1.3075239410 -0.1326069776 7.5932230030 6.0612102676 2.9768530632 1.3868544480 6.5659215210 2.6778919236 3.5045050649 1.9967256220 5.0396264398 7.9782053999 2.8168304407 2.6294408643 6.1468242768 7.2105550512 0.2616204453 2.2509458166 6.8689453633 3.9215484323 3.3566947203 2.9137703455 0.9168303482 6.9926577044 2.4649913034 1.4936585756 6.3773991135 6.4326348638 4.3345438890 4.6200929140 7.4455851648 0.4210900723 0.0489854127 2.6254615220 2.2002117385 4.9837964903 1.7752412699 4.6489764020 9.2578274619 6.8930627465 2.9366650857 1.6653734251 7.6115581035 1.5687118854 2.6991240370 0.6733818486 5.2135775840 7.4567758781 4.1812410553 3.2293683948 6.7216032131 6.3475690763 1.3517977739 7.8885821341 1.7857836712 3.7700725016 6.9012003193 8.5652294708 0.2002265868 1.6436323310 5.1217884567 2.1238050136 3.0162153674 2.8686097933 3.8278100199
4.9738505885 3.2357302180 2.5523485685 2.6107612319 7.7184119499 5.0761037943 1.8385055292 3.0664746159 2.0616827393 6.6240936010 1.0617784054 -0.1167289369 7.1810924738 5.8238675697 2.8080564783 1.3671258064 6.3278233924 2.4483847640 3.3085105010 1.8481691960 4.7923246471 7.7534532864 2.5642380933 2.5892134684 5.7124340083 6.8857575350 0.0666453817 2.2045140042 6.8339567978 3.6044929313 3.2668465601 2.5351179581 1.0266967054 6.8207079274 2.0947243158 1.4627404045 5.5771489904 6.2634238941 3.8228442964 4.3019318833 7.2572895735 0.6397542579 0.0449425734 2.7126239768 2.1862579763 4.8191767408 1.6412677801 4.5914487095 9.0063717579 6.1296687576 2.6658517586 1.4251817000 7.3184634633 1.2553058909 2.4124648671 0.5829339555 4.6878997051 7.1088040268 3.9098769283 3.0852052489 6.3551314980 5.9369652632 1.0434872700 7.7617726300 1.4979960427 3.6957234895 6.6072912775 8.1767656019 0.0147883198 1.9562248768 4.9458498404 1.9951096473 2.8394315273 2.9692735184 3.8495957159
4.9727002585 3.6071397151 2.5875356054 2.7861559684 7.8875550448 5.4009182526 1.8286387812 3.2276995103 2.4135127976 6.8287172707 1.3098372050 -0.1294273976 7.6034086005 6.0563620692 2.9781931729 1.3863492628 6.5701723042 2.6770392722 3.5060464503 1.9973018479 5.0418138847 7.9854380272 2.8170183203 2.6311310806 6.1450304108 7.2209945998 0.2708281080 2.2460559996 6.8671816048 3.9219434045 3.3544190521 2.9090159301 0.9194626749 6.9912674168 2.4632835101 1.4979993165 6.3897235022 6.4410822202 4.3349153011 4.6216540071 7.4435356906 0.4109135410 0.0556657914 2.6118048823 2.2015877201 4.9819168927 1.7750027771 4.6496511286 9.2668993532 6.8932563603 2.9530433309 1.6732504363 7.6241977058 1.5797686159 2.7128796079 0.6752094122 5.2220771038 7.4675893902 4.1785463358 3.2224295345 6.7195855715 6.3563373970 1.3626730043 7.8941147316 1.7770499226 3.7750674604 6.9131661872 8.5707530999 0.2098509566 1.6329115644 5.1222167780 2.1478007162 3.0071962381 2.8632851446 3.8242821050
4.9320124980 3.6447549832 2.5669764588 2.8482643826 7.7926232634 5.4036108099 1.8349720360 3.2888463846 2.4186807477 6.8192167461 1.3394966080 -0.0698968680 7.7112507639 6.0059747407 3.0199423902 1.3594630840 6.6013181911 2.6805341067 3.5084108767 2.0307386206 5.0674896742 8.0597835884 2.7514140886 2.6721852312 6.1683273337 7.3032909307 0.3124584552 2.2199521006 6.8467620424 3.9635840552 3.3072498846 2.8551664370 1.0387805185 7.0127036663 2.4031609289 1.5322691412 6.4732145662 6.5473187494 4.3463631238 4.6335357300 7.4077644182 0.3691920838 0.0966571279 2.4881163691 2.1980055045 5.0320279472 1.7785731454 4.7036462387 9.3049574793 6.9249312809 3.1612439960 1.7674069008 7.6901118637 1.6572731518 2.8256122096 0.6637371568 5.2848851136 7.5853395808 4.1369584594 3.1787501761 6.6473697123 6.4102082269 1.5309939869 7.9637197369 1.7034309962 3.8118659254 6.9962495553 8.5929652190 0.3537177080 1.5962322219 5.1117576587 2.3446813205 2.9148337705 2.7705016110 3.8319943865
5.1915239869 3.3669375551 2.3327718547 2.9417417660 7.5830196484 5.5844871075 1.6646649548 2.9764405164 2.5112867557 6.5587867635 1.1784246557 0.0513057090 7.7451368300 5.6866958918 3.1936682589 1.3837162150 6.3500785256 3.0058570909 3.5166634941 2.2431146737 5.0340807787 8.0597431985 2.4135157973 2.6732571602 6.0538199993 6.6704303459 0.6431808586 2.1457272264 6.4469770802 4.3498188547 3.2361719089 2.7097953599 1.1414690457 6.9591870050 2.2970177745 1.5946862236 6.6990150506 6.3290653516 4.5968515165 4.5000551863 6.5920402581 0.5385646896 0.0513470341 2.0438479195 1.9690921554 5.0402432422 2.1498153960 4.6183621430 9.3305117805 6.7741419556 3.4577306169 2.0547745851 7.2435596236 1.9360433409 2.9849059110 0.7903198988 4.9738447819 8.0616408266 3.8822571310 3.2353900950 6.4356898683 5.6569787946 1.7499935162 7.7302986588 1.4850159898 3.8627702938 6.6904316940 8.0856622929 0.8932918494 1.5686921404 4.9049482530 2.4597919755 2.7240411712 3.0838851456 4.0279996153
4.8543287355 3.2053692839 2.5865619816 2.5611835555 7.6497552058 5.1326044951 1.8475671385 3.1346607563 2.1174772424 6.5836368053 0.9857743778 -0.1237612586 7.0391114697 5.7313789584 2.8071381289 1.2812329596 6.2648024147 2.3778741241 3.3128216684 1.8475773782 4.7801981664 7.7129694021 2.4605472934 2.6823404739 5.6331609522 6.8548729070 0.0976679486 2.2217051634 6.8369091061 3.5056859571 3.3098300717 2.3646007055 1.0730266635 6.7527815190 1.9259215994 1.5398210862 5.5153382023 6.2489106922 3.8250862193 4.2723325990 7.2938803566 0.6377108167 0.0704782554 2.5588379947 2.2148831438 4.8081499380 1.5488870077 4.3640588305 8.9526283691 5.9718433729 2.8027224017 1.3348735843 7.3743655661 1.2696794064 2.4147559352 0.6175944855 4.5806514674 7.1190673867 3.7564015856 3.2347578694 6.2454067907 5.7594583182 1.0281643272 7.8006477249 1.4291105122 3.8761100228 6.5482059712 8.0878094902 0.1383580718 2.0853476141 5.0197706230 1.9742837987 2.7022551074 2.9665771182 3.8671707705
4.9006682716 3.5424374602 2.3733423090 2.5923988164 6.6550813987 5.3996696796 1.7943547115 2.7842937459 2.2184094977 6.6981419025 0.9087315736 -0.2030734409 7.5608472649 4.9789355708 2.9270231772 1.1467077742 5.8956841079 2.6208299605 3.4599145560 1.7340386875 4.8030464837 8.1892457834 1.8904314768 2.5887090931 5.7662124117 5.8225821209 0.3999008951 1.5290505891 5.7596766040 4.1127437034 3.0950807654 2.1750634830 0.9741918872 7.3578676074 1.9105819399 1.2880691151 6.2873990793 5.4399636476 4.2666743414 4.2290042416 5.5684892479 0.6171481172 0.1167245828 2.0134578996 2.3440195939 5.0301515460 1.9022703038 4.6406418763 9.1686049783 5.8243543088 2.4356687655 1.9257261611 7.0122118901 1.8944327694 3.0764542474 0.2852115654 4.4702874234 7.9348216654 3.2372721311 3.3441753883 6.3842156752 4.9403597510 1.5034603351 7.7069889086 0.7302488437 3.4884222059 6.0640278098 7.3516625449 0.5598063707 1.5171870014 4.6151444890 1.7727670177 2.8402407820 2.7562588933 3.8126454558
4.6559652501 3.5801588130 2.4806017117 2.6791927015 5.5456067088 5.2767029619 2.0558339486 1.8849555840 2.2283243674 7.2352257957 1.0513850877 -0.0281163551 7.8950914820 4.7000560074 2.6181027656 1.1184241004 5.1840377336 2.3919534520 3.9428600956 1.5951505349 4.7126884333 8.8990863858 1.6817127465 2.7750345897 6.0670160211 4.9174456170 0.2310679920 1.5596600054 5.1015363554 3.8738179901 3.5630734355 1.8121282826 0.9853691831 8.3541241027 1.6187291496 1.3363524195 6.3928317059 5.0586838983 3.8752839167 4.5171751937 4.7099523796 0.3857674471 0.3157638994 1.5878006926 2.8671615249 5.4898392595 1.9005624150 4.5576493424 9.6926540880 5.1930111587 2.0480366360 1.8480570548 6.3870443777 1.6960142184 3.6687118235 0.1670513436 4.2296489334 8.5382569393 3.0551176620 3.4322978182 6.7409584195 3.8647137545 1.1537311755 8.2187406560 0.5465593269 3.6322872511 6.4608540312 6.2863708266 0.9311017005 1.7296406048 3.9519657600 1.6054930217 3.1328474590 2.4870434760 3.6703894135
5.6104792066 2.2890228066 2.3648183675 2.7845458436 4.6541772064 4.9075971754 2.2377142609 1.5038579769 2.6055440785 7.6334993539 1.3972934322 -0.0615287669 8.0598560448 4.6659127313 2.6027668118 1.1357454932 4.4460530788 2.1530224240 4.0478193168 1.6266063303 4.7995134231 9.2316338221 1.5337239875 2.7199092068 6.1309777421 4.6586285496 0.2645871313 1.3757790783 4.6361149202 3.6585260027 3.8567247471 1.6622984967 1.3263031736 9.0358140366 1.6285097240 1.1975971195 6.4035128960 4.4360560161 3.7592701053 4.6389162153 4.7263516580 0.6761129068 0.3868623109 1.3553090503 3.0975149546 5.5357749413 1.5804113573 4.3892690639 9.9324815940 4.3579806956 1.9008661512 1.7813416664 5.6191527639 1.3195525779 3.2003609038 0.4359003071 4.1323645850 8.4014818273 2.6481234155 3.4740632734 6.8963599367 3.5552289227 1.1040804288 8.4863702055 0.2621623467 3.4171631004 6.9054331298 5.9197593807 0.8263084010 1.9550195849 3.2244161028 1.6456756554 3.3369582084 2.8156864492 4.0593692666
4.9422674371 3.6485517543 2.5630302613 2.9586139977 7.7693521804 5.5011387238 1.8281861890 3.2930882539 2.3757139684 6.7422457566 1.3847419997 0.0577985235 7.8025255282 5.9588291498 3.1318818605 1.3535028182 6.6250881192 2.8895699733 3.5093381469 1.9645559703 5.2179750904 8.1857710718 2.6032953617 2.7737351352 6.2342801911 7.2470945336 0.4537915673 2.2553530503 6.8262308741 4.1319028319 3.2549161311 2.7844893263 1.1433571699 7.1454189303 2.2658954475 1.6397453556 6.6706350395 6.6599871768 4.4159699549 4.6996863629 7.4073746907 0.4501240931 0.1881048501 2.3737683523 2.0721203031 5.0547812328 2.0175757446 4.9162385243 9.3050425119 7.1203758274 3.4063754159 1.7857483379 7.5262638135 1.7036665684 2.9019827067 0.5823234066 5.3409238309 7.7522196273 4.0125968982 3.2415478976 6.5202268789 6.3829658098 1.7538653814 8.0024797531 1.5881714878 3.9543110598 6.9782823050 8.5970956644 0.6351074894 1.6143206674 5.1887377153 2.3423523582 2.8456718743 2.7221033411 3.9888540392
5.4534705039 2.7151838219 2.6294212006 2.6684910461 4.8115667591 4.9393979826 2.2754408052 1.5015293653 2.6578231999 7.3568290210 1.4526896514 -0.1585503229 7.7266179201 4.4547589076 2.5371068426 0.9873728419 4.4392449023 2.1368906269 3.9134081246 1.5738236503 5.0482303914 8.8948765821 1.4463216343 2.7336411108 6.0575481549 4.8428439186 0.2081381903 1.2897178480 4.5881147560 3.6491123567 3.7488786816 1.4303222237 1.3641090356 8.7921962407 1.4840371444 1.2032020486 6.2837277295 4.6334425274 3.8478053034 4.5272375548 4.8581223338 0.5663213716 0.4280538667 1.3425839799 3.1854974865 5.4288711851 1.6582258822 4.6203598324 9.4384746095 4.4657204803 1.7913184752 1.6674824879 5.6225551184 1.3276718364 3.2276334016 0.4125014314 4.2628993897 8.1051616127 2.6200537183 3.5038338836 6.7681129089 3.6502042316 0.9916958228 8.1198473000 0.2577874544 3.3714571303 6.7231340003 6.1317520822 0.8038983548 1.6661949759 3.1129526486 1.6664353131 3.1980753369 2.8065868552 4.2996243091
4.6974263862 3.4341807440 2.4042226365 2.7827224475 5.2428039712 4.8000972713 2.0342462471 1.7359141280 2.3759295384 7.0737222576 1.5736951002 -0.0946514808 7.7369299727 4.9496893382 2.4339135470 1.1879896323 4.9066166325 2.1275018224 3.7426798854 1.5120498018 4.6444839401 8.6117889065 1.6497990167 2.6421212847 6.0206315676 5.0992582595 0.0517271654 1.3160137000 4.9850096614 3.6627546228 3.5508558681 1.7252454929 1.1155657756 8.5599768587 1.5058498711 1.1014645514 6.1939896606 4.8612407971 3.5637241242 4.5172821739 4.8630254342 0.4308907389 0.4076420230 1.4006214450 3.2281891036 5.2297591381 1.7333381420 4.2736784447 9.3951427105 5.1990271556 1.5169185745 2.0975852996 6.0434303228 1.4517643263 3.1012235953 0.2025854654 4.0997905264 7.9254643583 2.9033008428 3.3102511621 6.7273973882 3.9516899170 0.8344444804 7.7928022397 0.4575859359 3.3252307091 6.6043532145 6.4264101653 0.5987064113 1.7294554931 3.5418292203 1.6198076792 3.0694316004 2.6815238196 3.8903474434
5.0302922376 3.6068206528 2.5816624578 3.0744030154 7.7892382460 5.7386759501 1.8151411605 3.2455913622 2.4031145705 6.6295158321 1.3608384824 0.1563137386 7.8311516953 5.9454829670 3.2351294139 1.3864840499 6.5588778641 2.9628381033 3.5031256445 2.1199181832 5.2366896837 8.2479447912 2.5673019834 2.8799892463 6.2216103261 7.1577576341 0.7009387522 2.2534408118 6.7437343375 4.2322153803 3.1647628345 2.7093704530 1.2543982063 7.2210810601 2.2040722331 1.7784010958 6.8946558953 6.6299890889 4.7384863438 4.6988378986 7.3700822342 0.5873546814 0.2590497440 2.2754073364 1.9636809669 5.0434405007 2.2337125933 5.0715598371 9.3332378578 7.1024431503 3.5565251837 1.8099126242 7.4812402167 1.7920443258 2.9261730342 0.7218383133 5.3673186398 7.9108759442 4.0262137059 3.3965377566 6.5810871769 6.1230262206 1.7851203574 8.0428830373 1.5544671699 4.0704517697 6.8498091668 8.5729074177 0.9006805338 1.5097292615 5.0988521869 2.4183250781 2.7482211389 2.8299762613 4.0678783907
4.7999400226 3.4318223684 2.7092573481 2.5538381084 5.9506055720 5.2430267660 1.8908034630 2.4444770498 2.0017575101 6.9566140348 0.9135302963 -0.0409444748 7.7442080220 4.6294274690 2.9250148375 1.0010509110 5.6896631527 2.2806982498 3.7993546516 1.4591238047 4.6921171442 8.5883809673 1.5170266685 2.7723175868 5.7970406775 5.3979980184 0.2615707335 1.3399937540 5.5894562894 3.7838292578 3.3912822989 2.1885703529 0.9128222113 7.8921120852 1.5940574170 1.4066063454 6.2499188126 5.0832417946 3.8961146047 4.2805727558 5.0086597432 0.2929666531 0.2510357297 1.7725688039 2.6299173493 5.3591469318 1.6720145741 4.4315930485 9.3312299558 5.3833718300 2.1620139459 1.6629533226 6.8793244951 1.5226186578 3.5220159973 -0.0289949716 4.5964162452 8.2263556838 2.8594970729 3.5189996502 6.5930790149 4.5330328084 1.2534917350 7.9838617158 0.3472013775 3.6093184824 6.0705282681 6.9288724114 0.4472560587 1.6471827231 4.4266376427 1.5503635980 2.9765122086 2.2066933227 3.5935738827
4.6817847614 3.4574628549 2.3883594440 2.7884358750 5.2575704172 4.8152193100 2.0337138602 1.7477241267 2.3664956503 7.0717516637 1.5603552556 -0.0831399680 7.7514036892 4.9674741765 2.4495310754 1.1946974211 4.9095008035 2.1340046238 3.7532516965 1.5194867342 4.6354920884 8.6231057808 1.6601093787 2.6590623926 6.0269718875 5.0955848442 0.0672129869 1.3233319373 4.9922945714 3.6698175341 3.5510314079 1.7316355010 1.1144856781 8.5485718806 1.5122116557 1.1167897668 6.2019407808 4.8623895094 3.5898342172 4.5348304300 4.8482392576 0.4365855082 0.4144132447 1.4099734796 3.2343029036 5.2329569037 1.7378968148 4.2894227634 9.4049563135 5.2219157864 1.5436763956 2.0895857828 6.0550242225 1.4576491367 3.1000009210 0.2004766584 4.0846675729 7.9510311125 2.9119634640 3.3262654969 6.7501567429 3.9490932086 0.8393224474 7.7912681172 0.4604557216 3.3414619015 6.5981767950 6.4283943678 0.5973304375 1.7412346237 3.5586203817 1.6416190871 3.0809987327 2.6835280276 3.8925592191
4.9557948912 4.0269044875 2.2526849424 2.7825786203 8.3182205182 5.4091326783 1.8865544929 3.4116214098 2.5434599224 6.6413101768 1.2061207756 0.4157752120 7.3964146616 6.2890460158 3.1315660905 1.3455483982 6.7430635743 2.6626653740 3.4529190114 2.6144092883 5.1074484884 7.8356113700 2.8882694105 3.0108501711 5.8747220122 6.9568375710 0.6112140519 2.1991314362 7.3571996336 3.8071000872 3.1337373473 2.9763622189 1.1127710281 6.8236142029 2.4154820462 1.9079681090 6.1124911014 6.8437562250 4.5036503195 4.3450822901 7.2097964265 0.7407445934 0.2636447581 2.4238294914 2.5042641323 4.9656817133 2.2488745237 5.0729853077 8.8543155684 7.3964865322 3.0917875810 1.4763900692 7.6669406755 1.4191630453 2.5433485679 1.3699242332 4.8658962131 7.3548812508 4.3272500761 3.4270799124 6.2304066802 5.8873131786 1.6208811507 7.7296441972 2.0412385284 4.2859476876 6.6798757017 8.2153617625 1.0682166599 1.7544846431 5.2307456464 2.3518792449 3.3522953110 3.5871894820 3.8897888366
4.9701074309 3.6389115234 2.5742695001 3.0152503052 7.7895887196 5.5969056231 1.8268401984 3.2771864071 2.3773181627 6.6938259403 1.3823503791 0.1030015569 7.8179116863 5.9501021831 3.1747073873 1.3704609246 6.6143999886 2.9485589290 3.4965435914 2.0019989513 5.2240251339 8.2274981760 2.5706212030 2.8387727119 6.2367067773 7.2122689191 0.5530178723 2.2653209567 6.8019024287 4.1999937945 3.2218542435 2.7597158788 1.1927948687 7.1978906860 2.2288250130 1.7124552954 6.7519181558 6.6943704274 4.5808421473 4.7032018170 7.4155286562 0.4957085832 0.2223791123 2.3313070600 2.0092849750 5.0667415442 2.1323707871 5.0082250375 9.3075476266 7.1699789687 3.4814119126 1.7791515719 7.4775318323 1.7280674948 2.9064018072 0.5905827862 5.3635965281 7.8113499536 4.0117047101 3.3070650467 6.5437964287 6.2909105498 1.7888167036 8.0196351024 1.5809138157 3.9799170146 6.9201629466 8.5675577485 0.7386434570 1.5901276341 5.1642436494 2.3333918645 2.8218403750 2.7421697988 4.0663578937
4.5748401800 3.6335434305 2.2964206603 2.7793019895 5.4052176291 5.1008231809 2.0531383587 1.8368261207 2.3237752210 7.1508705359 1.2401736668 0.0425987705 7.8567083791 4.9797525466 2.6687541685 1.1778795150 5.0124852859 2.3550774624 3.8390289329 1.6062826293 4.6736887900 8.7883507738 1.7017449595 2.8724614857 6.1502002045 4.9280979175 0.1798957317 1.3743359902 5.0466437659 3.8876388071 3.5801420452 1.6382329089 1.0965694006 8.4545086400 1.6310009327 1.3529250648 6.3105637646 4.8275620144 3.7863252713 4.6393392994 4.7172674848 0.4215452651 0.4212976163 1.3487784609 3.1234791822 5.3647182401 1.7802153814 4.4702102304 9.5670052787 5.2762992122 2.0040862896 1.8803859058 6.1755483891 1.5207475116 3.3801526064 0.2229111477 4.0359431160 8.2723614657 2.9972180473 3.5003506855 7.0235464787 3.9997288428 1.0953183903 8.0741064286 0.4563124141 3.6367475596 6.5420434191 6.2878615685 0.8464434950 1.8133775747 3.7962196061 1.6274620686 3.0824300416 2.6879271357 3.8442598202
5.1552267742 3.5124316914 2.5178045658 3.0598176459 7.7597941940 5.7739495464 1.7394124682 3.1714882329 2.4710830821 6.5914145177 1.3233771162 0.1469339860 7.8240478591 5.9067435704 3.2585526360 1.4091619722 6.4513210071 3.0109266848 3.4593460607 2.2423814424 5.1898000250 8.2066213539 2.5282480311 2.8644506454 6.2770902085 6.9826668906 0.7171141407 2.2673317354 6.6872148063 4.2616802635 3.1643021037 2.7754764455 1.2491744600 7.1296277712 2.2836595778 1.7698152869 6.9670842188 6.5105140507 4.8098705633 4.7052680338 7.1030760859 0.7023187871 0.2238120092 2.2014447607 1.9780521236 5.0238042540 2.3214781337 4.8805554750 9.3216865445 6.8672646200 3.5264169515 1.8562391392 7.4850067797 1.9586147269 2.9565909909 0.7821122907 5.2477768056 8.0476918022 4.0015108637 3.3846372653 6.5907722279 5.9318483748 1.8261498529 8.0253358601 1.6128456696 4.0771086334 6.7925103398 8.4007701472 1.1143978806 1.3997546118 4.9684813086 2.5331776962 2.7684787238 3.0303503833 4.0965988261