-28926.7199568987
-28926.4861425224
-28927.5475356117
-28927.4008551712
-28926.8643781152
-28926.8495479186
-28927.7894976164
-28927.2728093489
-28927.3838276565
-28927.7864529362
-28927.0417846823
-28927.5541247089
-28927.3342822826
-28927.5898752788
-28927.3464646768
-28927.4033622908
-28927.4484632316
-28927.7876445221
-28927.2223483124
-28926.7276155388
-28927.1802883782
-28926.7749928468
-28926.8401421726
-28927.096685798
-28927.3299247899
-28926.8587454977
-28927.5079697356
-28927.0973353334
-28926.8721602949
-28927.2418828107
-28927.7840848667
-28927.2155807087
-28926.5006078145
-28927.397752939
-28927.1298266615
-28927.747803267
-28927.4363990707
-28927.363390421
-28927.0921785067
-28927.6562379596
-28927.5541358655
-28927.39686993
-28927.3432749601
-28927.4335292236
-28926.8853644761
-28927.3591594612
-28926.8317186209
-28927.5199689974
-28927.1324147348
-28927.1077889893
-28927.3730802538
-28927.332402249
-28927.0886735462
-28926.6191061195
-28927.6146257885
-28926.4370141628
-28926.8747970767
-28927.4109601134
-28926.8120760935
-28926.4414283912
-28927.8425207394
-28927.2989385226
-28926.9616035236
-28927.5081562696
-28927.6015590247
-28927.3372710434
-28927.7533669036
-28927.5734372984
-28926.5884552324
-28926.8598621163
-28927.4109284122
-28926.999789239
-28927.3347538556
-28926.9198778811
-28926.917659066
-28927.6458296106
-28926.8118075173
-28927.4957862529
-28927.0806033341
-28927.4237445592
-28927.3817606808
-28927.8123242822
-28927.0829165727
-28927.3559896087
-28927.7650483366
-28927.6951302182
-28927.7206423741
-28927.7884429037
-28927.3982134914
-28927.6132713425
-28927.6207374622
-28927.5969439764
-28927.0857457388
-28927.505816636
-28927.6074681097
-28927.5800531988
-28927.3567098937
-28926.7965371768
-28927.4312644213
-28927.3807699148
-28927.9098050693
-28927.1232502176
-28927.4414157589
-28927.4531291652
-28926.7722010963
-28927.4166104183
-28926.6085708295
-28926.8193411211
-28927.1572870154
-28926.7182665284
-28927.1515622874
-28926.5931200776
-28927.1236013803
-28927.1065135924
-28926.9137577719
-28927.402951263
-28926.9659991122
-28927.2031441602
-28926.7570225941
-28927.5874194527
-28927.1917631408
-28926.9958727065
-28926.9777552404
-28927.1428734249
-28926.7493144294
-28927.5825668491
-28927.4226654924
-28927.1185403376
-28927.7881337825
-28927.4373531014
-28927.3835596245
-28927.1938875325
-28926.9863926734
-28927.4279737503
-28927.7895290455
-28927.4462093138
-28927.3581565861
-28927.7744471438
-28927.573319065
-28926.7476035145
-28927.7868684538
-28926.7999640406
-28927.4057221968
-28927.3966125105
-28927.0089544366
-28927.334254527
-28927.0804531274
-28926.8529791363
-28927.0421323075
-28927.4194292441
-28927.7580056259
-28927.4545535444
-28927.7097459892
-28927.636097192
-28926.8836704323
-28926.7295837371
-28927.5502008293
-28927.5874160512
-28926.9214044389
-28927.0731486433
-28927.7741166617
-28927.3999718901
-28927.5361789465
-28927.4343595786
-28927.3244491819
-28927.7667132642
-28927.3892632637
-28927.3812169976
-28927.1402109284
-28927.3183972372
-28927.5678220962
-28927.3951417359
-28927.6177175443
-28927.4831710618
-28927.5646951016
-28927.9170970362
-28927.8900613156
-28927.4238169415
-28927.4271111499
-28927.4133956671
-28927.1887558763
-28927.1877263341
-28927.4119552332
-28927.3729252851
-28927.3984359444
-28926.5860087942
-28927.4175941093
-28927.7803408544
-28927.6985774906
-28927.0771371498
-28927.2630435964
-28927.4131102198
-28926.8405227236
-28927.2970818909
-28927.2357930421
-28926.9154379379
-28927.4155910804
-28927.6576673728
-28927.4958473424
-28926.4536301055
-28927.2982136117
-28927.3947022723
-28927.6720480376
-28927.6353818051
-28927.6119545843
-28927.4419198495
-28926.4473957085
-28927.453250664
-28927.352572813
-28927.5727602795
-28926.9075297696
-28926.8282633211
-28927.1232366119
-28926.9480836905
-28927.4157282257
-28926.7576993409
-28926.7977857705
-28927.5158583118
-28927.1792860474
-28926.6457124446
-28926.8962834465
-28927.24199601
-28927.3325263329
-28927.4039818937
-28927.549383944
-28926.833614437
-28927.2474746111
-28927.4782663485
-28927.4167788567
-28927.6919045824
-28927.205120522
-28927.7850783539
-28927.6294113584
-28927.4758948776
-28927.3830657381
-28927.363088783
-28927.3606311881
-28927.070730777
-28926.9912382021
-28927.4418553586
-28926.6334665118
-28926.6227957092
-28927.4050088508
-28926.6735596082
-28927.2291385016
-28927.0944916092
-28927.5697877095
-28927.0743034938
-28927.9035151611
-28927.3412731556
-28927.4103142516
-28927.4805759135
-28927.1117594003
-28927.1316254691
-28927.7852895141
-28927.1380473524
-28927.3509575461
-28927.5134841197
-28927.3746367442
-28927.0881142164
-28926.4735988972
-28927.3935682385
-28927.7454081222
-28927.9105482118
-28927.1115282397
-28926.6431136227
-28927.5032073377
-28927.3868522002
-28926.8755332803
-28927.7829519214
-28927.3903189288
-28927.0932492741
-28927.1175644018
-28927.5925560069
-28927.4799326367
-28927.3368411037
-28927.7512739411
-28927.8257782638
-28926.9051166653
-28926.885876322
-28927.0835058349
-28927.1207364312
-28927.076555915
-28927.4225048092
-28927.4183572522
-28926.8266377139
-28927.3596957973
-28926.8510660409
-28927.4864375147
-28927.3616522948
-28926.7389599589
-28927.4314421116
-28926.8135800659
-28927.263829869
-28927.1026710748
-28927.4035348108
-28926.7417759275
-28927.181477379
-28927.5468024013
-28926.8175312929
-28927.5529030544
-28927.8834916746
-28927.3631336818
-28927.1219810793
-28926.8498869723
-28927.5690034778
-28927.478124033
-28927.4395272898
-28927.398384787
-28927.3552232005
-28927.54097876
-28927.7923033807
-28927.3033592818
-28927.782520213
-28927.7841444596
-28926.9074983404
-28927.0764895192
-28927.8509074197
-28927.3584383599
-28926.8532796859
-28926.852380078
-28926.9386252904
-28927.4762079444
-28926.8273233044
-28927.3910964937
-28926.8042095586
-28927.344588725
-28927.1570837465
-28927.3684148644
-28927.4097229485
-28927.147267789
-28927.5137194981
-28927.2621416756
-28927.4971038274
-28927.3695204624
-28927.4259643267
-28927.2817331816
-28927.4869197001
-28927.5285107824
-28927.763776069
-28927.4247855302
-28927.7818146222
-28927.4212079153
-28927.5214596362
-28927.4616325822
-28927.3319544859
-28926.9495906562
-28926.5206434101
-28927.5728717101
-28927.1963033579
-28927.1082627392
-28927.1688332078
-28927.408829055
-28927.6952800168
-28927.4044802699
-28927.6046273788
-28927.4187933144
-28926.863336464
-28927.3396940798
-28927.0984684148
-28927.7054407423
-28926.9084514187
-28927.4108684111
-28926.8940634068
-28927.4744106334
-28926.8229720703
-28926.9508056438
-28926.658361786
-28926.9309375342
-28927.0719846769
-28926.9883098505
-28927.43536327
-28926.8569899562
-28927.4217084685
-28927.408508369
-28927.2436333181
-28927.4496337287
-28927.4955348199
-28927.221528842
-28927.3928325791
-28927.1710999149
-28927.4333324854
-28926.9770167238
-28927.3220771668
-28927.4123791864
-28927.3181960091
-28927.4399902913
-28927.1516009275
-28926.9865528123
-28927.2666746816
-28927.1145818996
-28926.6159429338
-28927.4713556129
-28926.8053890354
-28926.8761694821
-28927.7479025884
-28927.4117906044
-28927.5034738731
-28927.5925330133
-28927.6984404814
-28927.9193244228
-28927.6202490181
-28927.3465884886
-28927.4058574373
-28927.1010299571
-28927.3669544302
-28927.6877461409
-28927.3656541349
-28926.593575868
-28926.866737341
-28927.5575722534
-28926.7285301129
-28927.6178653021
-28927.5769789942
-28927.5861243275
-28927.4502745564
-28927.351086392
-28927.7192000355
-28927.7851086945
-28927.4069714708
-28927.2612940414
-28927.4981818059
-28927.4594513188
-28927.0745089397
-28926.9755089418
-28927.4109097724
-28927.7556027259
-28927.0821683961
-28927.4191835255
-28927.4049326589
-28926.8977091862
-28927.0837514175
-28926.9457935816
-28927.4131283154
-28927.600614518
-28927.0799242744
-28927.4485810568
-28927.3659881545
-28927.2592191744
-28927.6372280966
-28927.7268735057
-28927.1639938018
-28927.4105674533
-28927.0402253347
-28927.4091040259
-28927.475986852
-28927.5838329941
-28927.6139936683
-28927.0731919094
-28927.1265712292
-28927.3829262798
-28927.5515936433
-28927.5543419917
-28927.0898543836
-28926.9649805907
-28927.736808785
-28927.1345825286
-28927.8385429814
-28927.5917045631
-28926.846308269
-28926.4990554059
-28927.425914666
-28926.9865373019
-28926.742643562
-28927.3472378879
-28926.7032519748
-28927.3239378803
-28927.4216256099
-28927.3239117574
-28927.0320426037
-28927.1135719496
-28927.3692158311
-28927.0988293736
-28926.8948684552
-28927.6828938094
-28927.3696419612
-28927.3623618313
-28927.274264749
-28927.2425168356
-28927.4324403607
-28927.4760071245
-28927.3297763518
-28927.2445443548
-28927.1699246559
-28927.406268329
-28927.5883575646
-28927.0811972223
-28927.5576093969
-28926.9458602495
-28927.4141340476
-28926.7672573346
-28927.5605267279
-28927.3969429925
-28927.4397042998
-28927.5056110541
-28926.5686011367
-28927.4188731798
-28926.7602902715
-28927.1751880151
-28927.4518485981
-28927.5115540173
-28927.8651935249
-28927.1667128979
-28927.2654315302
-28927.1669293643
-28926.8688402357
-28927.8017306238
-28927.6184853131
-28927.4856985899
-28927.4771014297
-28926.5805510098
-28927.0474838316
-28926.8717885876
-28926.6438617993
-28926.8340793433
-28927.4269995833
-28926.6076023768
-28927.4775383083
-28927.6066709526
-28927.3971512956
-28927.309412451
-28927.3890289738
-28927.4248561437
-28927.3544355674
-28927.3603337679
-28927.139003832
-28926.8595525869
-28927.6987204864
-28927.1602088362
-28927.4148736526
-28927.3574899076
-28927.1805890639
-28927.1430515233
-28927.4284943038
-28926.8834236251
-28927.737952751
-28927.1175956949
-28926.8892033201
-28926.9638773057
-28927.7257639621
-28927.8517942382
-28927.5976271178
-28926.8438659125
-28927.1590767072
-28927.0728985708
-28927.329889279
-28927.3203750956
-28926.9217843097
-28926.7536671601
-28926.7838764066
-28927.435363406
-28927.4117692435
-28926.9083126407
-28927.3062600138
-28927.3954824223
-28927.4053623265
-28927.1493237441
-28927.17589864
-28927.3001076592
-28926.621658546
-28927.2114609073
-28927.3543816889
-28927.5532324481
-28927.4264601179
-28926.8972675456
-28927.0540506154
-28927.3304913306
-28927.4777585843
-28927.1989563304
-28927.4197194534
-28927.3879904518
-28927.1048409095
-28927.4064276516
-28927.5807651843
-28927.4206602865
-28927.1420234777
-28927.3214679043
-28926.8003184687
-28927.1340630636
-28926.883344304
-28927.5725657182
-28926.8233764312
-28927.1082257318
-28927.134992604
-28927.7837166969
-28926.6317240317
-28927.1524232551
-28926.8360548887
-28927.3887693773
-28926.7467845883
-28927.3170987106
-28927.1391182558
-28927.4045663939
-28927.3907681885
-28927.3715375052
-28927.9015507723
-28926.8740543423
-28927.5278781181
-28927.5370098457
-28927.0789343248
-28926.8578413999
-28927.4189907329
-28926.8633545595
-28927.1224979593
-28926.8921670465
-28927.5970646588
-28926.5297267015
-28927.4124229967
-28927.5955493936
-28927.1281618698
-28927.3685464314
-28927.4145717425
-28927.8025607066
-28926.6741269653
-28927.0465556517
-28926.8890027723
-28927.3385605902
-28927.1118398099
-28927.2545596355
-28927.4911060333
-28927.4279972882
-28927.633672795
-28927.9214949378
-28927.6987640245
-28926.5576368594
-28926.8337806985
-28926.8525463395
-28927.7580781442
-28927.4330113913
-28926.8562283099
-28927.3010135257
-28927.6190579764
-28926.4394898532
-28926.6296657637
-28927.7881559598
-28927.1055024179
-28926.8222732823
-28927.7408649118
-28926.8304919323
-28926.6899997655
-28926.8506151486
-28927.6714712926
-28927.2080769013
-28926.8893305333
-28927.3501067826
-28927.1901866501
-28927.4156101284
-28927.2667058386
-28927.3816066645
-28927.4563837811
-28927.3750081794
-28927.1465232859
-28927.277955155
-28926.8146546429
-28926.8836882557
-28927.3219740357
-28927.6600912256
-28926.842450241
-28927.8137373687
-28926.8493517246
-28927.5082617136
-28926.8496932273
-28927.378140208
-28927.7016095175
-28927.2894073322
-28927.4085978944
-28927.124098396
-28926.4589651667
-28927.4002083569
-28926.8241314107
-28926.7862608029
-28927.1535051792
-28927.5091000959
-28926.8529637619
-28927.5790948143
-28926.8059890461
-28927.2885343914
-28927.4009659215
-28927.1366539942
-28927.9152278872
-28927.4248394087
-28927.2981755158
-28926.854129633
-28927.4436888607
-28927.4522105094
-28927.4485832337
-28927.3199006654
-28927.1644487759
-28927.8647185505
-28927.0636065682
-28927.4086327249
-28927.0710091493
-28927.149845386
-28927.6972893043
-28927.5397488061
-28926.7204647989
-28927.3959119537
-28926.621720724
-28927.5404214712
-28927.1284690862
-28927.491411617
-28926.6457365267
-28927.0914769975
-28927.4116213497
-28927.3603314549
-28927.0141862306
-28926.6425156529
-28927.6502626149
-28927.1820783421
-28926.6067626339
-28927.5015492129
-28927.320373463
-28927.4608929772
-28927.5425196038
-28927.4134057353
-28926.9757790146
-28926.9086159114
-28926.8149711112
-28927.4166045679
-28927.7858084349
-28926.6553546575
-28927.5424420514
-28927.4978378542
-28926.9786885904
-28927.2565082417
-28927.7725077894
-28927.4102909858
-28926.7957936261
-28926.8606509739
-28927.8906135704
-28927.0928174296
-28927.6411299349
-28927.4448343233
-28926.6502794649
-28927.6514901198
-28927.5614660644
-28926.6302441414
-28927.4610716199
-28927.6662590908
-28927.413271039
-28926.8400240752
-28927.6417669531
-28927.4348078859
-28926.7831962584
-28927.3613471193
-28927.3753971659
-28927.6474929056
-28927.3227970436
-28927.089754926
-28927.1777144547
-28926.4724024133
-28926.8570543111
-28927.8771594528
-28927.0690599989
-28927.4221646671
-28926.8518195238
-28927.4110937212
-28927.4121731963
-28927.4327166921
-28927.4945211963
-28926.7982607449
-28927.6094519546
-28927.4596175803
-28927.3024149112
-28927.6453755889
-28927.3784574926
-28926.8923217431
-28927.6152598134
-28927.5062529703
-28927.4076610069
-28927.455052873
-28926.9950565015
-28927.0559709218
-28927.4927423891
-28926.6839655082
-28926.9524708436
-28927.5796178168
-28927.8229250156
-28927.490810926
-28926.9995907321
-28927.3693275338
-28927.3622004678
-28926.9964274103
-28927.3803127638
-28926.704956631
-28927.6519230527
-28927.6984140863
-28926.8313036475
-28927.0468630042
-28927.7021273499
-28927.31311483
-28926.8279294376
-28927.4109626985
-28926.6377155672
-28927.6124333684
-28926.5105628221
-28927.4488660959
-28927.4869014685
-28927.4082780247
-28927.3096723196
-28927.3331611741
-28927.0739187251
-28927.4107948043
-28927.14160279
-28926.8832398123
-28927.415532712
-28927.3674940317
-28927.5741204398
-28927.7335583869
-28927.3468733916
-28926.9777859892
-28926.8406084394
-28927.3607824833
-28927.6594683574
-28927.5484259677
-28926.5337903114
-28927.4691021033
-28927.5187598601
-28927.7405749747
-28927.3832430202
-28926.5476373612
-28927.4042632592
-28927.1729664789
-28927.4258890873
-28927.1742237802
-28927.6149606244
-28927.0834735894
-28927.3650152119
-28927.4211363494
-28926.8511238651
-28927.3520084492
-28927.4040165882
-28927.1581040368
-28927.2983895333
-28927.3952579285
-28927.6055246737
-28927.3386242648
-28926.7176499188
-28926.8410159296
-28927.6153715161
-28927.3810486953
-28926.9912316713
-28926.8718341666
-28927.6113443694
-28927.6298255155
-28926.9258662873
-28927.8581780256
-28927.5179353556
-28926.865837461
-28927.3168663255
-28927.3300967657
-28927.4952907339
-28927.3858764005
-28927.366551838
-28926.5703049766
-28927.7148443115
-28926.6006705524
-28927.3532242532
-28927.4927075585
-28927.5006989936
-28926.84067225
-28927.2856037269
-28927.0672569735
-28927.5228611578
-28927.5003868792
-28926.8416119947
-28927.2616690141
-28926.7939997165
-28927.4862920699
-28927.3665186401
-28926.8173050303
-28927.7408488571
-28927.3518389224
-28926.6175938476
-28927.4215042471
-28927.7131644176
-28927.4065201702
-28927.4831365034
-28927.600154918
-28927.625152643
-28927.4104153418
-28927.6802426056
-28927.4257562958
-28926.8177891206
-28927.1460813733
-28927.355485382
-28927.4136374401
-28927.5617489266
-28927.3549554406
-28927.3419406505
-28927.6619807831
-28926.902452128
-28926.9061011727
-28927.7395948212
-28927.4548286513
-28926.6390860679
-28927.5534657856
-28927.4756360974
-28927.7329949755
-28927.3461880733
-28927.3828805647
-28927.6881871011
-28927.64761835
-28927.6776024224
-28927.2279839232
-28927.7718179812
-28927.4767132595
-28926.6273548381
-28927.0503290524
-28927.3420786122
-28926.8552818985
-28926.8259458648
-28927.7493437026
-28926.7692262132
-28927.6040338988
-28926.7944413571
-28927.139999496
-28927.5412599895
-28927.7915478571
-28927.4265802561
-28927.3975371528
-28927.4212409771
-28926.8442514976
-28927.1653528736
-28926.6807518454
-28926.9360353123
-28927.75969069
-28927.3249025234
-28927.4531848125
-28926.8130616893
-28926.8503224903
-28927.6999183309
-28927.4217706465
-28926.9315776817
-28927.5930560158
-28927.4711588747
-28927.6532535526
-28927.7777794481
-28926.6992440121
-28927.6172291002
-28927.5550481267
-28926.8342888708
-28927.5466157313
-28927.413290223
-28927.7876238415
-28926.9049916291
-28926.6175342547
-28926.9111585418
-28927.4656662597
-28927.4210979814
-28927.1203874454
-28927.7431419593
-28927.7374072991
-28927.1475223514
-28927.1807316514
-28927.7665257779
-28927.0859619331
-28927.4668402942
-28927.3102776366
-28927.3671881759
-28926.7594820938
-28927.1410708077
-28927.4013838881
-28926.9632447774
-28927.4129606933
-28926.7400628357
-28927.2806727545
-28927.0899352013
-28927.4466221103
-28926.9355295889
-28927.2987393354
-28927.4066473834
-28927.8783054596
-28927.4442405712
-28927.0773081733
-28927.2632132593
-28927.605788624
-28927.5179941322
-28927.5606765265
-28927.5665899653
-28927.3451643815
-28927.9208126127
-28927.3514961952
-28927.7074015936
-28927.3633374949
-28927.6042559436
-28926.5384939328
-28927.0744470338
-28927.4247090662
-28926.6433873691
-28927.3367314419
-28927.325253414
-28927.8709683219
-28927.8968110959
-28927.2197354767
-28927.3199727755
-28927.3187662234
-28927.4742075005
-28927.3700644177
-28927.8331121362