0.314266034050976 0.445768379687455 0.0742043128668127 0.995769741869675 0.23568133499277 0.164589855114112 0.477209355551794 -0.165127986727576 -0.27090311610125 -1.02412693819656 0.225827330110962 0.237939276621743 -0.204115403579389 -1.07403973806363 -0.542727972209318 -0.474703045485838 0.152620861865198 0.0486167074334922 -0.138982966417051 -1.23125644445375 -0.511751337335861 -0.377549077665466 -0.753997466636598 0.286258507573258 0.137636737497749 0.00486735287839822 0.363834049162355 -0.325460097207687 0.16484902217879 0.415102591025502 -0.125168436273036 -0.698463209723771 -0.0264718073533887 0.0311617542053703 -0.319813443363971 0.447357834840075 -0.0577114659442724 0.427109122361165 -0.0108960724543679 0.616719654954614 -0.316781600083528 -0.557610280944214 -0.0735725931466593 0.464896091767558 0.167281541622165 -0.369341349286769 0.0099172539868774 0.667886381185209 -0.387443705956221 0.207261918001545 -0.0302289584606748 -0.102534512624462 0.296455754549654 0.543575150263004 0.40400931506061 0.48865024448439 -0.21198811738936 0.555100628445876 -0.129368845336181 -0.290438862042112 0.243747909880882 -0.136840724370523 -0.0949705881445301 0.216442037093152 0.891403319189823 -0.62893290287758 0.380394773173263 0.2352259928583 0.470144996157844 -0.687433697084315 0.314208441369936 -0.660168961925899 -0.0243156813569677 0.260947295586891 -0.0497022266270159
-0.0274845643650633 0.175942812364049 0.171969688702864 -0.87394913729225 -0.188255047707552 -0.0638265745418015 -0.550005990165518 0.619257332462922 -1.46634102671129 -0.395336217250298 0.635629594709536 0.0772559536313634 0.299103732326561 -1.13212529932448 -0.853511448828679 -0.273888679548715 0.583967160045707 -0.0109109848449942 0.430211156721626 1.67954373260614 -0.0696406071147886 0.299518708162266 1.15639032997535 0.319923229412203 1.71764951863972 0.00748242055185384 1.27462296194604 0.635427763215714 -0.566866504650052 -0.365357941218256 -0.26921441641791 -0.716014065050231 0.52707484714515 0.193067893227109 -0.484263944758782 -0.363181503517361 -0.204871307518034 0.565104528564496 0.104376449976998 0.75609522862143 0.292171013346416 -0.274621957791238 -0.0172742047693235 0.0716776910963823 -0.303529884130566 -0.0108073694411595 -0.526808738105525 -0.102240378574867 -0.247200899641428 0.631892755306724 0.0425897876288051 -0.0807703927256968 0.276673697053275 0.509436317246214 0.567082991424317 -1.10266895696435 0.145762961948368 -0.528159337897941 0.504594675386137 0.346144611447143 -0.0233931700196008 -1.10228920522375 -0.0848620441813425 -0.46218640754668 -1.07533994426014 0.381130108297251 -0.577949496207616 0.358912188925115 -0.424802844017748 -0.340955099509179 0.0642366652840256 0.771704387844269 -0.0147105591325104 -0.72884463452309 -0.289164881084294
0.0884253342104863 0.0909663541511767 0.105607750644403 0.666454020354531 -0.694794761629693 0.421447813237006 1.14389426085085 -1.79995074539626 0.74754631502961 -1.22752500436479 -0.0409167716666405 0.935088653309297 -0.488781884898194 -0.264873625194731 0.145653433010319 0.814050692129571 0.161805351829919 -0.0143297789511725 -0.118170668416538 -0.240709895956042 -0.804887542310057 -0.130876025230173 1.27382077817442 0.598085851536462 0.106108087060935 -1.01265982402528 -0.326333243389877 -0.204348088295196 -0.01001829828888 0.770540192934682 -0.0582421413624233 -0.560404554415369 -0.689342740194669 0.0413181206626354 -0.213573458779049 -0.537797884446216 0.116586869687948 0.156773448434265 0.246582806760985 0.192135354592597 -0.0848005948475547 0.384236770641009 -0.273159515069124 -0.72431486731525 -0.496534014032238 0.493348161752051 0.161853688544363 0.308538133389365 -0.487792267803009 -0.213513809216543 -0.00574692681516861 -0.511293681209742 -0.624036753658662 -0.829868624821179 -0.169864727632902 0.784160604890371 0.162591080549817 0.00337174294265038 -0.423039839491459 -0.393060020798317 0.095509748198727 0.873583269501539 -0.0474309152685156 0.353277876370194 0.299582985708069 -0.661653773233952 -0.272845326425239 0.000204402595654038 0.0234389356322126 -0.342044475355451 3.07732247231103 -0.460670743016642 0.170463794359788 0.0275339295202401 0.418298470602835
-0.276810479670744 0.16463767760819 -0.0864211603323439 0.695478160496672 -0.399880896848765 -1.41016630833208 -0.173329287351692 0.701788158613076 -0.250395750778028 0.147856867280451 -0.398845771251151 -0.223298651459066 -0.22620091120717 -0.242242015537806 -0.225776165184503 0.313200055231376 0.449246566245955 0.269644304644241 -1.31372273594792 -1.26044076424003 -0.188552267079346 0.994627401325661 -0.121457050778362 0.370541539622006 -0.850725145773204 1.27782784037979 -0.72624756456246 0.526217384684136 0.569087936633009 0.792457036282276 0.0532662879867093 0.396160512497678 0.0565799240279537 -0.383352054500575 -0.0866667005573119 0.16656009044807 0.335018682488983 0.47300020474242 -0.536230283659169 -0.511853410078596 0.354866045971898 -0.276288545998822 0.0357066909140198 -0.402037022845186 0.316880073283699 0.853418374942356 0.181061619001629 -0.246826804324854 -0.237869599762092 -0.648826546193474 -0.111443637582963 -0.303639155958432 0.330418981311309 0.220835535903889 -0.0239166463526217 -0.995820392575768 0.32468002491182 0.0211707095959108 -0.100640896125101 -0.30117089819959 0.760575887784277 -0.550063839956741 1.32443651728239 0.0259059078401378 -0.0268309902793368 -0.158213522570439 0.00419732374094612 -0.232905316344623 0.0738680127471706 -0.501880620292145 -0.0460458627115492 0.475049372902625 0.0366603125835555 0.614608266130072 0.349498613787152
-0.0778015414401406 0.0388074397235641 -0.389173543268875 0.127670375465878 -0.116680714904821 -0.118276083591655 0.452791601452091 0.00887724329578233 -0.00673885790200292 -0.685690490042134 -0.42222042933756 -0.176877922100393 -0.302177998787234 0.546853305098965 0.912285551160169 0.777014998678526 0.382473509004537 -0.175242187114794 0.937104654255867 0.722097034874858 -0.526676326361171 -0.104616076667752 1.05175394160312 0.0989074592698818 -1.10162483251033 0.390923949396187 -1.41262299613267 0.53571503485201 -0.27373621321007 0.252019401585016 -0.719958392370896 -0.447399743799939 0.488583652946938 0.494372231611787 -0.476766097595936 0.0787592768726076 0.625364984865138 -0.0434608769295294 0.590923276052525 1.14650650031229 0.0112711962116751 0.356433646758946 0.129987709547174 0.21969190980896 -0.0763671237279974 -0.840463107030638 0.0197861712593108 -0.144884673562513 0.0631172075463179 -0.372112482841435 -0.580130561891808 -0.27321119421595 -0.242283667387487 0.0772883495144482 -0.510895417535946 -0.466097053433345 0.0681323987800634 0.377754251591669 -0.37426012420181 0.821799735941417 -0.0329355573593542 0.21269722727466 -0.0161912566776319 -0.255471105794645 -0.0478757158854734 -0.20037959261731 -0.522953370908252 -0.936418170066689 -0.298237013898951 -0.725349478692498 0.770323706160417 0.5823499369933 0.485748241846469 -0.156245344117946 -0.205684547027536
0.250766503662221 -0.392965918471261 0.723408811029609 0.618085167137656 0.447951502253113 -0.248964675498267 0.153396306177767 -0.362205256151703 -0.0261761306426942 -0.280764062958004 -0.170663054751778 0.442017913444932 -0.279997103281481 -0.70891525289173 -0.295586207910029 -0.246120779761752 1.30535251393343 -1.07240940239188 -0.0913916143942103 -1.98576093237165 0.727761686431399 -0.0880034163998344 -0.475662066469221 -0.555063090359127 -0.209485921086334 0.816678358202004 0.773182771397741 0.173481496580154 -0.237201627506106 -0.344498592054216 -0.327802885197121 0.431998843825503 -0.717671654401403 0.00975887411401843 -0.249231041648075 0.0494913962767816 0.323249720962608 0.105963076917603 -0.0425386227023457 -0.721708541388024 -0.133573882382623 -0.0870734488671543 -0.226236392412454 0.43769203461238 -0.224151228826599 0.913350758649219 0.611965944777196 -0.15200482586622 0.249472982330478 -0.550970667572932 0.115649188849772 0.179007051527577 0.155048753325275 0.782815918632169 -0.10325622090874 0.0978497079761451 0.929609121084669 0.157371743830601 -0.240364339869804 0.19868935027287 -0.869617859145851 -0.435305023671434 -0.634497795683034 0.141807064669458 0.703520052807196 -0.358006903970024 0.477507346254138 0.915282427455695 -0.24474086940845 -0.161082100884542 -0.759810984989219 0.267292260688212 -0.0417878609673649 0.673326318441622 -0.00653522663689852
-0.3222022540762 -0.315301930979139 0.168994152552544 -0.20095989030082 0.524206783051413 0.0487282932530065 -0.0728956220342605 -0.106083918703713 -0.42290948462857 0.508327401026018 0.223963795503037 0.203538962548626 0.203939025993705 0.945664109365199 0.497323085184518 -0.094976501678744 -0.367397339191499 -0.397400812021496 -0.696333308966037 0.797564272961611 -0.831576093547894 -0.26238299884995 -0.665125789148055 0.0670450798152572 0.359112477757838 0.0549169353629344 -1.27057681899283 0.555916953277576 0.278483752743091 -0.320985865799421 0.558240200893085 -0.0305727147756301 0.0626353830629774 -0.403443929767725 -0.125959821416965 -0.367623081932359 -0.440350296796615 0.0454030872535176 0.552427196760831 -0.38270902193236 -0.00160513887379642 -0.434523922934834 -0.0578896433012388 -0.353170147203428 0.182524575944109 -0.415908888560057 0.377572731802321 0.148038387069799 -0.404144297906797 0.671159393817506 -0.129248003550071 -0.232136042676451 0.102273545788502 0.352799394319235 -0.0685666578795095 -0.70503134646412 0.500653433387671 0.128787262101754 -0.650749730363904 0.294137392027626 0.330060569715911 0.22708202780504 -0.186206393767714 0.221165922489318 0.550074124364069 -0.189729831718459 0.0361031548165337 -0.597631537842725 0.517788284437693 0.373309073634106 -0.482793274510806 0.308153239445096 0.77993808435147 -0.396941356124095 0.645993706194837
0.467173830880639 0.0811115779388199 -0.20965201426469 0.38155254032827 -0.835103902371754 0.625644720744474 0.374727807625074 -0.114796354372056 -0.622004297660366 0.16733476343009 -0.470238584264534 0.818708500208651 1.28602939811409 -0.159565922134137 0.333907966497504 -1.06685119445119 -0.143060219702436 -0.744458421729227 0.710329616009583 1.36656993433599 0.11999872181918 -0.37121413986129 -1.02842967711263 -0.285515716253957 0.073020834693485 -1.48124673247285 -0.122578565397535 0.0408182984664701 -0.592672910849287 -0.902497623595448 -0.469298589434708 0.241064450898692 0.421340341180423 0.54669209701409 0.296092714970958 -0.0260095232439724 0.510119716113194 0.134640118312406 0.436224706796786 -0.39095300284689 0.0391092870786557 0.0322917534605897 -0.450143623675184 0.258100057417994 0.0273629512484037 0.16268415443614 -0.244086523992174 0.992766437819568 -0.917587163138013 -0.333069530190048 0.307704325065206 0.6734430464648 0.643654774858152 0.266458452364054 -0.502471973713534 0.751518153139879 -0.306899827301934 -0.0145573214633157 0.242519437425493 -0.200081344804783 -0.4396383586993 1.35188302934034 -0.707535085428245 -0.444215948401217 0.541706987671781 -0.591478376938081 -0.170136750206741 0.535765942668287 -0.211507578456935 0.0295753843749483 -0.64145056925747 0.776695410720792 -0.18643419339004 -0.440016053558439 -0.22888591285046
0.348076280253619 0.0120726086527488 -0.172289790880964 1.49157844807507 -0.282873909121447 -0.0756616133852619 0.165017172238611 -0.140138676690591 -0.663209804062755 1.34730621096897 -1.25904928392849 0.840307555369794 0.553804021791935 0.230641461181436 0.192863490631455 -0.768021798690114 -0.0103612832732856 -0.503224535219797 -0.628515613050226 1.0136489269001 0.464908433056353 0.0582629672872635 -0.636791732737657 -0.54763003496245 -1.09042434159904 1.1973315271094 -0.7236402101945 -0.389278958443992 -0.357548476513356 -0.817079450087816 0.154161208972825 0.149312882247984 0.776858932797315 0.108706956792848 0.236300713424129 0.00920814410157698 0.311706502177094 0.0243030829579902 0.0583946077010684 -0.535642786890528 0.16034882264202 -0.372032778684639 -0.0218337967584162 0.019181705218578 -0.0605098531783586 -0.521662934898708 0.127467772641507 0.203257426898009 -0.0056122010791652 0.200629760825575 0.454863395308418 -0.118484085729874 0.836012272649044 0.860910308570989 -0.108109689837245 0.148954470652586 -0.192464455627109 -0.508852934240505 0.151332996957486 0.321282313840665 0.563922335942084 -0.735477820139793 0.647228092184441 -0.496399031186052 0.268030681134399 -0.109296767553138 -0.445444420856607 0.120677235592678 -0.261816842226516 0.516891998339014 -1.56828495724491 0.478578210167218 0.018847976200768 0.0942792188618714 -0.809804774563998
-0.436749468680723 -0.414050239045613 0.174072335781177 0.0389223679754602 0.26197882164194 0.135889673802819 -0.0454984751314895 0.142505633037247 -0.18218133384952 0.0553144277061811 0.298136740927498 0.181037450644407 0.799949227021092 1.30374506106799 0.622552199460792 -0.511899432801391 -0.415074823125715 -0.412276435891629 0.679978015991516 0.51345674918111 -0.00558211918772932 0.144865647408955 -0.149365075615176 -0.341426382475008 -0.423866191620304 0.97753985854935 -1.1018611167687 0.258167677396179 -0.013791133117342 -0.096784243376912 0.525086614098367 -0.31300028061902 -0.0710842807935275 -0.306587181319148 0.0766761701682189 -0.421527517393802 -0.76590783876374 -0.0613179504841959 0.703150842584103 0.482516881063852 0.205077766995154 -0.790635410634214 -0.343478635957411 -0.164924098352288 0.239978160374619 -0.615622308692662 0.147637809404354 0.072752411662211 0.196158871849691 0.0781375844495995 -0.0240583140635718 0.0717697365419724 0.606711126852696 -0.253506269774534 -0.215547293655572 -0.509399036269649 0.491112331598834 0.375257197492308 -1.28452710331358 0.217038789828388 0.209223925809641 -0.0182957035272272 -0.470473840082173 -0.0383968347609735 -0.037038264552878 0.447909850403433 -0.140102167044575 -1.01500004091288 0.477463123302625 -0.132559068489483 -0.153054092523911 0.657713559676218 0.139004306562257 -0.0627652237054998 -0.249273979048671
0.238338311626089 -0.106464698885051 -0.0169535883708573 -0.649216582341407 0.485163830400026 -1.92625355179763 -0.634656432666076 -0.0148905362607592 0.795545958023392 0.65068776680975 0.235057071467929 -0.24369006008966 -0.16235042541833 -0.0497341082897343 0.516846746946769 0.460998044279872 0.526848590183923 0.998545503407638 -0.60276834219313 -0.412494465326993 -0.809706815584194 -0.771131546356071 -0.855961194654329 0.492111975991164 1.28738334033889 -1.41486911069322 -1.10226683663781 0.241673802032906 0.31435036619107 0.0510003759420565 0.454059154655329 0.852915210313809 -0.147148271615517 -0.209499033705678 0.662094460087978 0.347376169224731 -0.858665993781725 0.620864271108001 0.52860825227783 -0.217338580302014 -0.622139280506553 0.115772601737714 -0.195511725518545 0.0863885073390759 0.25513377723427 0.234387813661027 0.0229118597566267 -0.857497685109207 -0.331383915828906 -0.121073442385009 -0.058548873810996 -0.207721116788763 -0.171613848209298 0.717255393014781 0.164796057481049 -0.794996513561867 -0.324819635741304 -0.0983605859101886 0.0842771185145338 -0.128945899084796 -0.367576030768831 0.90217289343405 0.17094818994496 -0.119001134308315 0.833020795667365 -0.614937367164584 0.219385948690937 -0.788077164311249 0.290551733412542 0.235543781044751 -0.240653331715735 -0.268071047433163 1.23792691104702 -0.0330970225544117 1.21914346950224
0.121878454368647 -0.114492450135498 -0.0843524517982151 0.155394566521696 -0.100777164522204 0.464977338585454 0.336723323003683 0.320437963998995 -0.759938254529909 -0.489116899466921 0.204127487758 0.439424185916684 0.415332447529294 0.0137893333460595 0.116759904841251 -0.598848697450054 -0.83719240838999 -0.755743501890795 -0.540117275408977 0.589247946098711 0.094044220154415 0.447474819973437 0.591655268744131 0.237524300786038 -0.819674463166981 1.52633743085377 -0.770961853635151 -0.0756780684369875 -0.080077737892122 0.0439362736582896 -0.270473742095285 -0.374320287984682 0.961757149952843 -0.190014709801459 -0.466253376424738 -0.741993763512951 -0.260512265156895 -0.202081404919994 -1.23722294336538 0.205323050109939 -0.201636861413219 0.21455073458544 -0.3157053368566 0.0127989449203245 -0.0133741004001712 0.688823891844946 -0.240799627409983 0.340423909870662 0.112814034859486 0.180071487686077 0.41829487106027 0.376064266357413 0.0385097061314039 -0.294136363586893 0.187315052877726 0.689543286137575 -0.332890581502532 0.315644401743179 -0.533915777789889 -0.387234161156902 0.184589684935673 -0.88885252906217 1.58500637512032 0.125557186870054 -0.477664697686264 0.349065383128438 0.0962142301007296 0.17989562432076 0.199335725273466 0.4340282145016 0.337187663994565 0.410187415653026 -0.643035910647159 -0.165536791918884 -0.49743929898733
-0.41263510459721 0.193061208362345 -0.0368698573828738 0.0737368865537322 -0.074171916983728 2.29158809598922 -0.0588769464047753 0.853458484130937 1.35074788788145 -0.0217108980908406 0.49731922853177 -0.370158959669385 -0.254057514007342 -0.163908770238782 -0.447314126108929 -0.881837020603031 -1.75522694324679 -2.17600164202415 -0.304667853801465 0.517240125527084 0.408537025386984 0.268468796886593 0.968463354861578 0.340829115519405 -0.570377087091637 1.58726405963912 -0.0660672897884995 -0.0225231091596092 -0.513021461640931 -0.476268332281236 0.281838012193283 -0.359817988100574 0.302397313773515 -0.499132626653968 -0.29591685160564 -0.583239795337399 0.241394580373937 -0.42396826436304 -0.0516248965770799 0.142953518976403 0.139250875227958 -0.6572911276452 -0.126285580019095 -0.355377438126308 -0.111365990307633 0.49948332494387 -0.556570270253119 -0.782467791444099 0.226717188455061 0.731731724770385 0.476332866937222 0.12211550995757 0.334489806842114 -0.0311972354106536 0.414187021663082 0.70851107568372 -0.175454560126128 0.289930555209901 -0.729980033092157 0.248100528172489 0.803414558070431 -1.35398901885103 0.841938148151729 -0.0239634404059664 -0.248315472285655 0.691181592225006 0.0871269277852625 -0.128618340711383 0.0953467403425702 0.121280930302861 0.655596000207279 -0.0350508028366444 -0.396581144757414 -0.227503431395326 -1.04662716454987
0.136189464276445 -0.130895565604097 -0.0818672247672818 0.0347157882679184 0.0914085836663024 0.43147922414523 0.307119656508581 0.230390778752803 -0.796874446340052 -0.531956598193808 0.268169263523151 0.434421593081915 0.388225320913187 0.138142216117945 0.174553646044151 -0.603008997324617 -0.705663323294457 -0.577344515946516 -0.576417376625852 0.616655120298628 -0.0319590528835126 0.390032034170622 0.174562644900563 0.270756306186636 -0.379849699584852 1.22411598044557 -1.10572162616964 0.0570380943744386 -0.0318518379371129 0.188258647250117 -0.267505662140279 -0.225098679851738 1.00764874655446 -0.0717959617806601 -0.430584737817833 -0.649653412542686 -0.287294404501422 -0.0509052451742678 -0.927122865613003 0.146346859174443 -0.157701101975296 0.29236821685694 -0.376218789577524 0.0399382103093332 -0.0368765422476373 0.82992878860405 -0.189794109264263 0.301912661078159 -0.0893786987698387 0.236673008969421 0.371770783407945 0.352286459503726 -0.0690893628819808 -0.355674143277736 0.0439383305397553 0.415430149398915 -0.321688805040324 0.271162026055746 -0.432226129227463 -0.273354918808366 0.114343583339418 -0.83711553244521 1.48516869120758 0.139931445882922 -0.232120358955275 0.114536930197194 -0.032399739737539 0.0459877558101431 0.232485455415437 0.514116751021417 0.217476391360216 0.169837473953482 -0.509548674396278 -0.205903862013816 -0.317060564632314
0.337260169066231 -0.173190447852758 -0.048686641403326 -0.103317413132345 1.36010027079581 0.194015344252247 -0.267944035002656 -0.964595903485694 -0.990020501062858 -0.314125394780759 0.410776969303133 0.132140750221396 -0.692667689083975 0.599192710875192 0.107748964250198 0.344323500019448 0.188506501466734 1.56559249940631 0.273960156179648 -0.93292404267683 0.726027221135446 -0.382689738668619 -0.704283412941155 -0.411816979994228 0.611792395403527 -1.95853244974906 0.383120141115317 0.0600899922491724 0.0225441921946327 -0.129868410422163 0.144278150640315 0.0267206900107386 -0.58051082785278 0.635999576263179 -0.00453542363187072 0.319311821396524 0.173950208444151 -0.00907290414520714 0.0389781608852173 0.437131534412977 0.18371396765165 0.483007447293422 0.364794355696654 0.315908711011521 -0.481824483340461 -0.681030625081588 0.858224021376783 0.258748232189873 0.00950536347337078 0.615216845933736 -0.472906102415365 -0.466185756446553 -1.07343578624326 -0.102134449179383 -0.30639769111412 -0.181014310727918 -0.300101834057792 -0.0700967205798078 -0.0164954180243724 0.31533638374369 -0.453054110949151 0.338264955662226 -0.842960932460549 -0.249566827547351 0.070263842198896 0.144120027877639 -0.16336601064202 0.288987475057877 0.157767693512748 0.297103157990983 0.576047395072209 -1.09311011457288 0.460253453189288 0.163611293756805 0.628026589481756
-0.58910139329428 0.488918153295297 0.173736806992084 -0.4001606327281 0.494756868445873 0.0929502163248453 0.0270991562004276 0.625786131345241 -1.26553488830003 0.101167714890504 0.206388000488805 -0.187383187076278 0.0959712609775936 1.10343334553905 0.192638519221144 0.445686875759377 -1.09306409185008 -0.340967697908157 -0.0655271012935698 -0.938414116418969 1.1767686259866 0.903693185947386 0.317182434859157 0.80514953758675 0.211003899608022 -0.112339409461276 -1.12540469624548 0.153507120666732 0.303426525836915 0.107931769590462 0.257720562787573 -0.276603248863074 -0.115718094378873 0.032308979842865 -0.146569516593106 -0.424097590785196 -0.301266028967379 -0.069896174636902 0.323038633502191 1.04713958514501 0.446665437116684 0.152615205441167 0.13655558917734 0.286423058090514 0.171001411752885 -0.550986608404291 0.819322993546529 0.263310652390982 -0.339774192437684 -0.378319379774371 -0.741788332476564 -0.419830847294782 0.836218475015981 0.256316226966865 -0.263960884044326 -0.878170886500602 0.133217270558507 -0.0265545968323832 -0.930930667426382 -0.111854242545554 0.382455254181529 0.101074641004181 0.409014993217577 0.211816367786974 -0.213977378876876 -0.206981667901843 -0.828967710739202 -0.895771621202605 0.419475778131766 -0.729376338381974 -0.264135204748544 -0.113104569366517 0.509380010116091 0.168596145988931 -0.0443304235691545
0.133712207661192 0.152468395526553 -0.0971511396083564 -0.833404404060719 0.467076129011018 -0.62928103006565 -0.186423651872528 0.0291246702237766 0.37443701600786 -0.685591245511414 1.10540280954245 0.409889682060866 0.442875890126313 -0.5155719946584 -0.416052870262656 1.29953025383458 1.51290213822999 0.887507071473419 -0.244085495551441 -0.238112311775045 -0.286652657484123 0.653916299380351 -1.36241451955491 -0.511634095092316 0.801640497806264 -1.22422859470582 -0.0459756716315321 -0.565711308596878 0.0168378887884117 0.554068845280644 0.0383253581300404 0.421954320297935 -0.0308020570590558 0.330091937158263 0.365421447433509 0.853310131555223 0.0664529550633185 0.0140387302237758 0.731828912419639 -0.781468147051768 -0.0252939856040917 0.0596156239611451 -0.15200559719677 0.228800552269633 -0.107487997414237 -0.468018180722309 0.379610587114465 0.28706300533653 -0.305394961399591 0.247019894072446 -0.314616475230695 -0.572692107181284 -0.611693665093174 -0.105368638174015 0.0602260035360919 -1.07226619201983 0.409741843705519 -0.414383968063423 0.851595206633195 -0.0658903979824493 -0.12830518050823 0.139705960252244 -0.196496714630433 0.154595725182454 0.352467207962525 -1.00057924495685 0.886992079776444 -0.0256665382595668 0.0608104149825342 -0.343016351847995 -1.16418308251834 -1.042495918126 0.812141134798851 -0.0449953105029424 0.222212360934993
-0.440988701381532 -0.419524371956393 0.168509242747005 0.0715316525123175 0.226616401263242 0.146247100423357 -0.0468323627619966 0.147813158549305 -0.146409594059147 -0.0206729442812112 0.280195592342921 0.187589389443214 0.844643204389309 1.29344805534051 0.639616602320614 -0.524598104750263 -0.356434160979312 -0.387520324790818 0.822015451385132 0.343642929364484 0.125018026815857 0.158346962755526 -0.0982307452676662 -0.441735092243399 -0.518167521957932 1.00010899043175 -0.946399187379004 0.211495237168141 -0.0507013567989802 -0.0779668632879463 0.496822748767986 -0.331912277255408 -0.0585511878026449 -0.262848625391748 0.0974267617247603 -0.377366786545568 -0.737147236559393 -0.112340180791825 0.583318985273828 0.535439155625423 0.224034500803421 -0.826021999370135 -0.327856107005046 -0.142529287174102 0.225144188354167 -0.569672862299818 0.106043809515131 0.0508445671710296 0.267747859932865 -0.0064696635401793 -0.0114033508458464 0.0850520486067366 0.620461122340724 -0.321009262826093 -0.210116098145389 -0.395432119348637 0.49393154475776 0.376104118435811 -1.23716920733709 0.214839212211004 0.181090158231966 -0.036128865834855 -0.49972500851609 -0.0848594730795104 -0.144968234372057 0.531434407411703 -0.133692667287268 -0.915930859337758 0.459798111054818 -0.192629520364731 -0.108209705698515 0.676780593753083 0.0197933703444408 0.0161894569063494 -0.408963314070751
0.366467885879185 0.121029990764046 -0.0826547532584621 0.156337389563536 0.278162107903892 0.210259308517438 -0.452105117262913 0.103007595361574 -0.660218069970892 -0.28973283747901 -0.391364636250213 0.198121393878153 0.154923283555867 -0.0883926812172183 0.0062292655188755 0.107063765611936 -0.873179606513895 -0.133529145210744 0.303578735065377 0.292964198261627 -1.02624372633495 -0.235530668425407 0.261866207381693 0.0249368595596094 -0.0984983969683905 1.36825092071384 -0.388698917870665 -0.582960316568246 -0.0630688708318739 -0.0374779229661716 0.0164967035752885 0.135632306509424 0.283257003294434 -0.1471852954819 -0.0488928437702626 -0.440762958640672 -0.24310024932937 -0.755852516608478 0.89974397353324 0.507161406345149 -0.491386411054138 -0.0170134950435459 0.293382516529713 -0.112601404737969 0.46174700624357 -0.968205216237633 0.274965199885827 -0.0882592410321309 -0.194999047813219 0.158092680784329 0.0820651996083556 0.258254837748288 0.537804826421163 -0.611108225205998 -0.430306544599597 -0.804273820302728 0.430455925616044 -0.178332908627193 -0.547760389825339 0.032317464478911 0.357194178680889 0.00339205464712417 0.040641663770603 0.269069406274578 0.364173177494012 0.00436315980911826 0.283665037155192 0.0582722232538592 -0.497792311268881 -0.0524587049012385 0.0804073531470006 0.137571431511213 0.799820671929485 0.138752338582709 1.17204911146355
0.339117790139942 0.454199536815364 0.072857569727145 0.773067071815296 0.15208401580265 0.0678223238991089 0.401743145905774 -0.0772346134861567 -0.387702873020899 -0.950022641191019 0.256850759037764 0.265886382206406 -0.150339780319735 -1.13747087714365 -0.643281450872127 -0.793732045680827 0.310349217519915 0.187090338577599 -0.507158578133134 -0.808455460322498 0.209188958824724 -0.378105721212121 -0.566409876964667 0.274857213608877 0.873749619790077 -0.136188950056079 0.455027431605308 -0.18146425354854 0.0981803516717565 0.293185055909006 -0.0855068765208398 -0.793329154023733 -0.517061433949751 0.0468153934899046 -0.373172291016637 0.347488783484978 -0.189904923753227 0.489640375799941 0.115802169408783 0.265473977472533 -0.219991186062219 -0.535944377135436 0.0797393808910141 0.429449339248766 0.116367554701668 0.00810308453412912 -0.11478067065088 0.536566840888994 -0.259682570595668 0.271364114659751 0.00573715662820653 -0.0855837524656203 0.406060025881914 0.555997685875105 0.423062722297765 0.208932362861878 -0.191974403617906 0.402636089572071 0.0479219957184517 -0.190108812128515 0.15769904509383 -0.301721885322215 -0.134705167188759 0.131281745099283 0.613290062220741 -0.556359697013068 0.28467008086137 0.442278366060527 0.323508888027287 -0.553688836429856 0.0808297851780189 -0.568592999530325 -0.0519689100022184 0.26732491368148 -0.101652881806226
0.30062582461118 -0.162414960074316 0.100826015457014 0.267530344717867 0.0558970393813409 1.41324494566586 0.234214264287358 -0.304300700459838 0.709929038344137 -0.165197663587227 -0.636435635133908 -0.299527192798312 -0.0400233137799766 0.0791565121056711 -0.354839049402661 0.403664787415105 -0.138484943992168 -1.22955694614272 0.127533335738226 2.07997715923863 -1.75107718488974 -0.757679541570386 -0.373611949429931 0.126329288750241 0.13636507053158 -0.613560285023297 0.449399289694784 -0.390529285264955 -0.392830164294525 -0.684069410336978 -0.213911558669973 -0.0255253847689831 0.296278091413054 0.311517526192433 0.322440080995672 0.636936999991172 -0.317577870320938 0.13738065575527 1.86931058819098 -0.279588555200356 -0.0507553499374548 -0.01870168050652 0.149610615840144 -0.0731930985162375 -0.0458178059790396 -0.136816298903118 -0.326990931238535 -0.0668121379892665 0.215046443018674 -0.612940906591938 -0.131169387949219 0.0851204399154712 0.432446986874843 0.242243815309089 -0.185169725509 0.355419604196355 0.0432945266409909 -0.0859455064934005 1.00776058948416 0.407179226509438 0.402794983665297 -0.166584773025659 -1.4332298630968 0.283781250958004 0.570829601014092 -0.711027927267188 -0.214021344718205 -0.187328679717437 -0.19868935027287 -0.314950975579054 -0.870743487527955 0.326314474346503 0.183606238484884 -0.105606979313853 0.303231893428223