-6.47242798438917 -0.641500968780083 1.60969224573521 -0.641500968780083 0.726638443031761 -0.758317503218432 1.60969224573521 -0.758317503218432 2.99169124637872
-4.93337767770778 0.543306062577143 -0.5571861444678 0.543306062577143 7.36834061509731 -2.20693302061445 -0.5571861444678 -2.20693302061445 -1.59620941742555
1.46278182234976 1.51474565262861 -4.17529376290597 1.51474565262861 -3.10224066764762 -1.88109065609454 -4.17529376290597 -1.88109065609454 -2.48646927884319
-1.3351034371803 -2.38572280863231 2.05617196021439 -2.38572280863231 -6.41638318543613 -1.05343604537011 2.05617196021439 -1.05343604537011 -2.54345654804602
3.06488969196673 0.0279716138771409 2.10786090288455 0.0279716138771409 -4.15378466075542 2.09587306836577 2.10786090288455 2.09587306836577 0.583407946580368
0.497267254344397 -0.830183466998697 -2.98992471997754 -0.830183466998697 -1.50865828012961 0.781720980346489 -2.98992471997754 0.781720980346489 -2.17870483471232
3.55343788511734 0.810477635949786 4.46522522556085 0.810477635949786 1.24104388004811 0.975105905752086 4.46522522556085 0.975105905752086 -2.98103805472781
-5.16318969220101 4.6563893088609 -0.800075732074994 4.6563893088609 -2.1712666169495 0.0771777233512856 -0.800075732074994 0.0771777233512856 -4.31423473533687
0.0835620945667965 1.62059819765908 -0.686222049321268 1.62059819765908 3.1297802692291 -1.01793824290461 -0.686222049321268 -1.01793824290461 2.14729261189829
0.623928485175908 1.55982121293977 4.6819999334745 1.55982121293977 2.00367277759743 -1.63591005259537 4.6819999334745 -1.63591005259537 0.474287100519898
2.72695560431935 -0.194380099894665 -6.189175064762 -0.194380099894665 -4.45102257729812 0.00281710289702412 -6.189175064762 0.00281710289702412 -3.76364947042423
-4.12846645845901 -2.12280316860557 3.15706258588042 -2.12280316860557 -3.73990490942757 -2.01423450049384 3.15706258588042 -2.01423450049384 2.9542106007243
3.83182968238204 -0.489902205418575 2.61634258893812 -0.489902205418575 4.29789880753701 2.73021175019757 2.61634258893812 2.73021175019757 7.85697212690223
-3.28222692057148 -2.20529084654585 3.03084661682014 -2.20529084654585 -3.29079670365391 -1.58540987024993 3.03084661682014 -1.58540987024993 2.60235746269853
-2.42387222768293 -1.02658117878336 0.921071446519512 -1.02658117878336 -0.864039158809326 0.196761392600143 0.921071446519512 0.196761392600143 -1.67960087306499
-1.05520340894491 -2.68129891862669 3.32524356305974 -2.68129891862669 -1.58009946365084 -2.64612547166186 3.32524356305974 -2.64612547166186 0.922626570385167
-1.03525177590708 2.47936248103315 -1.71668332460541 2.47936248103315 3.03237039170757 2.23037787670107 -1.71668332460541 2.23037787670107 -3.12934334286848
0.36530770677939 1.61090551253411 4.50546171694581 1.61090551253411 2.09544559583178 -1.82907539297181 4.50546171694581 -1.82907539297181 0.969080166595326
-6.88379626710129 0.393169389892523 2.81882460889046 0.393169389892523 1.69262754292713 -0.899624875177807 2.81882460889046 -0.899624875177807 -2.56781816223591
-5.20775393684986 -0.764041436573183 1.2113817595409 -0.764041436573183 2.44849548456225 -0.781855874213491 1.2113817595409 -0.781855874213491 1.54787669274671
-2.68715323997817 0.29034918482815 -1.29233852854882 0.29034918482815 -1.10161896596563 3.30201033726131 -1.29233852854882 3.30201033726131 -4.1787510130169
-1.2148743568784 2.9464194172568 -1.54602237533786 2.9464194172568 1.0772284937838 -0.0438870867837844 -1.54602237533786 -0.0438870867837844 -1.21287948929731
6.03121883171346 -5.85233536114023 3.13655903516477 -5.85233536114023 -3.99845212065399 0.15449027004052 3.13655903516477 0.15449027004052 -1.74614660480009
2.12091466451637 -0.271115589605288 -4.3886836067356 -0.271115589605288 -4.61178914401495 -1.84979907491108 -4.3886836067356 -1.84979907491108 -2.53606041109947
-1.59286957447033 2.22087404416331 -2.6515744275926 2.22087404416331 -1.49421753133848 1.54715277399459 -2.6515744275926 1.54715277399459 4.28053621296482
6.66806937668679 -6.38514457712651 2.19215833903897 -6.38514457712651 -3.37270786238401 -0.0915943595698735 2.19215833903897 -0.0915943595698735 -0.887447572721441
-1.25553329457246 -3.34720956053037 3.49228168490324 -3.34720956053037 -3.63207845929891 -6.32514462265707 3.49228168490324 -6.32514462265707 -2.93573226230914
-2.81688578038699 0.193092976881366 -1.82870407517059 0.193092976881366 -1.41412209539589 -0.587797738447689 -1.82870407517059 -0.587797738447689 -1.03929455203794
0.24343898602468 -0.374684352403203 -3.57961152493681 -0.374684352403203 -0.82345883098783 0.931418729137906 -3.57961152493681 0.931418729137906 -0.753602426302487
-0.279016204703316 -1.33090729643482 -3.63000082319014 -1.33090729643482 -4.3163806867603 -2.98268322827845 -3.63000082319014 -2.98268322827845 2.12331331779224
1.26003786904091 1.41976097920103 4.89817537824354 1.41976097920103 1.80512467355559 -1.11299119619509 4.89817537824354 -1.11299119619509 -0.501986917646077
-3.06394967762595 2.84171875965 1.23409084237712 2.84171875965 -3.34764872185058 -1.64545445650283 1.23409084237712 -1.64545445650283 -2.87245282277433
-1.30814341033979 -0.360184721152561 -0.587773968034673 -0.360184721152561 7.96958171473276 -1.22106578544577 -0.587773968034673 -1.22106578544577 -2.16110832691536
-0.218758363310153 -2.53597658207696 3.25436824430537 -2.53597658207696 -1.31255017986092 -2.02283968048524 3.25436824430537 -2.02283968048524 0.194451878497914
-8.79492755047447 -0.323905260170927 3.65293154526101 -0.323905260170927 1.50705919662862 -2.19310853240732 3.65293154526101 -2.19310853240732 -3.39425720554117
1.6985420068364 1.94667239036522 -0.83392273227209 1.94667239036522 -1.15879447153146 1.22786169168897 -0.83392273227209 1.22786169168897 2.38409811802941
-1.55078998091944 2.41001145683426 -1.3857565876797 2.41001145683426 2.60909935979013 1.57174660228321 -1.3857565876797 1.57174660228321 -3.24041757837389
-1.0337086326806 -1.59780232201975 -1.96460215942255 -1.59780232201975 -5.63537932009749 -1.63670533507762 -1.96460215942255 -1.63670533507762 -4.28211022301294
-6.72892315968065 -1.29785009867496 2.05304510382729 -1.29785009867496 2.24071332367054 -0.366292188127777 2.05304510382729 -0.366292188127777 -1.23680140065367
-4.12689529865845 -0.364520720386235 -3.47336172139456 -0.364520720386235 -2.89533600763924 -1.24197416874453 -3.47336172139456 -1.24197416874453 -1.73407714126595
3.0937043741938 1.23281004844132 -4.57826721147472 1.23281004844132 -1.17052069862534 0.2361804513856 -4.57826721147472 0.2361804513856 -2.43447542197465
0.226654642743867 -2.44733048772247 3.14888057240587 -2.44733048772247 -1.11708359638049 -1.66483231634483 3.14888057240587 -1.66483231634483 -0.129516938710781
-0.690558228872141 -1.4674362363533 -2.41973831003988 -1.4674362363533 -5.40751645350685 -2.83184564017326 -2.41973831003988 -2.83184564017326 -1.36719391280734
0.828999083032931 1.91327724877759 1.55799192747776 1.91327724877759 3.26336146971693 2.52120990966841 1.55799192747776 2.52120990966841 5.33191156261815
0.789891038147896 -0.850013978059416 -2.46504053637231 -0.850013978059416 -1.72283320918872 -0.0912210122795471 -2.46504053637231 -0.0912210122795471 0.993065110952342
-0.87611232418253 -1.53806385800933 -2.10266957803807 -1.53806385800933 -5.64883850925307 -2.1749836111452 -2.10266957803807 -2.1749836111452 -3.28472588844307
4.23378531725982 0.519519495911995 -0.762360026568177 0.519519495911995 0.475728580547766 1.41524276472578 -0.762360026568177 1.41524276472578 2.62546442570085
-4.96374409909252 -1.96320794247355 3.07769280064631 -1.96320794247355 -4.20646592623155 -2.2889804394779 3.07769280064631 -2.2889804394779 2.75192030364197
-8.98549662746396 -0.175304836653874 3.77130148596411 -0.175304836653874 1.4631211366881 -2.30143785555855 3.77130148596411 -2.30143785555855 -3.62970911789752
-1.14023571688857 0.377894212685293 -0.0982961824903943 0.377894212685293 3.63259003292279 -1.25382241665525 -0.0982961824903943 -1.25382241665525 0.742682267705201
-1.2092028860917 -1.97793047492957 2.6989632863578 -1.97793047492957 -6.53979565540543 -1.56270535395145 2.6989632863578 -1.56270535395145 -1.06611855386275
-0.632302212532697 -1.4484455969912 -2.56541999005557 -1.4484455969912 -5.26732812290454 -2.98324083534149 -2.56541999005557 -2.98324083534149 -0.679655241665102
-2.10190024899906 -0.113462901430449 -1.80122356020838 -0.113462901430449 -1.95439847713948 -1.92603275178187 -1.80122356020838 -1.92603275178187 0.544621926866155
-6.67045782347244 -0.0398474183003133 -0.442306343133477 -0.0398474183003133 2.40678406533892 -3.06825120912412 -0.442306343133477 -3.06825120912412 -3.80941318950995
-1.81925103578443 -2.14768725103594 2.33903704600855 -2.14768725103594 -2.35617284854342 -0.46837860261954 2.33903704600855 -0.46837860261954 0.79967078496019
-2.06530742849546 0.207916855217664 -0.853449186655364 0.207916855217664 8.8117143401772 -1.64947371806014 -0.853449186655364 -1.64947371806014 -2.42569664420608
3.25207793314219 -0.135919667765009 2.2846497096383 -0.135919667765009 -4.40539629050116 2.20269814525058 2.2846497096383 2.20269814525058 0.0959432948929472
-2.88149274147741 -2.78625927032376 2.3373014777423 -2.78625927032376 -1.67066717966679 -3.15903028598231 2.3373014777423 -3.15903028598231 2.76993353241171
5.26528648058026 -4.57339334382578 3.76178849132786 -4.57339334382578 -4.2528094270891 0.984070883653728 3.76178849132786 0.984070883653728 -1.91944547615758
-1.67688041076176 0.0732521548975033 -0.845369463276592 0.0732521548975033 8.77837985987918 -1.53631546487737 -0.845369463276592 -1.53631546487737 -2.45889665899187
-0.278052431059416 -0.178373257660757 -2.92741993455008 -0.178373257660757 -3.81666308671179 0.424948055015334 -2.92741993455008 0.424948055015334 -1.36927706616052
-3.30554581239337 -0.856993358768651 1.60579486493528 -0.856993358768651 -1.31538515531933 -0.666234039707191 1.60579486493528 -0.666234039707191 3.10624503128438
-1.68372789565049 1.24166806204341 -0.283871755894742 1.24166806204341 3.71416938628693 -4.16273009979999 -0.283871755894742 -4.16273009979999 -0.99680158558459
-0.336028670628821 2.76698608470919 -0.866323916464928 2.76698608470919 3.22114983485596 2.92449952406645 -0.866323916464928 2.92449952406645 -0.220518815100164
2.85278340955804 -2.53871551125807 1.19607524602571 -2.53871551125807 -2.2639061002456 0.840131627952413 1.19607524602571 0.840131627952413 -2.33195414487726
-0.736928632631312 2.24439176387712 -2.5660479097162 2.24439176387712 -1.82911927708489 2.79408771460211 -2.5660479097162 2.79408771460211 3.91988422503887
1.77664729908409 1.98144814047707 -0.985604049203712 1.98144814047707 -1.70240699407914 1.31328539543248 -0.985604049203712 1.31328539543248 2.08128855065615
1.48693067909732 -3.47212737059058 1.23517522020254 -3.47212737059058 0.440572053065874 0.280602438559812 1.23517522020254 0.280602438559812 -2.87420815571546
-8.95973944597457 0.119039939494791 1.90265503292507 0.119039939494791 -4.61874965239787 -0.690431649069785 1.90265503292507 -0.690431649069785 6.38649275389551
-6.48923863388333 1.10675358295679 0.41204674761161 1.10675358295679 -4.57829719568456 -0.147301735861155 0.41204674761161 -0.147301735861155 2.82461031333756
5.2426640286424 -2.40444959025581 -0.0803268237279224 -2.40444959025581 4.21983580650686 4.78480113339325 -0.0803268237279224 4.78480113339325 2.50351933952025
4.34776677275554 -3.75712675834347 -2.48355922726744 -3.75712675834347 -1.37816003362817 0.781367519065973 -2.48355922726744 0.781367519065973 4.53849427740944
-1.45426096108967 2.10257659933768 -1.29663127649603 2.10257659933768 2.52715978203344 -0.127120713381964 -1.29663127649603 -0.127120713381964 -0.0330513854793106
-2.13050655669635 1.55574515296285 -0.529385503438748 1.55574515296285 3.45072917955788 -4.59809122986798 -0.529385503438748 -4.59809122986798 -1.43474275217685
-5.55348678621787 1.34255742249313 -0.0119515497551317 1.34255742249313 -3.96393066878535 -0.0318707993470179 -0.0119515497551317 -0.0318707993470179 1.98594918431105
0.328855152147281 1.13157245266426 0.0233046958214608 1.13157245266426 1.19889712948182 -0.854505513453564 0.0233046958214608 -0.854505513453564 5.20212598947943
2.24793939122745 -0.334799483799833 0.376649419274812 -0.334799483799833 1.01436272175068 0.550027723385439 0.376649419274812 0.550027723385439 -3.47753035256374
3.4935946762256 -1.46548795084003 1.43869658062358 -1.46548795084003 1.89147073728165 1.21632820782701 1.43869658062358 1.21632820782701 -1.02343034226854
-6.17908474288979 -1.46495706436412 1.51250590262015 -1.46495706436412 2.47480381970632 0.230951500100681 1.51250590262015 0.230951500100681 -0.756252951310073
-1.74996998383363 -2.53024739181115 1.09973881051904 -2.53024739181115 -6.19415869883601 -0.438199268972881 1.09973881051904 -0.438199268972881 -4.52900147673906
-1.36202614054522 -0.62414639841685 1.88353513122241 -0.62414639841685 -5.71995499349132 -1.14288140510108 1.88353513122241 -1.14288140510108 -1.48408143623562
1.07783261756605 -0.249741704070183 -2.64726206314394 -0.249741704070183 -3.71983696062431 1.16721385902275 -2.64726206314394 1.16721385902275 -3.30973479394064
-5.67299846858432 -1.44730977402613 0.540177033770383 -1.44730977402613 2.74419050067317 0.34188419858885 0.540177033770383 0.34188419858885 -0.702002221102439
-0.809690363882758 -1.51364796547155 -2.19256359704335 -1.51364796547155 -5.60105396046733 -2.42072376830928 -2.19256359704335 -2.42072376830928 -2.6878381151572
-0.0966170359686727 1.69588323660802 2.30863864893565 1.69588323660802 2.17388330929513 -1.49247895035818 2.30863864893565 -1.49247895035818 3.61805374166898
1.96801815421922 -0.848740982951684 1.49590598245234 -0.848740982951684 2.97059344033089 -1.85396858463509 1.49590598245234 -1.85396858463509 0.511896905342735
2.52550550293238 -0.550057743047052 0.319985513984102 -0.550057743047052 -2.58368468729312 -0.0370231173204746 0.319985513984102 -0.0370231173204746 -5.86023057015513
3.18417268275495 0.919534354685798 4.64073536579719 0.919534354685798 1.30710668599965 0.615556055616113 4.64073536579719 0.615556055616113 -2.64714435439851
-3.29112715817005 -2.12202321520731 -0.475037368551771 -2.12202321520731 -5.97352379615999 0.0967141947949713 -0.475037368551771 0.0967141947949713 -7.77411454043107
3.11742458113392 -0.693920450695919 1.87306347217921 -0.693920450695919 -6.06006468784443 0.00521744699771367 1.87306347217921 0.00521744699771367 -0.281742137876538
0.062170429593626 1.16569555488049 0.815986888416341 1.16569555488049 -0.160606943116867 -1.6656494261959 0.815986888416341 -1.6656494261959 5.65750909301997
1.72154866460526 0.667909105967152 -2.13575586210426 0.667909105967152 4.05405294552155 1.66977276491788 -2.13575586210426 1.66977276491788 2.86838484268064
2.32621731587809 -0.248430975482126 -4.74841932682881 -0.248430975482126 -4.66655002809039 -1.51034740776065 -4.74841932682881 -1.51034740776065 -2.93035627898235
-0.17598681620957 2.67657560772466 -0.212760180790675 2.67657560772466 3.13361599608981 2.83154907274503 -0.212760180790675 2.83154907274503 1.2686810780481
2.92272613431459 -0.440625081801219 2.01279623166 -0.440625081801219 -6.30954259147307 -0.242474157440907 2.01279623166 -0.242474157440907 0.208579920379275
4.06462196205828 -1.02817309815535 0.678327186834956 -1.02817309815535 3.77886995815537 1.78928824873788 0.678327186834956 1.78928824873788 -0.152223030116506
0.339697078545711 2.41615527698006 -2.68408536710062 2.41615527698006 -2.1027727608569 4.56916492973457 -2.68408536710062 4.56916492973457 3.4376387455647
5.00010925861589 -3.45428941893845 3.7318481581728 -3.45428941893845 -3.98104323062408 1.77475515014081 3.7318481581728 1.77475515014081 -1.40400150576208
-1.87249991015472 2.4067516327723 -1.12611882708606 2.4067516327723 2.32818520297559 1.16802092297763 -1.12611882708606 1.16802092297763 -3.19241593073931
-1.47534559667942 -1.35263793583375 0.824709627544205 -1.35263793583375 -0.690587300573348 0.707709299761117 0.824709627544205 0.707709299761117 -2.88505686313907
-3.50957106239158 0.609228211127321 -2.35359958486794 0.609228211127321 -5.19926810949256 -2.21561199858697 -2.35359958486794 -2.21561199858697 2.40827391150757
-3.22506860187483 0.483475892697285 -1.78886080297996 0.483475892697285 -0.998235519627924 1.74620116538902 -1.78886080297996 1.74620116538902 -3.79386376975399
-2.707229631546 -1.91325597178506 -1.06414525231849 -1.91325597178506 -3.30822358233727 0.113030972396523 -1.06414525231849 0.113030972396523 -3.23654540471996
-6.70810798976302 -1.10086171187501 0.992205231222408 -1.10086171187501 -6.28206021036205 -1.9186446978393 0.992205231222408 -1.9186446978393 -3.69432034218833
6.59371124147663 -0.491444380399737 -1.25547127138556 -0.491444380399737 2.81138020042441 1.37087116637821 -1.25547127138556 1.37087116637821 -0.837644065377689
-3.34312363285235 -2.62810453749944 1.36454025830708 -2.62810453749944 -1.64290647100173 -2.51075407528503 1.36454025830708 -2.51075407528503 2.63356269853267
-8.57673040144514 -0.174428536012751 2.02971387360292 -0.174428536012751 -3.08223151704349 -0.747267705418261 2.02971387360292 -0.747267705418261 5.95039164898043
5.42005443798322 -4.9328585334454 3.67832907926052 -4.9328585334454 -4.26093418177033 0.738913788549023 3.67832907926052 0.738913788549023 -1.97923336218488
-4.71142510682178 -0.362950805579499 0.933962582510304 -0.362950805579499 2.177704833477 -2.83425278751889 0.933962582510304 -2.83425278751889 1.38013777663033
0.973841754363465 2.94547219147638 -3.38449921188614 2.94547219147638 3.39048594398264 -0.0239469283859868 -3.38449921188614 -0.0239469283859868 -3.00533951244135
-8.90942365047897 0.431389554576629 3.8176857990512 0.431389554576629 1.47968852398823 -2.02730738860623 3.8176857990512 -2.02730738860623 -3.97861868987772
-8.77551504701123 -0.0773260476352096 2.01444267685572 -0.0773260476352096 -3.67199590308739 -0.735588812119558 2.01444267685572 -0.735588812119558 6.23565179007011
0.995442623799894 -0.395914679920412 -3.00046768139684 -0.395914679920412 -4.06943731718195 -2.97501602340196 -3.00046768139684 -2.97501602340196 -0.571248323885167
1.88153132711097 -0.2994629439546 -4.02297388859764 -0.2994629439546 -4.52019538044679 -2.18099427106557 -4.02297388859764 -2.18099427106557 -2.09059036345664
-0.235613782525118 0.0594341073036334 -3.62760319221105 0.0594341073036334 -0.454246391534913 0.570991959452764 -3.62760319221105 0.570991959452764 -0.152830561637915
1.1473811384678 -2.24089461785261 2.82535871890311 -2.24089461785261 -0.595237632867099 -0.888816374869424 2.82535871890311 -0.888816374869424 -0.659878823766694
-2.13813519990667 1.52754548851048 -1.96031433658778 1.52754548851048 1.51469096827056 -2.74015523114292 -1.96031433658778 -2.74015523114292 -1.03907371939352
-0.0726028982634372 -1.21749475549456 -4.21655293760731 -1.21749475549456 -3.8954247337498 -2.580195307516 -4.21655293760731 -2.580195307516 2.58298772667998
4.72787946875526 -0.862330164267493 -0.0617372634925918 -0.862330164267493 2.24843130590762 0.884236935184219 -0.0617372634925918 0.884236935184219 -3.22228684938754
0.280997947639007 -3.68711325687071 1.57568942601313 -3.68711325687071 1.05308576638544 -0.969048996998072 1.57568942601313 -0.969048996998072 -2.99643605846829
-1.98981205474597 0.162344092669462 0.199639357201635 0.162344092669462 3.14157757706309 -0.166731770849717 0.199639357201635 -0.166731770849717 0.781006716085518
4.77050587854889 -4.13935647537318 -2.29918711156867 -4.13935647537318 -1.40779103890167 0.795084313091482 -2.29918711156867 0.795084313091482 4.43034094047367
5.58401796740286 -4.86990207490612 -1.79858988396743 -4.86990207490612 -1.51007887868938 0.738670020605509 -1.79858988396743 0.738670020605509 3.93479902943045
-0.604883232983448 0.0420382169641006 -0.401698517656962 0.0420382169641006 1.03694268511448 2.30976647652753 -0.401698517656962 2.30976647652753 -0.0864118904262069
6.56708758785054 -0.712429501954695 -0.987053164719354 -0.712429501954695 2.93329912257324 1.28157709290174 -0.987053164719354 1.28157709290174 -1.71938293209178
2.06665045239936 0.179595568281557 2.35816789656653 0.179595568281557 -6.26762504959403 -1.06716207239766 2.35816789656653 -1.06716207239766 1.88965771844073
1.94277756870886 -1.75476683625316 -1.38147016456577 -1.75476683625316 -0.193460318903687 3.713893164306 -1.38147016456577 3.713893164306 -3.79563696102586
-3.2242135950159 0.463445164010222 -1.81681877179468 0.463445164010222 -1.03777598075909 1.31641172353824 -1.81681877179468 1.31641172353824 -3.35784502267529
4.18523546015283 0.589933370971331 4.02825748161111 0.589933370971331 1.17227103330355 1.64573687180843 4.02825748161111 1.64573687180843 -3.52440880854975
2.47388866042802 -1.86683237676164 2.15424398009041 -1.86683237676164 0.510357052639873 0.276667244325826 2.15424398009041 0.276667244325826 -1.09323852854962
-4.65555674646879 -1.59464229244856 -0.62473463693423 -1.59464229244856 -6.26446238679256 -0.382257723055648 -0.62473463693423 -0.382257723055648 -8.13581362802021
-7.72243535473764 0.458582209015841 3.259050262132 0.458582209015841 1.60058547709898 -1.30896281020056 3.259050262132 -1.30896281020056 -3.18781419082857
-1.28372316378766 0.874296506898573 -3.01525673354776 0.874296506898573 0.311334853676077 -0.83164789680596 -3.01525673354776 -0.83164789680596 -0.25589166055568
4.83261020956223 1.85869623444701 1.00721241893683 1.85869623444701 2.73780931830709 -2.1701534413003 1.00721241893683 -2.1701534413003 6.32459070045619
3.88965464050292 0.698922318215368 4.25937441752989 0.698922318215368 1.19779078447779 1.3193424919935 4.25937441752989 1.3193424919935 -3.2742991212046
-2.30645382782757 -0.603266390142047 -4.03044355482833 -0.603266390142047 -3.39857401687783 4.88073713058889 -4.03044355482833 4.88073713058889 -6.78414660293363
-1.96338553637694 -0.384140648421575 0.736980947712503 -0.384140648421575 -2.02883172092284 1.74428309246241 0.736980947712503 1.74428309246241 1.12681256870329
1.65260544937793 2.0426613939516 -1.27024797739453 2.0426613939516 -3.30264474122577 1.28051260751489 -1.27024797739453 1.28051260751489 1.33183575811669
1.73773113017329 0.343383995782745 2.42710051564622 0.343383995782745 -6.01442271401293 -1.35012343796398 2.42710051564622 -1.35012343796398 2.4895339694249
5.26669083823396 -0.896034358111637 -0.240933682958907 -0.896034358111637 2.49097551555035 0.973690669147979 -0.240933682958907 0.973690669147979 -3.01864019310498
2.79705141182397 1.03115935200395 4.77829616186595 1.03115935200395 1.38839146166625 0.250822545082041 4.77829616186595 0.250822545082041 -2.27260427210698
5.05332654395952 -3.82496076552411 3.78644764705831 -3.82496076552411 -4.1046876259599 1.51011964510623 3.78644764705831 1.51011964510623 -1.62363199426858
1.60617903687488 0.440362873818312 1.99817835807731 0.440362873818312 0.636362534419526 0.124727056746227 1.99817835807731 0.124727056746227 -0.0814544044056993
-2.90172149152858 2.33251902866613 -3.08580399015644 2.33251902866613 -0.804149862426953 -0.293078714920667 -3.08580399015644 -0.293078714920667 4.69894799129002
-4.52398070968032 1.60901385311239 -0.55826998621 1.60901385311239 -3.20805859932818 0.0757652124142143 -0.55826998621 0.0757652124142143 0.967003368970892
3.45483246050372 -0.161366600375748 2.70884260302895 -0.161366600375748 4.18230483924685 2.60302843884813 2.70884260302895 2.60302843884813 8.01542293669699
1.9040326032699 -0.269597536746181 -6.59952303493256 -0.269597536746181 -3.5581258235147 0.41282122814259 -6.59952303493256 0.41282122814259 -2.11465567885286
2.93377911540925 0.183735655968448 1.90326174062969 0.183735655968448 -3.85046026855618 1.99712669530922 1.90326174062969 1.99712669530922 1.07045990868574
2.58354948003995 -0.197002683663177 -6.50390288493717 -0.197002683663177 -4.17082824555469 0.357419154646049 -6.50390288493717 0.357419154646049 -3.51790506541387
-1.44651054516249 0.0103878674697486 -3.37086299393341 0.0103878674697486 -4.67454036138685 4.93943098186544 -3.37086299393341 4.93943098186544 -7.96749434929715
0.0228932630921087 1.69664516471516 1.91540301203976 1.69664516471516 2.06039367828978 -1.21334294388176 1.91540301203976 -1.21334294388176 3.7850194978953
9.83163406949147 2.87474680394488 1.11990136362374 2.87474680394488 2.26980008520169 -0.317472038348695 1.11990136362374 -0.317472038348695 6.34194142748535
2.30484363905905 -0.592749684442281 0.857370079282585 -0.592749684442281 -1.89203582310817 -0.629796539719924 0.857370079282585 -0.629796539719924 -5.20508316650878
3.74474688352661 -0.841635857179523 0.380866859419848 -0.841635857179523 4.99122024162793 1.33702911488646 0.380866859419848 1.33702911488646 1.17988824281813
0.10805817214681 -0.239423008874304 -3.63160209920846 -0.239423008874304 -0.697081149731379 0.853871438728711 -3.63160209920846 0.853871438728711 -0.502152682329292
0.564712590580825 3.10492152276948 -3.17077140082308 3.10492152276948 3.16678049912286 -0.0179590576509803 -3.17077140082308 -0.0179590576509803 -2.59608155599171
1.94554831610485 1.48838342473709 -4.31189613449139 1.48838342473709 -2.75337945937402 -1.38707984085446 -4.31189613449139 -1.38707984085446 -2.56375993056807
0.0103676242583704 1.11451960777482 1.49034598714075 1.11451960777482 -1.52663267204504 -2.19016062458075 1.49034598714075 -2.19016062458075 5.73329621487883
6.77065642836773 -6.01541287138972 -0.338839001238783 -6.01541287138972 -1.9860864349719 0.351086194054642 -0.338839001238783 0.351086194054642 2.10447596552521
-7.11637301517164 -0.477639750614941 1.17113592698856 -0.477639750614941 2.91406174774211 -3.18732679737278 1.17113592698856 -3.18732679737278 -0.72105231583217
4.73719199785243 0.280891192180352 3.25935004980445 0.280891192180352 1.20960351227215 2.41667647326339 3.25935004980445 2.41667647326339 -3.99320992126663
-2.57041440820905 3.11443002695199 -0.520259478186489 3.11443002695199 -4.23809547527259 -0.235185791508961 -0.520259478186489 -0.235185791508961 0.686552462081714
-4.55175947721581 -2.05157771791648 3.14308564026202 -2.05157771791648 -3.96885995847631 -2.17158644236285 3.14308564026202 -2.17158644236285 2.92878434660779
-2.52484993351115 -1.87639120741812 -1.1920602964774 -1.87639120741812 -3.60377487777657 0.151766935894113 -1.1920602964774 0.151766935894113 -3.7996921950217
-7.12597243923034 5.7428175557235 1.7620303300209 5.7428175557235 -5.19266964708664 -1.94108790405837 1.7620303300209 -1.94108790405837 -3.12961498969839
1.75895548469109 2.03074744005152 -1.19998712366681 2.03074744005152 -2.78458550491913 1.33588310134702 -1.19998712366681 1.33588310134702 1.54870133054434
-1.27966239151353 -0.556736235268875 1.58434391330247 -0.556736235268875 -5.4510294080057 -0.864187589074075 1.58434391330247 -0.864187589074075 -1.86409694694504
-1.21925050774028 -2.14071172096334 2.53682766933057 -2.14071172096334 -6.51484315080576 -1.41871314840746 2.53682766933057 -1.41871314840746 -1.46928114181605
-0.430900719332229 0.477737754042254 -0.0866485142135461 0.477737754042254 0.213108507930613 2.30672395946873 -0.0866485142135461 2.30672395946873 -1.3090951201452
-6.82893228346876 5.6847366544721 0.931924041716737 5.6847366544721 -4.85894840639532 -1.26845216789223 0.931924041716737 -1.26845216789223 -4.00986205727563
-3.87657457440537 -1.0127518532194 -4.13952556971427 -1.0127518532194 -2.09319406166684 2.3717659081822 -4.13952556971427 2.3717659081822 -3.74900428955254
-1.27005697598056 -1.4441546738116 0.853364125434129 -1.4441546738116 -0.69068267008381 0.784866670549784 0.853364125434129 0.784866670549784 -2.91684995382502
-2.14206926717377 -2.18205456016101 2.54763438175867 -2.18205456016101 -2.59904404417084 -0.756864474401398 2.54763438175867 -0.756864474401398 1.33093903800397
-0.207492863198819 2.71469829351788 -2.15150337912108 2.71469829351788 -0.536023229930282 2.6282429338517 -2.15150337912108 2.6282429338517 -2.21078705432075
1.40659212763617 0.48879726431719 2.46218621972542 0.48879726431719 -5.66276830682362 -1.61979093441282 2.46218621972542 -1.61979093441282 3.08098275646739
-3.0240623614772 1.29936127195547 -1.86993907600777 1.29936127195547 -5.94957037498172 -1.65208209627871 -1.86993907600777 -1.65208209627871 1.94774514019672
-3.01383510332895 0.242672436891422 -2.64330299538721 0.242672436891422 -4.64991701656467 -1.82395734824843 -2.64330299538721 -1.82395734824843 2.01444216430299
-0.173132117769572 -0.802453625217697 -0.0769476078975874 -0.802453625217697 -3.37195410322642 1.20917669553352 -0.0769476078975874 1.20917669553352 -3.64401885972146
0.186563672019349 -0.960254194217237 -0.392332427923043 -0.960254194217237 -2.80394224711433 1.71473963253078 -0.392332427923043 1.71473963253078 -3.85199111051715
4.48055701175789 -2.58265560605539 -1.34794133927734 -2.58265560605539 3.18114156069453 5.28123416728863 -1.34794133927734 5.28123416728863 -0.849203043744726
-2.31461792249116 2.33113405445593 1.24342879220473 2.33113405445593 -2.66381614117484 -0.663004726014287 1.24342879220473 -0.663004726014287 -3.30558584037728
0.041904293901428 -1.14259041371227 -4.51448926298051 -1.14259041371227 -3.71272043966652 -2.31311702335883 -4.51448926298051 -2.31311702335883 2.59247898270168
3.75519090260838 -2.43492205500544 -1.61787043210361 -2.43492205500544 2.27259391800507 5.05922693651129 -1.61787043210361 5.05922693651129 -2.18872438055489
0.331637193678866 2.63639639579242 -2.69604337307279 2.63639639579242 -2.36917793757636 4.88866625789925 -2.69604337307279 4.88866625789925 3.10641457676175
-0.238275309378425 2.75207982332081 -2.38513584687804 2.75207982332081 -2.85692095944732 4.08403880274621 -2.38513584687804 4.08403880274621 2.77590735425866
-8.90320827530078 0.0218167277853216 1.97143885623724 0.0218167277853216 -4.18682839589217 -0.717968678026038 1.97143885623724 -0.717968678026038 6.38238454665135
2.62299942786682 1.55213030505856 0.360315963674309 1.55213030505856 3.11937876243912 -2.02835210320153 0.360315963674309 -2.02835210320153 4.89324196822034