5.2798454418 -0.1903863712 2.5525638961 3.5199981494 4.7736388693 5.1856348126 2.0667927115 1.1547184947 2.3296780860 7.5362529298 1.2956199192 -0.0130509899 8.9874871794 5.0570746709 2.8042194299 1.6270661522 4.4659601729 2.6145536356 4.0916529131 1.4958963501 4.8778179086 9.4544571817 1.7530942080 2.5091652777 6.9472732014 4.6406803716 0.1910224667 1.9604291025 4.6525060271 4.1386170971 3.7875126679 1.2888204382 1.2167496711 9.1085098735 1.5590392751 0.9994984090 7.2398349276 4.8214968245 3.8538878725 5.5481347175 5.1169541666 0.4941779762 0.1370671083 1.3093274594 2.7060914033 5.4993114848 1.0158926710 4.5984571654 10.9387833846 4.8850050503 2.4495587388 2.6567896173 5.5014206912 1.7621701801 3.1221967534 0.7065629261 3.9472793061 9.1420759293 3.1554473196 2.9869784928 7.1137524063 3.1521398983 0.5543109918 8.4417042608 0.6748659213 3.3651163658 7.9065852275 5.4952287608 1.1154928489 1.9423747066 3.0588082417 2.1250316902 3.9662141400 3.0022152364 4.5408362059
5.3365621216 -0.1154020841 2.5527983753 3.1680104144 4.5020094633 5.0895444162 2.3298337707 1.4792833327 2.5155699411 7.8835396770 1.6529063162 0.0242749720 8.7282364505 4.6398981999 2.6226726980 1.4329820776 4.6739571183 2.2875046846 4.2147491246 1.3948489079 4.8567912443 9.6237680239 1.4963597202 2.8252113907 6.8366850873 4.7685508468 0.2644496771 1.8240203291 4.7376078816 3.8269204403 3.9540305488 1.4711089995 1.3095599795 9.2512944578 1.4409281141 1.2833949499 7.1060724924 4.6838537342 3.8138667598 5.2628142223 4.8396978275 0.5452020331 0.4392709620 1.4217211867 3.0392349753 5.7832485177 1.2739710948 4.5896851799 10.6358983308 4.7850045257 2.0832755953 2.2444104721 5.9135174609 1.5779611054 3.4765526607 0.2474446637 3.9735208415 8.9733307312 2.7542769696 3.5101488270 7.4859691679 3.4396346380 0.8663930252 8.7601391230 0.2984998191 3.5621585729 7.6094324886 5.8926773423 1.1577141073 2.1400312699 3.4592783775 1.5748389328 3.5101865877 2.6954620605 4.2498465134
5.2797472577 -0.1303997866 2.5804686057 3.3360940833 4.5703722900 5.2133593758 2.1453599747 1.3043527580 2.3560160136 7.6866469619 1.5030115432 -0.0178078062 8.9246018008 4.9111586708 2.7218894718 1.4915148162 4.6162829923 2.4739141866 4.1498481358 1.3577212927 4.8876967541 9.5639942591 1.5608852893 2.6650118402 6.9291053630 4.7847249840 0.2102878724 1.8555194548 4.7903322100 3.9164300890 3.8057574755 1.1858138679 1.1668327081 9.1764982942 1.3006140560 1.2423729355 7.2881301488 5.0101622550 3.9526427380 5.4392783920 5.0770576504 0.4965366845 0.2760131771 1.3118410477 2.9783943775 5.6402203606 1.0461621863 4.6123625450 10.7787022254 4.9094511319 2.1365765032 2.3723505975 5.6546749333 1.5349824965 3.3345463748 0.5549729953 3.8064141690 9.1233768144 2.9797864266 3.0709883766 7.2968147703 3.3261463161 0.4271855152 8.7142209123 0.5205124565 3.6417387831 7.7155238640 5.6444894667 1.2850534805 1.9222324800 3.2238475384 1.9588889328 3.8073317273 2.8160197589 4.6161655356
5.3011669323 -0.1284114708 2.5842844178 3.2999278363 4.5109276705 5.1981539432 2.1804234070 1.3746625779 2.3849986385 7.7332224427 1.5705885861 -0.0189282430 8.8788256792 4.8333296627 2.6909494714 1.4626158621 4.6085728616 2.4172827586 4.1468752662 1.3728339606 4.8903311674 9.5894271744 1.5582826227 2.7230426351 6.9252817692 4.7728851679 0.2174884828 1.9197792047 4.8858140455 3.9036438332 3.7582745407 1.1456960424 1.2380240337 9.1230756423 1.2506808516 1.2435657917 7.3071487186 5.0231335499 3.8716089283 5.3618750737 5.0192016172 0.4353125677 0.3673960673 1.3012387549 2.9682982302 5.7072955271 1.1277871130 4.6810185778 10.7111393755 4.9136163978 2.1488057923 2.3059344970 5.6445015693 1.5259135962 3.3184523260 0.5232743081 3.8130265397 9.0679615837 2.9672993134 3.1355006088 7.3724143044 3.3032208199 0.4851450491 8.7905917745 0.5450376037 3.6732354137 7.7153082021 5.6339567914 1.3230203610 1.9627631559 3.2268853980 1.8793807144 3.7472555420 2.8491714782 4.5546504437
5.2900524091 -0.1741837427 2.6009181559 3.5669250747 4.7600734260 5.2314222865 2.0603693602 1.2204988534 2.3928348409 7.5102210052 1.3648817911 -0.1040940080 8.9790860952 4.9751815496 2.7123294703 1.5870379143 4.5414200343 2.6565930520 4.0945131129 1.4418667111 4.9125665548 9.4604338436 1.6408989707 2.4952265359 6.9740038098 4.6799103016 0.1825548021 2.0589913334 4.7922658432 4.1308791903 3.7646856990 1.3428249471 1.2672734054 9.0397253350 1.4161148259 1.0031788687 7.2579276541 4.8031705897 3.8363245033 5.5705542046 5.1543441251 0.5545101082 0.1673606645 1.2333650024 2.7096719922 5.4975676422 0.9568806160 4.5504121180 10.9001787465 4.9757940405 2.4150179511 2.5474743460 5.5533650337 1.7314145430 3.1364531012 0.6441574884 3.9799579398 9.0500720827 3.0232649356 3.0328429258 7.1033817945 3.1867367314 0.4758176375 8.5132040966 0.6140501293 3.3766309278 7.9447930398 5.5420286160 1.0857278310 2.0122183036 3.1480887886 2.1538203258 3.9194685068 2.9476013118 4.6342675250
5.3439181879 -0.1237642502 2.5546718027 3.1630847602 4.4964336421 5.0967834536 2.3195885667 1.4763830298 2.5046140622 7.8873164026 1.6544681100 0.0206778563 8.7339068889 4.6468240590 2.6269297281 1.4562821347 4.6651648274 2.3054162383 4.1970510717 1.3935138087 4.8745794975 9.6104795147 1.5057708281 2.8063392715 6.8506495770 4.7719494579 0.2496515152 1.8506819851 4.7523731847 3.8026966676 3.9158152156 1.4494784114 1.2923908112 9.2251534220 1.3941274451 1.3093412815 7.1378676737 4.7326425712 3.8328430869 5.2798334190 4.8514967090 0.4958643192 0.4118457277 1.4343810250 2.9857654155 5.7634397377 1.2462458572 4.6442635840 10.6615564281 4.7917797182 2.1423846956 2.2587168107 5.9015312906 1.5445200249 3.4808697880 0.2906145502 3.9311971628 9.0082848168 2.7858731750 3.4782933283 7.4879284027 3.4261994140 0.8103247699 8.7520853492 0.3116309822 3.6004645261 7.5979511539 5.8608477121 1.1879916558 2.1109751618 3.4213407952 1.6112260659 3.5109517067 2.7109045243 4.2982034946
5.2635658088 -0.1533873277 2.5519481014 3.4082572488 4.6609890707 5.2055589433 2.0916895582 1.1966701074 2.3168738365 7.6092404598 1.3926360822 0.0009240672 8.9862760028 5.0227429527 2.7792234500 1.5442300330 4.5704119847 2.5087800153 4.1424408323 1.4061133716 4.8482834941 9.5168121574 1.6232424441 2.6261529231 6.9297549395 4.7550712123 0.2333658002 1.8207566493 4.7170032755 4.0260275548 3.8236518633 1.2131030685 1.2023594122 9.2036239687 1.3338176459 1.1247553389 7.2797804579 5.0016309508 3.8876519499 5.3867829806 5.1448559664 0.5742876145 0.2657222852 1.2542386775 2.9399746904 5.6642824209 0.9543351674 4.5295709183 10.8096999998 4.9678950120 2.1834737917 2.4789689915 5.6406501219 1.7170172529 3.2646561567 0.5407625505 3.7907712437 9.1180121172 3.0333697874 3.0663886388 7.1951212066 3.2634162908 0.4115296208 8.5820574531 0.5694356261 3.4286726961 7.8115019346 5.6552833266 1.2670873648 1.9570315686 3.1804876920 1.9993267887 3.9008539493 2.9017862281 4.6733539455
5.2756759803 -0.1914190477 2.5372681101 3.5034734950 4.7672127320 5.1811018232 2.0713528459 1.1413750075 2.3118540941 7.5384312872 1.2943407824 0.0008580338 8.9928992122 5.0753021330 2.8179477172 1.6299059530 4.4785100815 2.6320643664 4.0936557511 1.5042869315 4.9083745312 9.4443404297 1.7274819674 2.5041678135 6.9555566076 4.6270542786 0.1709662656 1.9104934335 4.6607911824 4.1013624340 3.7835638292 1.2604291688 1.1772343868 9.1659329046 1.5418101353 1.0361009273 7.2279497374 4.8609215357 3.8840873631 5.4716268905 5.1350188742 0.5169657663 0.1398856973 1.2961420252 2.7412708148 5.5741918794 1.0300625602 4.5760269865 10.9245341679 4.8999392753 2.4084601249 2.6369850146 5.4772342240 1.7838444580 3.1223228676 0.6822282705 3.9301417000 9.1428362993 3.1371200191 3.0163048872 7.1106686301 3.1612035681 0.5428357784 8.4634088680 0.7190481807 3.3478821549 7.9058138063 5.5189128044 1.1433973990 1.9560194415 3.0880413298 2.0691409390 3.9904758648 2.9735826001 4.5381933895
5.316372433224 -0.095451711179 2.551506835062 3.194069498734 4.512732275512 5.095148496585 2.357612260006 1.474862947594 2.529929864463 7.859635894494 1.653332398957 0.021350040484 8.714801910165 4.633335921451 2.615784980811 1.421584638349 4.734277573374 2.271153261216 4.232895238656 1.373351040858 4.838802763203 9.626783003252 1.487386206518 2.831860408909 6.826147834466 4.737114292974 0.291185746688 1.652154667879 4.665438544280 3.840924954916 4.056028634841 1.485070372660 1.310768402298 9.396212973722 1.556225235613 1.262088715209 7.003014581747 4.625395431597 3.819209895836 5.248878688224 4.834817715593 0.625431625596 0.441281187995 1.414676868497 3.156492402622 5.799488953377 1.386846064299 4.477582044529 10.617751203683 4.695788700549 1.973491001391 2.288203661314 6.002944948546 1.540103796726 3.425928075799 0.162112243943 4.072798454856 8.942490144448 2.711591031097 3.554158397738 7.483019597448 3.447642361401 0.989572906743 8.760163492933 0.218712183600 3.562914979277 7.633104315879 5.948353325103 1.057184949157 2.105877425420 3.510072513584 1.548860378266 3.576023547407 2.662823207644 4.140410497270
5.2645561021 -0.1471150418 2.5593509060 3.3949603003 4.6442852087 5.2112457385 2.1021081676 1.2128463056 2.3238441874 7.6226517508 1.4131003438 -0.0048963988 8.9754727180 5.0052614179 2.7685356121 1.5468482794 4.6012874004 2.4734538318 4.1480591728 1.3862274116 4.8386483622 9.5073096888 1.5952244707 2.6638364215 6.9264055078 4.7721085117 0.2444386467 1.8217661288 4.7216892458 4.0386868665 3.8198199997 1.2053413577 1.2222044909 9.1981325189 1.3202196017 1.1133526051 7.2912241218 5.0135290508 3.8771022828 5.3959953870 5.1387099274 0.5660304605 0.2801321576 1.2690106358 2.9553833064 5.6603811603 0.9585242003 4.5399677720 10.7985629692 4.9511886855 2.1681016952 2.4429542596 5.6323275779 1.6867066124 3.2843908427 0.5424957212 3.7846927782 9.1275081661 3.0342575013 3.0617236107 7.2192022115 3.2568053309 0.4082752770 8.6267689532 0.5676991758 3.4544543109 7.7876623044 5.6573395998 1.2696502420 1.9409474615 3.1803041275 1.9997462182 3.8755109114 2.9050306502 4.6716284225
5.3481457477 -0.1360742251 2.5668505786 3.1857844794 4.4830463795 5.1411276694 2.2849394630 1.4538053250 2.4659716320 7.8615962210 1.6502484517 -0.0031554166 8.7661702438 4.6883118373 2.6445264114 1.4957918808 4.6964812099 2.3122364504 4.1550341234 1.3804367179 4.8857110584 9.5720239001 1.5033012170 2.8023439458 6.8825856686 4.7588378426 0.2283924196 1.8846860107 4.8058393117 3.8500351278 3.8219838438 1.3180323795 1.2892256285 9.1785933292 1.2861590097 1.2780583967 7.2123932840 4.8941410283 3.8409242542 5.3231387008 4.8935253868 0.3826411366 0.3799554470 1.4271874477 2.9014792447 5.7120488867 1.2375701089 4.7590306394 10.7035444818 4.7847089815 2.2402536146 2.3083976924 5.7561577274 1.4295800070 3.4191157525 0.4089994387 3.8486584431 9.0603597553 2.8726588571 3.3726169502 7.4795411969 3.3734650829 0.6782603336 8.7831893403 0.4589725489 3.7057513759 7.6146222763 5.7400561327 1.2637417096 2.0078161660 3.3402124539 1.7159735898 3.5948411992 2.7717754357 4.4100447168
5.3283043448 -0.1069653404 2.5519826845 3.1788453314 4.5103966722 5.0912780485 2.3414319377 1.4759768858 2.5225668728 7.8733847349 1.6482796589 0.0219178697 8.7226774988 4.6398203503 2.6196877691 1.4296681124 4.7257906099 2.2758503356 4.2259124778 1.3766033601 4.8503742498 9.6285157225 1.4547959214 2.8366708483 6.8265110404 4.7732578242 0.2732161400 1.7496970071 4.7139553648 3.7939570579 4.0117972548 1.4893813943 1.2545615045 9.3205657778 1.4889264378 1.3190403174 7.0496816298 4.6426721297 3.8702704115 5.3153002917 4.8300211881 0.5759548383 0.3929588878 1.4199756330 3.0844762475 5.7396349055 1.3180733762 4.5479750480 10.6557862561 4.7550482030 2.0346722218 2.2131715435 5.8707608139 1.6116999886 3.4888019630 0.2580326783 4.0461483779 8.9556310434 2.7209770398 3.5319853592 7.4684207128 3.4847013504 0.9096398640 8.8077205789 0.3462722949 3.5116385350 7.5893547335 5.8667590714 1.0870940698 2.1376818911 3.4969282048 1.5567421462 3.5442198099 2.6450916664 4.2130393314
5.2661781457 -0.1776430961 2.5281114675 3.4538051405 4.7243331196 5.1834909700 2.0662195605 1.1514401210 2.2998271781 7.5669232048 1.3240652666 0.0160088910 9.0109784682 5.0719119206 2.8113995119 1.5445196044 4.5014544899 2.5782527865 4.1552268906 1.4206921031 4.8519132692 9.5248730490 1.6880497668 2.5506996750 6.9081766550 4.7297902295 0.2288258796 1.8803542176 4.7164438723 4.1112431971 3.7928281173 1.2201023746 1.1853714328 9.1801407065 1.4117484957 1.0352897956 7.2366361593 4.9470987264 3.9002440022 5.4856850717 5.1216684298 0.5491184666 0.2047171084 1.2298433368 2.8652203379 5.5801337312 1.0217460430 4.5397795779 10.8814030478 4.9858243887 2.2639089431 2.5514243890 5.5421400058 1.8123420382 3.2281905552 0.6217138852 3.9068017859 9.0869695573 3.0601501061 3.0889734970 7.1309997730 3.2087636274 0.4702596801 8.4884201493 0.6767948098 3.3623340447 7.8319053822 5.5678812949 1.1717124371 2.0140193328 3.1558704512 1.9726932121 3.9771808971 2.9523832383 4.6061133214
5.3466733600 -0.1274100683 2.5562098341 3.1638598903 4.4954174796 5.1045755103 2.3145505528 1.4719672909 2.4978991774 7.8858363776 1.6531469298 0.0158349782 8.7376427908 4.6538096147 2.6295271610 1.4721403011 4.6820601477 2.3099150511 4.1881292675 1.3850457889 4.8826704117 9.6007902260 1.4928293207 2.8016086627 6.8569925241 4.7774267720 0.2431702237 1.8486272603 4.7579285914 3.7805477344 3.9055046455 1.4365818729 1.2616375204 9.2262530601 1.3724793730 1.3350112062 7.1435670161 4.7576115563 3.8661983125 5.3171065878 4.8574626881 0.4665608535 0.3744904532 1.4428098482 2.9595626071 5.7268129604 1.2406490122 4.6743950627 10.6908171580 4.7868269900 2.1718682438 2.2550035074 5.8620898726 1.5335381010 3.4884062989 0.3337028027 3.9257947630 9.0276486200 2.8003868690 3.4604990838 7.4822393524 3.4341441211 0.7795400479 8.7684122420 0.3533696830 3.6084769424 7.5813744737 5.8204095716 1.1855079949 2.0880896711 3.4042836136 1.6328985071 3.5256998505 2.7032936803 4.3249343016
5.2665847550 -0.1414726047 2.5662620583 3.3802625613 4.6277797010 5.2154440272 2.1126703960 1.2318647981 2.3313026506 7.6377877001 1.4339641422 -0.0100943667 8.9640132645 4.9852486358 2.7572218910 1.5404253188 4.6249611825 2.4517574816 4.1547257506 1.3648702526 4.8369263696 9.5095422769 1.5713438164 2.6867318707 6.9216285135 4.7896743669 0.2479613442 1.8260717744 4.7302349754 4.0339298178 3.8187262926 1.2016497210 1.2190462694 9.1931670367 1.3124446949 1.1205287432 7.2938724733 5.0164897152 3.8906239668 5.4257572597 5.1255842235 0.5511833596 0.2791467037 1.2854384926 2.9664582094 5.6379855809 0.9745091157 4.5559297278 10.7986341755 4.9335501394 2.1561531036 2.4115170938 5.6243640435 1.6514450398 3.3104129608 0.5531758154 3.7939076799 9.1341161688 3.0285374624 3.0592278082 7.2410049056 3.2635530958 0.4087072993 8.6650428675 0.5652989182 3.4909941874 7.7563833184 5.6500543746 1.2619524225 1.9281550949 3.1856176343 1.9958223864 3.8541071839 2.8918606122 4.6630046605
5.2735970230 -0.1906560084 2.5314251103 3.4952983843 4.7609568839 5.1793483823 2.0723616736 1.1379264461 2.3055729755 7.5402973890 1.2972847853 0.0063980359 8.9963614249 5.0810493768 2.8209700914 1.6323809881 4.4870058867 2.6241862604 4.1020316061 1.5083317282 4.9005636282 9.4381675144 1.7124388378 2.5183883046 6.9524103454 4.6220312608 0.1876853899 1.9016424121 4.6737784336 4.1090526004 3.7713579293 1.2398627110 1.1986951441 9.1755769203 1.5192425965 1.0217166255 7.2343497002 4.8904797376 3.8585953572 5.4377299513 5.1424774555 0.5293540103 0.1671710127 1.2771437069 2.7688703650 5.6143093386 1.0299602420 4.5621469612 10.9007942421 4.9211814143 2.3767213465 2.6086905205 5.4607175178 1.8063652924 3.1252042226 0.6651389114 3.9171954379 9.1326940295 3.1261714376 3.0369950522 7.1113156771 3.1704254222 0.5295832385 8.4832208938 0.7432590781 3.3339474457 7.9024726937 5.5329097284 1.1566800033 1.9707631364 3.1030843812 2.0385924363 3.9958539682 2.9636618944 4.5457676224
5.3494823851 -0.1349246136 2.5636825005 3.1769887005 4.4882319506 5.1326364115 2.2944341192 1.4572986195 2.4745704960 7.8708840457 1.6501450112 0.0002296625 8.7567139837 4.6794757166 2.6401749558 1.5000768180 4.7135626995 2.2994389601 4.1644821987 1.3747927716 4.8835864405 9.5694891935 1.4793678073 2.8151666316 6.8746539288 4.7697632038 0.2352993175 1.8713638889 4.7878362283 3.8299318829 3.8475395576 1.3564163771 1.2682145322 9.1952130962 1.3068080253 1.2956866657 7.1883563160 4.8569833005 3.8653788363 5.3487884105 4.8824105642 0.3960856075 0.3586073435 1.4413916735 2.9087006034 5.6896888102 1.2387893290 4.7456767253 10.7173369762 4.7770239270 2.2321694761 2.2795267578 5.7572154319 1.4659399832 3.4515116305 0.4098772644 3.8780125123 9.0599337778 2.8542981067 3.3989408119 7.4780586381 3.4029655365 0.7008694265 8.7989168873 0.4641707232 3.6641796269 7.5886286067 5.7430078627 1.2272433245 2.0225009368 3.3545282805 1.6959156832 3.5781597653 2.7380371425 4.3915722679
5.2878534005 -0.1818436454 2.5855115811 3.5567032258 4.7702566002 5.2037603243 2.0665627027 1.1875330031 2.3684216316 7.5197979112 1.3255025617 -0.0570767552 8.9724297550 5.0179838185 2.7562391587 1.6491087272 4.5103557315 2.6341211238 4.0588040785 1.5064734333 4.8968390663 9.4301551489 1.6886242939 2.5014517738 6.9983950936 4.6365827502 0.1912561994 2.0367968172 4.7009493749 4.0847710105 3.7788006809 1.3567939155 1.2455723261 9.0436967933 1.5121331305 1.0436034753 7.2671334021 4.7731154627 3.8173403275 5.4801558330 5.1584417949 0.5217305633 0.1537649646 1.2699304253 2.6972002972 5.5489046396 0.9326837672 4.5707019817 10.9173939546 4.9419732349 2.4427139457 2.5443427234 5.4629074193 1.8168197965 3.0858851764 0.6707992588 3.9290785906 9.0864205717 3.0943243744 2.9976804239 7.1150141259 3.1599138172 0.5145423831 8.5361152923 0.7105693865 3.3025743258 7.9594581228 5.5286962689 1.1143388629 1.9770768807 3.0889540299 2.1685116983 3.9204865667 2.9769980493 4.6021503503
5.2697881914 -0.1367377863 2.5722322956 3.3648998220 4.6105021636 5.2173661657 2.1232227594 1.2539285789 2.3391393354 7.6540361951 1.4556655556 -0.0140809685 8.9519062482 4.9625332299 2.7454984046 1.5246032998 4.6332994537 2.4492225195 4.1585717909 1.3509114827 4.8469848967 9.5254102856 1.5594147509 2.6894940174 6.9188960651 4.7995242437 0.2406912900 1.8328361974 4.7441978578 4.0060207060 3.8191599509 1.2000334513 1.1966825025 9.1890439272 1.3087058724 1.1509093644 7.2899204088 5.0130976266 3.9212899065 5.4570081111 5.1087395601 0.5325472320 0.2685833443 1.3000764613 2.9731329720 5.6146842388 0.9976488980 4.5749315455 10.8023565125 4.9190165644 2.1473944773 2.3922046272 5.6275506861 1.6095770082 3.3328317385 0.5637862382 3.8074803979 9.1366364726 3.0138406381 3.0590223164 7.2596397694 3.2852612845 0.4119322359 8.6888052893 0.5530831030 3.5407396806 7.7284741758 5.6415244335 1.2557629705 1.9199186891 3.1980324539 1.9881152730 3.8374842500 2.8627036238 4.6497318160
5.3169410245 -0.0959978652 2.5515274511 3.1933978449 4.5130591905 5.0950134171 2.3568975734 1.4746459203 2.5295666029 7.8601682893 1.6525357373 0.0212234719 8.7151465057 4.6340589789 2.6160093538 1.4219846591 4.7364511934 2.2722828691 4.2325667190 1.3722033693 4.8405341608 9.6280175273 1.4823296361 2.8314714652 6.8258370653 4.7408711218 0.2892942306 1.6551931570 4.6679809644 3.8324459626 4.0560468146 1.4865090527 1.2992662398 9.3947585170 1.5531147201 1.2718510416 7.0031309157 4.6247748482 3.8303479186 5.2598302831 4.8338227714 0.6222462423 0.4317657715 1.4154916922 3.1522172751 5.7899464008 1.3837694884 4.4817932003 10.6235722535 4.6985967204 1.9765500538 2.2807903581 5.9898782614 1.5468865681 3.4326758363 0.1726269987 4.0751494350 8.9432473418 2.7105503972 3.5531480847 7.4801404165 3.4544707006 0.9845478696 8.7666365307 0.2320093207 3.5566341021 7.6270220361 5.9378839484 1.0547656499 2.1075228196 3.5110194396 1.5491454285 3.5763757921 2.6571995999 4.1452428601
5.3414807554 -0.1360787146 2.5732035015 3.2106262386 4.4752052923 5.1581053284 2.2607077878 1.4456422926 2.4477485820 7.8350613439 1.6445123402 -0.0097030275 8.7902678223 4.7112411082 2.6535196550 1.4813937990 4.6587810878 2.3582802703 4.1400509633 1.3860456959 4.8975111037 9.5901582819 1.5457477175 2.7586509382 6.8961202225 4.7527912607 0.2087769804 1.8924426261 4.8489122162 3.8266126408 3.7992647729 1.2520803233 1.2653916189 9.1678695481 1.2558377587 1.3110491297 7.2383299025 4.9445321326 3.8536626376 5.3224166656 4.9155412905 0.3662556799 0.3827100270 1.3864227655 2.8989197562 5.7144964304 1.2321170810 4.7725370645 10.6931361926 4.8169298033 2.2392235987 2.3340838286 5.7403668646 1.4095318347 3.3759761373 0.4291946827 3.8314859696 9.0543424469 2.8960328463 3.3122226647 7.4643503375 3.3541250363 0.6314409002 8.7746525367 0.4604226489 3.7434046352 7.6499996945 5.7046048858 1.2998612279 1.9911485565 3.3167202474 1.7535973339 3.6405336521 2.8031354257 4.4483395554
5.2634155761 -0.1599074909 2.5446061542 3.4201735269 4.6780984048 5.1992867035 2.0820396093 1.1827870953 2.3106740561 7.5975104413 1.3726406064 0.0065602385 8.9959643553 5.0380751573 2.7890813310 1.5366755819 4.5424688697 2.5453400838 4.1409118514 1.4163114598 4.8596194152 9.5310505814 1.6466917680 2.5860649232 6.9292033342 4.7459793712 0.2199942076 1.8253016842 4.7149023625 4.0141729628 3.8275251186 1.2231406488 1.1699849171 9.2071154637 1.3524809632 1.1379863091 7.2620229824 4.9824721994 3.9153003903 5.4030765462 5.1429666283 0.5747141798 0.2397430194 1.2434865449 2.9212039414 5.6458330389 0.9632458876 4.5260215259 10.8318789368 4.9802425517 2.2019153103 2.5104322851 5.6374833309 1.7449797177 3.2545668971 0.5519883310 3.8145606823 9.1067520208 3.0326148573 3.0733254533 7.1720407536 3.2695952981 0.4196889933 8.5417253469 0.5808906975 3.4086490591 7.8234080901 5.6408478989 1.2499739119 1.9751487711 3.1803612785 1.9939836565 3.9264528987 2.8962944733 4.6665600906
5.3211685736 -0.1000508623 2.5516682039 3.1882833077 4.5140828707 5.0938930467 2.3513766901 1.4739111909 2.5269342189 7.8645473297 1.6484610755 0.0207213531 8.7178083048 4.6380540361 2.6175468685 1.4267630765 4.7464262461 2.2755803995 4.2302238279 1.3672791508 4.8491666774 9.6315200221 1.4538731301 2.8331662379 6.8243520848 4.7627936378 0.2790680278 1.6836264117 4.6865696387 3.7905878442 4.0493272363 1.4932387995 1.2422598342 9.3763564435 1.5293666610 1.3204828887 7.0108682957 4.6247017800 3.8849771463 5.3167824851 4.8289819585 0.6009875371 0.3844581045 1.4192370839 3.1232124778 5.7403050112 1.3598748431 4.5105755291 10.6531969271 4.7200770846 1.9985759374 2.2344390923 5.9092076863 1.5901227623 3.4715072621 0.2324429168 4.0819427877 8.9483113778 2.7069374130 3.5454021346 7.4661236905 3.4885283145 0.9511394884 8.8050755225 0.3131415773 3.5185298103 7.5941044192 5.8805595390 1.0483271005 2.1198602231 3.5133711204 1.5513109011 3.5721640097 2.6314268963 4.1765067950
5.3495833379 -0.1330517974 2.5607594863 3.1706990384 4.4922262145 5.1235651463 2.3023117644 1.4614967107 2.4827905976 7.8776801197 1.6502444054 0.0045970165 8.7488780418 4.6709417826 2.6361362016 1.4976811166 4.7169644703 2.2987837643 4.1730240856 1.3723774688 4.8848008551 9.5757015032 1.4692187033 2.8148419968 6.8677597531 4.7790200464 0.2384112133 1.8573305409 4.7741556254 3.7990490467 3.8738162102 1.3913125063 1.2448416449 9.2128006720 1.3288555336 1.3242467938 7.1655606778 4.8190414694 3.8890515268 5.3645982818 4.8724082785 0.4142587279 0.3416437078 1.4485394514 2.9202876001 5.6776622270 1.2390602223 4.7272247554 10.7242916710 4.7760461866 2.2180725906 2.2574931047 5.7736022466 1.5003002666 3.4781582038 0.4022040282 3.9056533704 9.0549466235 2.8342781214 3.4217391939 7.4758239181 3.4283109394 0.7242247431 8.8034859091 0.4487034672 3.6306520079 7.5703171528 5.7520404071 1.1966125805 2.0414074100 3.3708638856 1.6755473706 3.5621583084 2.7103092821 4.3723012884
5.2695899084 -0.1860761556 2.5254992975 3.4760409320 4.7451509267 5.1786432762 2.0692384229 1.1395198740 2.2992162465 7.5499002815 1.3070658445 0.0141167851 9.0056898663 5.0827193278 2.8197827513 1.6034716460 4.4976199832 2.5898122571 4.1323972424 1.4719112447 4.8661574600 9.4638119075 1.6962361316 2.5496901317 6.9288571010 4.6648944286 0.2262176017 1.9009506637 4.7025402599 4.1465653185 3.7623153874 1.2136973896 1.2308864900 9.1721238631 1.4624431817 0.9848597556 7.2427339180 4.9343167947 3.8374479492 5.4407282183 5.1360520735 0.5427163395 0.2111963430 1.2408928094 2.8243132295 5.6265920328 1.0305290748 4.5453695774 10.8735589960 4.9646567655 2.3126791489 2.5605615115 5.4655807282 1.8334219663 3.1655592709 0.6421382800 3.9105829953 9.1039419831 3.0953555846 3.0735447976 7.1190233134 3.1753220979 0.5023363975 8.4991669109 0.7444842280 3.3316911985 7.8709325858 5.5489047271 1.1636705440 2.0023890247 3.1314385026 1.9898586836 3.9923027237 2.9725468092 4.5686606399
5.3244789219 -0.1032349067 2.5517904450 3.1840360066 4.5131218402 5.0927849872 2.3468377255 1.4744408144 2.5249509383 7.8684657176 1.6474813588 0.0209606801 8.7200257767 4.6395120418 2.6185761597 1.4296492808 4.7431721136 2.2749445853 4.2284977359 1.3691371414 4.8507196743 9.6300605714 1.4463331326 2.8363208246 6.8245211686 4.7712706855 0.2754859462 1.7123277331 4.7000581219 3.7832446951 4.0353039020 1.4935462768 1.2348284437 9.3533474609 1.5105951449 1.3298653714 7.0256225086 4.6304054659 3.8911008264 5.3289800090 4.8282230552 0.5880990109 0.3773749025 1.4200666518 3.1041865313 5.7289900338 1.3404709058 4.5293307387 10.6603767849 4.7368398705 2.0151873120 2.2147412479 5.8750384631 1.6093072407 3.4862155506 0.2544474766 4.0720134299 8.9515925112 2.7104717000 3.5393490496 7.4638796335 3.4948651498 0.9300334918 8.8168226409 0.3455893777 3.5053701452 7.5851819358 5.8632427101 1.0595837158 2.1290402205 3.5087179760 1.5532815240 3.5614560053 2.6303852986 4.1953979037
5.2891384950 -0.1790910400 2.5921305202 3.5619746703 4.7685247118 5.2115607583 2.0650899886 1.1975641356 2.3766306999 7.5152321831 1.3365661990 -0.0720639726 8.9730144861 5.0060590136 2.7420376875 1.6268674802 4.5220772658 2.6480040886 4.0631491505 1.4814309081 4.9173328761 9.4396660381 1.6660248579 2.4959524588 6.9999165400 4.6546914435 0.1718414749 2.0484819649 4.7266353350 4.0840468181 3.7804578073 1.3679955460 1.2219491768 9.0425363770 1.4857091331 1.0515836769 7.2589919623 4.7682343896 3.8526784899 5.4973896631 5.1606404910 0.5326540949 0.1416738203 1.2594463293 2.6991539924 5.5369720629 0.9330855170 4.5619072317 10.9245773944 4.9549712816 2.4338351388 2.5363067454 5.4803906922 1.7992443155 3.0980400520 0.6625260844 3.9442219648 9.0715140596 3.0635109372 3.0091730388 7.1117916820 3.1607175061 0.5024600466 8.5459146792 0.7012532812 3.3087105388 7.9610689874 5.5372659679 1.1067867292 1.9914607555 3.1105278695 2.1654159198 3.9163460830 2.9708382217 4.6136803217
5.2897808964 -0.1722590380 2.6027374664 3.5683311749 4.7526450988 5.2436228121 2.0608231695 1.2318297941 2.4006167281 7.5091515133 1.3820611593 -0.1206465526 8.9804939959 4.9577742731 2.6975882570 1.5889998474 4.5579275787 2.6546787586 4.1044715450 1.4372294132 4.9087893024 9.4565780141 1.6259513544 2.4966706593 6.9641172804 4.6846979827 0.1966348242 2.0424174592 4.8257982440 4.1387719360 3.7583073490 1.3142187320 1.3079936253 9.0504627560 1.3798878905 0.9880215808 7.2616573222 4.8367713465 3.7983362554 5.5823102676 5.1575635408 0.5699705607 0.1908339723 1.2216637110 2.7176484916 5.5035198550 0.9681292939 4.5452219112 10.8731477734 4.9814591073 2.4063148236 2.5444192582 5.5869352591 1.7086814385 3.1478804468 0.6271200313 3.9866700628 9.0470942576 3.0057060757 3.0403750170 7.1017862306 3.1984286944 0.4620961896 8.4992129146 0.5653190132 3.4070857482 7.9381087732 5.5413182360 1.0819444189 2.0137374282 3.1706077766 2.1502553497 3.9254047786 2.9342230380 4.6461925487
5.2935150338 -0.1281827323 2.5839689448 3.3120128867 4.5280882504 5.2032494355 2.1686797554 1.3536772797 2.3749087205 7.7174298669 1.5505380167 -0.0184797758 8.8941196977 4.8583022677 2.7001938082 1.4691690103 4.6021008804 2.4481819493 4.1456508507 1.3731475126 4.8958476632 9.5839065719 1.5646090063 2.6914739771 6.9312373972 4.7687330489 0.2112145115 1.9008424715 4.8563759927 3.8997999383 3.7672789759 1.1524396528 1.2210442581 9.1387647620 1.2693297886 1.2518684501 7.3075692777 5.0247925694 3.8903077995 5.3692745087 5.0416895273 0.4580840895 0.3438574683 1.3034303047 2.9758737790 5.7045585626 1.0983998876 4.6551961258 10.7252679167 4.9149191624 2.1392831851 2.3347210022 5.6592163819 1.5157372371 3.3140446914 0.5275702920 3.7976219470 9.0869602394 2.9702674303 3.1088150409 7.3478955058 3.3080772504 0.4616256101 8.7572259686 0.5246045562 3.6817968940 7.7247310632 5.6464154633 1.3260729797 1.9478225200 3.2263288985 1.9084151373 3.7662360302 2.8402127684 4.5754243600
5.2819611548 -0.1888871719 2.5610535263 3.5292614826 4.7736983236 5.1883459710 2.0655487180 1.1628683657 2.3399474310 7.5342079159 1.3004658319 -0.0214384591 8.9837463692 5.0468295360 2.7941584352 1.6377796979 4.4674984176 2.6074530629 4.0846206130 1.5046627158 4.8620870888 9.4481420816 1.7535235909 2.5141557969 6.9537301406 4.6353559286 0.2104913786 1.9890026530 4.6572426595 4.1481081173 3.7817971088 1.3015520427 1.2540101329 9.0762402126 1.5552618878 0.9829852785 7.2548141940 4.8096234649 3.8134864787 5.5463114963 5.1210923301 0.4935535004 0.1578979788 1.3018607296 2.6994651647 5.5011766854 0.9939843229 4.5983185066 10.9238626634 4.8946313089 2.4560545515 2.6403531656 5.4984081506 1.7710311134 3.1119306491 0.7048350279 3.9416400293 9.1318066240 3.1583964137 2.9820079374 7.1155226386 3.1566195749 0.5491853235 8.4505544714 0.6691999988 3.3588111230 7.9155214021 5.4946607039 1.1108768174 1.9447272236 3.0506535369 2.1453228436 3.9515198485 3.0052735026 4.5531324574