-28926.0670489216
-28926.2274263412
-28926.6527128416
-28926.5294343153
-28926.5577618956
-28926.4139828674
-28926.6371165089
-28926.2261117599
-28925.5981827319
-28926.5488245933
-28926.4889326402
-28926.2767564732
-28926.4219892688
-28926.6347366025
-28926.5436310312
-28926.2957266076
-28926.5375250719
-28926.2309017774
-28926.6669690144
-28925.8489133285
-28926.3384460093
-28926.5760984133
-28926.1335049374
-28926.2733023979
-28926.2661977813
-28925.9174236666
-28926.2601529116
-28926.3830023146
-28926.635623421
-28926.0780360564
-28926.3831821818
-28926.128317906
-28926.1880297198
-28926.5233075393
-28926.5423383551
-28926.0843387539
-28926.4916826213
-28926.5393984387
-28926.2390219223
-28926.4927249528
-28926.4055711527
-28926.4459481997
-28926.4325783013
-28926.3878116521
-28926.4344822808
-28926.2230872162
-28926.689491185
-28926.2520587535
-28926.2098098364
-28926.7032763289