0.00305369764601636 0.0617650650928027 0.0421673555977867 0.188607288658553 -0.494121549183154 0.0910481151894383 0.260943696044326 0.162741232896813 0.160712890661449 -0.227410871729369 0.6903071604919 -0.250923083763797 -0.242239701546157 -0.087173464728424 -0.489383265616729 1.19669800761796 0.856860308965023 0.583638059011195 -0.90619203981803 1.31441359101021 0.708599521586745 -1.10710847849789 -1.37721789546356 -0.18225898112485 1.49561867749407 -1.24227850089789 0.0810845813695826 -0.0248455854445689 0.405579229839306 -0.895028058552754 -0.251131600122383 0.0527404976620395 0.26878144286938 0.0878632913499835 -0.539540320157848 0.624779802088147 0.28330148335613 0.252384498045178 -0.633072633937487 -2.40987729220022 0.797918313683895 0.616937427279795 0.795632604155135 -0.615275209945325 0.484022775406929 2.20414286579714 -0.764322497374051 -0.615801257380178 -0.932683130435159 0.784995698765446 -0.656039515273321 -1.29192107796241 -0.805635475833022 0.980245171897113 -0.592960360034118 -0.733661593805579 -0.730861921020577 -0.43471084203803 -0.397950513593204 0.477997141153158 -0.0139543980836821 0.410642243567129 -0.521576288766965 1.02408297235523 0.911964934761703 -0.788569530312101 0.523447279570203 0.626451789609578 0.534341809363472 0.429776640511996 0.410778511964232 -0.404829239434875 -0.0581331266447411 -0.682365798263011 0.513987938819627
-0.0232993248027282 0.00188873140587995 0.0267335455198992 0.395996733310972 0.207992625142235 0.592366178400714 0.110736584579128 -0.417968855347956 -0.257123038721786 -0.427784550812465 -0.222575400513689 -0.400797237541735 -0.0118874893208358 0.459877815211614 0.0809372572346018 0.780545635714401 1.68367523614019 0.246559409734313 -0.239225084647989 -0.758094517406092 0.435998192725375 -0.323115509446971 -1.30262148956735 -0.28813541191071 0.131539369502862 0.341961685876457 -0.231291178614414 -0.95418036996375 -0.170737359594726 -1.21794276494664 0.403497408685834 -0.0358049070040071 -1.47769526951214 0.873100930797832 0.0282440678462734 1.30571992438524 -0.49934242856347 0.11772663913013 1.5373489457804 1.42325115977613 0.0285045204618678 -0.36009463865771 -1.51599028864056 0.221532818720762 -0.163562185711811 -1.29743377740067 0.309489441067252 0.251793915954338 0.93553705346882 -0.44062360492137 0.201953878269121 -0.40817655691012 -1.16053263213709 0.0847314322082705 0.379135447495888 1.10290781232456 0.629331166551376 0.339947484701169 -0.0669399217503232 -0.19036129432843 -0.328163096563801 0.679036221390408 -0.259434973489234 0.832295487840523 1.27543028792133 -0.311683876480971 -0.657363375606683 -1.17292457163739 -0.820576148579508 -0.598642752193301 0.0255616373048161 0.350585675641775 0.679021308999781 -0.735006022953598 0.234639267420209
0.0991571132577813 -0.105960248705587 -0.122236094633496 0.34691825598843 -0.186984666292298 -0.386366157178376 0.0788348672664721 -0.0735347979497271 0.133230383177851 -0.152856889013387 0.0488277948939098 0.191870788214071 -0.210224084422338 -0.0847430021665151 0.111938574685647 0.382832691930485 0.153200902438526 -2.17761192310161 0.319653006609647 0.236237978539425 -1.51198836863886 -0.776929380987516 0.0679022851660881 2.18308837000404 -0.428028548376334 0.0199280960804442 1.47727283748112 0.509166094443658 0.40785156963854 1.70989070464091 -0.601546297492321 -0.479101943610422 1.96518003353603 -0.578423093165093 -0.500651633616389 -1.89279400388489 0.540062768050136 0.464699402477401 -2.14263542510791 -1.0236147747116 -0.0687808306621256 -0.0462147841019199 1.3281687287019 -0.407452534634193 -0.101882995420202 0.767563628343629 0.0686296498743966 0.102666924368817 -0.629988340179668 0.295649457015099 0.230122355721529 -0.380419198640668 -0.45011688421613 1.06822673393137 -0.430768057378464 -0.363036493374029 -0.18647018881569 -0.453667318736113 0.550226847812898 0.491469971863683 0.318766233587746 -1.34366450233395 0.367063867283872 0.370143790168576 0.709425102385041 -1.16558587567795 0.426214893143952 -0.0174742364918629 0.256723746607257 0.446398813856692 -0.518179091916177 -0.409512758532276 -0.267414645135421 1.57710177964764 -0.14544620220265
0.007998954909928 -0.0662534375611455 -0.0803536171187091 -0.30457220881331 1.06992109003875 0.0955105195292766 0.0699655943863694 -0.767709152707328 0.0925496386594 0.196100507838102 -0.867220820907759 -0.0586738293600373 0.0885286925041378 0.316584139462821 0.279211631671766 0.73408582560788 1.09693128611578 0.469468796375995 -0.110993694762341 -0.475028804087968 0.109821786547258 -0.293634227399079 -0.613678298597392 -0.580827844708681 -0.255786322879264 0.494590518157334 -0.365981947632913 -0.861248665572096 -0.735142805571067 -1.11735457640909 0.980689458293705 0.879282888042996 -1.66480360580256 0.92007984636426 0.365398564627204 1.28303072204728 -0.879619702383005 -0.695713159204128 1.78392352501552 1.72430018774888 -0.110260930740185 -0.0391941334391159 -1.41568209309254 0.379508514371729 -0.291609227596096 -1.68719713142983 -0.0025189084649341 0.0647398299125728 0.891305617320202 -0.3994515228428 0.342484390878928 0.0582467693457211 -0.287151451239555 0.189747572321101 0.874048638933154 0.506294945027723 0.897824903125741 0.334108769550593 -0.421707751632234 0.148593230845172 -0.417830530069388 1.43216568404848 0.135634877611256 0.0329139601039643 0.213307606849607 -0.630305099925386 -0.826855293473927 -0.429708506313445 -1.21444323824293 -0.205787648211004 0.479839849836243 0.0768520335335364 0.346834438068702 -1.36227902248836 0.0741544334912695
-0.0464125018328104 -0.0376463301361759 -0.176871751455996 -0.126611081511042 -0.533291000044682 0.3682825695523 0.625209947424661 -0.0865291466092932 -0.0771155714713293 0.205197837450714 0.472844653081577 -0.070396768163617 -0.445002962672031 -0.245163558549651 0.062858554702006 2.22673128094328 0.824795326686027 -0.46918828916611 -1.05327551966738 1.46242189618858 0.685380672271362 -1.47980897232833 -0.538309019490443 0.0737312301297015 0.888105109759571 -0.620998739733822 -0.0444864894503646 -1.18695867387787 -0.0482701229065216 -1.16804127792763 0.293547324157153 -0.583467594959725 0.190177974767799 0.730018342509456 0.0269322916915226 0.955789879710661 0.0457496717804882 0.575487666203355 -0.79956330463609 -1.78883818616763 0.468546799258994 0.289250755885487 0.151879870317179 0.144698782900051 0.107456372861702 1.64510176668334 -0.188523213628643 -0.0140163616378363 -0.492465759603265 -0.279072535062648 0.0550673448201138 -0.634531477117035 -0.365368996956134 0.814186703416491 -0.524700177492998 -0.440872744688903 -0.654071593931011 0.402368952091713 -0.0283068027309773 -0.25649106189145 0.170315184673891 -0.287401876558005 -0.000183833780997027 0.463492013057034 0.12829078233797 -0.551969283524529 0.212857921139168 -0.103033049269712 0.425274898314126 -0.462509595046979 0.261849238109601 0.153377537134393 0.180539942439891 0.020387294867662 0.101560836360636
-0.0695459905673664 0.0423311347844931 0.0436732499408631 0.525897796726403 0.267884899660517 0.656224120384867 -0.0244277813968484 -0.466145904368155 -0.188984212187143 -0.543925077222356 -0.332363762737129 -0.475420125786818 0.188019277669546 0.56589797058989 0.0811537440088668 0.280257041676709 1.82227922214718 -0.600876268354869 0.0467714276485752 -0.632919396268292 -0.205578617632052 -0.286769642617485 -1.50747351382164 0.642726864206937 -0.0955889381351565 0.292388785671597 0.163874317474231 -0.56887350674021 -0.0573705378413325 -0.127320962726892 0.352847473923496 -0.13885723953746 -0.788385182310738 0.515737316506206 0.0807441674870091 0.252633380702528 -0.410119538564658 0.0361715461252683 0.870866643305714 1.17793024979435 0.00695765866791687 -0.17078492497862 -0.848187725375078 0.0460666886363894 0.0739058079441029 -1.09758023221821 0.387601828718896 0.0944728228298305 0.611493890480817 -0.353122581819533 -0.0564804223870504 -0.465178398748726 -1.52328424742812 0.254953028775472 0.159938989009979 0.872152451331961 0.678950603699398 0.0210241567914796 -0.0406023259125715 -0.0695876424170468 -0.264901135984335 0.571017291447837 -0.0826568101399278 0.906400556176615 1.60237802464909 -0.506138622036329 -0.404256397946677 -1.02920563564556 -0.7374151453703 -0.330710287148889 0.0861905324980021 0.118048283969329 0.623746476261815 -0.598717314146432 0.0781455548652791
0.0855251313438479 -0.0252358787026857 0.00619584119505786 -0.341446437069299 0.100275285444573 -0.144783372150327 0.190093385517522 0.567115901527768 0.190565696924084 0.415786761223031 0.115933038492039 -0.0455768937373693 -0.275728045799419 -0.531539822586821 -0.205252344809555 -0.677072670921213 0.402208001117022 0.169245349201543 0.560915432349413 -1.32883361563569 0.233288153407426 0.649605590048608 -0.626657220645965 -0.329812715499294 -0.53508434357259 1.08983607349985 -0.315306816072621 0.393548273036238 0.183156295664262 0.0570159828986823 0.00293259874972321 0.161249736723997 -0.887733842655012 -0.141700621053608 0.358884678135512 0.129534167183987 -0.447346007771648 -0.514431453885669 1.21148184315269 1.8071485449753 -0.569322421120099 -0.554812665040678 -0.819714315245379 0.28481251990287 -0.238213870297414 -1.58358712690899 0.928143335930174 0.48515611709453 0.782340779013592 -0.308828667896395 0.217474591588934 -0.32247839041297 -0.814041950383342 -0.166372914234692 0.683397581428243 0.918167203711341 1.25485735950139 -0.124986145153138 0.00940791871393319 0.160960487767883 0.0708911910459348 -0.0306045964383485 0.347530949555025 0.31028879662686 0.688583493823642 0.407964183898787 -0.845510179927102 -0.877087424188544 -1.03093701561931 0.144048808356889 -0.0219626089602057 -0.348854038557838 0.0181319243405208 -0.159228079353396 -0.603614748916266
0.000487223797187926 0.0919528859241635 0.140224551491784 -0.0373771357743523 -0.466711546771223 0.107961337261531 -0.309666075763119 0.594301703859939 0.475662580689587 0.201108499986717 0.536292504323506 -0.246360920672872 0.200680668641852 -0.639920249446988 -0.648874625797735 -0.32285454261101 0.08978776107133 -1.92486515680829 0.932543519605675 -0.484109935759038 -2.39635612477525 0.300055040004448 0.0135941867170012 1.7692422764439 -0.957791739597155 0.668084870246649 2.45491271189174 0.861590365005586 0.403132312225672 1.61694408785863 -0.431202059367727 -0.294915407442027 1.94907722276142 -1.01100506288612 -0.65014115056024 -1.81774919782916 0.517529888703565 0.394573885557073 -1.71640664801407 0.738366967268553 -0.246743757735676 -0.0756456725539027 1.05324003846209 -0.498096986835988 0.416456790360483 -0.391032707003686 -0.223287081500822 -0.000181776899531326 -0.547956050674763 0.549884377048858 -0.453117874274588 -0.728891428576435 -0.0487735446452519 0.412410904517449 0.329627596167381 -0.097893159597108 -0.0343432356124433 -0.479583768093763 -0.0841027978103156 0.218276775360557 0.124957348812619 0.10445589702361 -0.284339694275942 0.262934757303125 -0.101603516651049 -0.108054411147854 -0.291765807697672 -0.0196517026334906 -0.174597097665114 0.340959727492477 -0.0168366032374956 -0.0469493478953583 -0.354955520315656 0.426727313739094 0.366672288474839
0.11577465861918 -0.111206067773675 0.00419783796131254 -0.332206411305003 0.161695308671504 -0.0668116237689001 -0.353490763601894 -0.107343758601455 -0.179672709791914 0.263327621663074 -0.394036525274159 -0.0626019587391598 0.170440140222932 0.35763126599235 0.110976982600432 0.109737454407164 0.596287622915073 0.309884619418849 -0.0901225185298728 -0.314839903979906 0.474973011178211 0.338666047548037 -1.38716548845206 -0.106698669151774 -0.0852531087700089 1.03060817169499 -0.518898229098622 0.430565968774459 0.360271016243394 -1.20150673937459 0.00257624403579051 0.203866520922039 -1.62990192687218 -0.206102351075256 -0.440772214607267 1.38336025774051 0.0164848765068607 -0.0879391388540312 1.57830171287269 1.55188415576796 -0.140987397405376 -0.45138135209717 -1.34837218978857 0.115463812407676 -0.605802499465223 -1.35221727257851 -0.435962968630275 0.596737308625512 0.824865774876227 0.397907576192608 0.433479798480808 -1.05049435881557 -1.85160109588148 0.96114548482698 0.95618428673171 1.48998230805769 0.333143063702447 0.107297735878659 -0.147461946039037 -0.14316537776737 -0.407991180468024 0.967602549968182 -0.7120676808481 0.917254976781303 1.8842569173615 -0.890025208607803 -0.861882956394082 -1.48355198237554 -0.342824290541135 0.23315882698527 0.134183233516837 0.0403927811132532 0.0499143425281663 -0.796887301849213 0.684764893382568
0.105713680039886 -0.0641237939135953 -0.050054210467834 -0.346422290445012 0.0490540518551369 -0.368114676602662 0.0355177149293586 0.702913015664631 0.120712459687778 0.426516226278677 0.0988074434086121 0.153946779080025 -0.162273806583733 -0.625989505500162 -0.154783929836566 -1.24013394485972 -0.987809610597412 1.86953118872818 0.143781156656165 -0.201796526836994 1.08540297972089 1.60963495957026 0.567493853497091 -2.0283975140538 -0.195811001771804 0.0724991581317466 -1.03561359274177 0.233539864276792 0.273471646831545 -1.23398361216709 0.194003774294003 0.288372724609816 -1.62982916469033 0.0372658070650212 0.412580854348553 1.3163496306898 -0.623165150137571 -0.633234870463094 1.70550260514402 1.45597023036122 -0.494522898179149 -0.466910807163213 -1.09078918094902 0.117323747473036 -0.307052036530396 -1.31035896342095 0.835761590220412 0.394298520550852 0.794125681371326 -0.0660495491858579 0.242562117715906 0.324329583732101 0.0254364246455915 -0.350783393372665 0.445477073849875 0.633907213592195 1.08356515613129 -0.2046237104116 -0.468172189722054 0.153693782659744 -0.161422771877299 0.946492004155143 0.261186408057279 -0.456115779010847 -0.0470321373743528 0.76224401865296 -0.527093101968158 -0.661863575143453 -0.726990612991944 0.233226189853272 0.389478218835982 -0.307728750532612 0.279108016267932 -1.162996776133 -0.488753859888224
-0.13615938238501 0.0788536363098466 0.00622283776429518 0.644954209724108 0.0735653940615294 -0.0252407637961667 -0.445670163597468 -0.0242989691950588 -0.0819111906086112 -0.690236969411883 -0.361042089682849 0.0603147065493003 0.431026453112593 0.352069715619278 0.0284831803166611 -0.374474811204792 -0.523835001726488 1.20494995894817 0.107420634546235 -0.125399835437928 0.431557385640927 0.744320867781208 0.185652835543257 -1.14219321987872 -0.057107514123906 0.575262694793044 -0.371092269634447 -0.433929227081063 0.218111967733118 -1.56738892825641 0.597159226436164 0.15743087917274 -1.43043893205802 0.512840713182133 0.22685397107253 1.67054410486315 -0.438389060319069 -0.482719483888224 1.2916516264904 0.911080218621268 0.0073248120095445 0.25548987483802 -0.796156080488156 -0.359705116730143 0.281648779098439 -0.736122909589473 -0.0668435054316185 -0.312910549165079 0.264212337803508 0.441698839707566 -0.410932520963976 -0.55793886775836 -0.0814105970818962 1.03487054431228 0.36048673168711 0.3373969516837 0.81919418134474 -0.192532846935843 -0.318633821843392 -0.219040392604699 -0.38344127173415 0.748059764065486 -0.0360411912623795 0.333398374114377 -0.0294172616122726 -0.814454355117215 -0.240369224963285 -0.549889262142339 -0.666068869300079 0.303790593856344 0.162929951771291 -0.0432143082638285 0.271838225837595 -0.642016468770721 0.0360003107432487
0.0290879034675772 -0.039420390400343 0.0123867972966347 -0.115917611881046 -0.332516743296141 0.0168440594328088 -0.108477871619605 0.111224836817049 -0.160104825078151 0.110990352329959 0.343586365124177 0.112744872220202 0.0406447490928015 -0.148250760081133 0.0526379106989377 -0.0685000663420574 -1.34076661345896 0.482009602672374 -0.258816880608791 0.374983375147187 0.239009369204274 0.018022138292289 1.67915163957674 -0.610990468742087 0.304301728900571 -0.583498705291894 -0.145496338688376 0.198347907949563 -0.0747257323183679 0.632913225623895 -0.399635356623797 -0.277668199241941 0.846852295083472 -0.297943651179905 -0.135894301786117 -0.725065629050231 0.352602962139261 0.442552188405648 -0.835178207214703 -1.06915181637057 0.166481928952374 -0.0883021784327274 0.805780228866171 0.00581531812390317 -0.114485765270735 0.944458519716114 -0.0480968306430363 0.0594672713854314 -0.50455405197719 -0.0860792037886711 0.222505980764222 1.10483073938481 1.74996569756771 -1.13894360427309 -0.603843319869142 -0.779228717355986 -0.746888370070769 0.182240726301842 0.378374401353578 -0.149935346001542 0.316440414870405 -0.850110909545509 -0.00458504589723076 -1.0730277523825 -1.7332075129361 1.18341441000228 0.512775407195597 0.833570754349257 0.650048590894283 -0.276553369487531 -0.413447315665979 0.226973527307724 -0.14410254438518 0.757205687502726 -0.0178318767567117
0.0287554600006833 0.0740914414963824 0.184036898041765 -0.00248959790404786 -0.566129883975148 0.305186187930822 0.733942872346014 0.4444290927431 0.304626201951785 0.160350365303119 0.840426340274439 -0.419043833023968 -0.827218590162806 -0.589254888073658 -0.305264349426519 1.80930852762447 0.624152710351291 0.205979709517864 -1.43426293181295 1.93102860212026 1.25207311332738 -1.7375693871943 -0.639825632899566 0.128141144211341 1.61799026919412 -2.04035699422593 -0.941307634420844 -0.455476603095381 -0.295015423303297 -1.07983551581361 0.0611392589068631 0.0800700245866256 0.05758882438688 0.366471228311567 0.236699748428475 0.966572052353866 0.243768992915906 0.0390221267265467 -0.381744087414763 -2.15314120430417 0.626603227507491 0.320451333728522 0.315580895527925 0.320397340590047 -0.0926807648528385 1.84696257106614 -0.665966796557343 -0.167911204460853 -0.685844756152061 -0.343289145752383 0.119281898628383 -0.228313328472445 -0.0689345825516868 -0.310814329841346 -0.893598268823909 -0.61606788064017 -1.13667537823679 0.493848241058399 0.21256198731829 -0.433286451623032 0.175818628145557 0.420329898160398 -0.116357527404523 0.687883382794754 -0.023121404555945 -0.0933726483558636 0.732069567551126 0.647871381862839 0.905401426004651 -0.621157119606681 -0.0518868918537736 0.560607157239741 -0.234818216107725 -0.597834654887463 0.168348548882497
-0.0842670912173885 0.053781022573501 0.0500207861440164 0.443139428064106 0.00730218631342179 0.385399165779314 -0.149375360022505 -0.231723895052761 -0.147854810398985 -0.442325931444421 -0.111105794802222 -0.227503174285142 0.291187052675261 0.349900477003513 0.110563806536009 -0.108682017105076 0.621019308548479 -1.1389510604684 0.159490845960639 -0.0373064304739688 -0.645715770086784 -0.367235616886258 -0.425448190577612 1.25300488063134 -0.135806112993275 -0.210134095858213 0.413437031258651 0.168800805694768 0.0786044965423136 1.34456515930574 -0.120801934031536 -0.386934884903643 0.680282434448439 -0.231085490467844 0.00775058647294461 -1.28959114548213 0.0939614306754206 0.211038609482755 -0.620941404162965 -0.138141187677212 0.0531508455144469 0.0656903662599098 0.614087618009066 -0.19435807212647 0.267274520085571 0.10978193446886 0.282349661457876 -0.104379792409379 -0.332542454314462 -0.110298211716751 -0.252448775590981 -0.0031156612001706 -0.6806138494746 -0.0736360993619128 -0.406015288710035 -0.080261571673119 0.036627145369921 -0.211549744526982 0.0791243733327695 -0.0599917761591852 0.036390089780999 -0.257803352266567 0.106637476928169 0.361172444545738 0.764024249561524 -0.108826255917859 0.272819615406917 -0.0674122331568848 0.0560713600855591 -0.093013979650282 0.0315368779626775 0.00135471355534733 0.273126862075856 0.253817887316588 -0.101088782064258
0.119602515026849 -0.0924030858549688 -0.0957928265104441 -0.164457700479941 -0.190926679621314 -0.562902894065646 -0.00243971852850461 0.753114550267446 0.0935359133222037 0.275137977928946 0.207146218419099 0.299576815063672 -0.160145448487099 -0.668371805211114 -0.101336893391058 -1.28921859282666 -2.10348988549343 2.62826513915992 -0.386878063553153 1.01479743808851 1.6158709099539 1.87029763418434 1.63933555660444 -2.76157728337603 0.280439332796607 -1.05835935932004 -1.48038387069799 0.174209118398646 0.38381588127109 -1.64036939665113 0.108216904783645 0.147043884881133 -1.36075075955934 0.0596837581596965 0.285964630633846 1.64408335324764 -0.467652570041781 -0.450105057147702 1.21470420507889 0.105497193265621 -0.263495514612711 -0.268460055140364 -0.678613532249206 -0.126817026767796 -0.311758695544286 -0.0641749588400546 0.506936434934838 0.215380172036484 0.258689868178284 0.219993242943685 0.226015277654891 0.859058858141674 0.790011918439924 -0.46808065849683 -0.255303727065374 -0.0049362584074992 0.308759762367294 -0.289621508769679 -0.636022973289851 0.162273035253183 -0.224446905537294 1.05997555393172 0.197883566958681 -1.02816793894611 -0.695451678147801 0.935644011305036 0.238759972326558 -0.0881905926132132 0.106870932974526 0.322798749701253 0.503142002850986 -0.268053049720338 0.338728782432741 -1.1327068825589 -0.329396711222856
0.00346867348172154 0.102734287236819 0.186127203831284 -0.218146934718035 -0.297487537714886 0.203244057168481 -0.456020648243059 0.693657049068977 0.516217084108081 0.441666186714298 0.339551535019021 -0.268979417710454 0.252931371404871 -0.794194586900427 -0.620416899389212 -1.39774840070327 -0.202375538969589 -1.38169855462641 0.773269417529484 -2.04256994157284 -1.25127504331869 1.5462979228173 0.545372607553843 0.641204000591769 -0.895597814718754 2.40050948267486 0.669081429316781 0.585593896174893 0.162765401254035 1.02579558328561 0.202465013313347 0.229798654000865 0.212902401200864 -0.710610637439834 -0.378077181981785 -0.719994387796545 -0.00835350985257821 -0.241188892227367 0.297704538709518 1.62897787287371 -0.510907501714557 -0.263830014961071 0.0167612699538143 -0.0772626384961269 0.0934621226996216 -1.47981231476071 0.00566773687873912 0.239051792384504 0.317599724686511 0.141404430122547 -0.107350957686584 -0.0473404124840247 0.651239268152741 -0.215893621072359 0.785840819937665 0.233477386502271 0.422094959568153 -0.286640830415695 -0.206835629317779 -0.0412751832620389 0.16282659347764 -0.40063037303283 -0.0325403790077564 -0.397201294519323 -0.902753962448111 0.467835118271862 -0.59163598548039 -0.281562904297246 -0.471846037129979 0.135797114136863 -0.0289917442590557 0.21858350780913 -0.364386836056262 0.858660851578061 0.181796697015434
-0.125802727095022 0.0736281289462332 0.0249494579585868 0.619774638151546 -0.294615874078584 -0.143438685892125 -0.399894523688475 0.174299621183137 -0.0936698677276574 -0.616221889639914 0.0501619396346001 0.242921300641854 0.400712391181274 0.0747321600729483 0.0773325724659608 -0.916347377834562 -1.8763739191442 1.66549343242412 -0.124297089862129 0.442855835532022 0.457997311331597 1.19978153004523 1.89071938181655 -1.80334768513687 0.142317171272952 -0.228861744493238 -0.520540134728618 -0.0503917961383922 0.306256280513353 -0.763755312309884 0.0510798229886692 -0.247122481035548 -0.167337591642105 0.0685710287526241 0.0990858937370314 0.774543655597486 0.0879507088122758 -0.0555553399478513 -0.0553985027360916 -0.697172002383677 0.0788253541896933 0.335034109099976 0.310648236662991 -0.499963349655928 0.309314091922301 0.732148500377373 -0.0671908612891387 -0.361207411530655 -0.484471689786818 0.475226521818858 -0.426015118531595 0.484434923030619 1.08609769143593 -0.141682109120417 -0.407349690560908 -0.605859577925896 -0.121384288596513 -0.323168474144713 -0.117560031731408 -0.249787170974364 -0.0532919990050306 -0.294393473770105 0.0528713667452947 -0.790603528971496 -1.46418644337596 0.569942570882008 0.544300200979663 0.430837734238115 0.415734053635472 0.299115816505172 0.143105213984499 -0.0219929479618248 0.0481778203507483 0.425851082234706 -0.0565773529261215
-0.0463451389648087 0.00905053555926764 -0.103493533607845 -0.651667613717973 -0.131614702786543 0.30894668147049 -0.394327316891372 0.341700204820129 -0.132848060335414 0.236373989826344 0.36046359177062 -0.30940690869844 0.722466502208135 -0.503103950543871 -0.151472350676787 -1.98924863200693 -0.653299492050824 -0.210222541761239 1.14291415683244 -1.59583405626596 -0.327285322398314 1.38666335226424 0.756041749703322 0.236947602645092 -1.27123682083313 0.961524722347219 -0.0562222837631049 0.045546297625567 0.436919675622009 1.668990388026 -0.055614218179807 -0.564309029657636 0.0810033345516874 0.0164352542415007 -0.483268414129383 -1.4849768870109 -0.298356570134145 0.474056670485241 0.556718879939016 1.82097464507756 -0.489769702222097 -0.0133769286121865 0.190618404511642 -0.0272264257411178 0.0883366311972779 -1.2161805317509 0.855628751187435 0.112347122766772 -0.0450727006680894 -0.155704127182284 -0.080710228942825 1.36421300528648 1.57827034543034 -1.66577728206639 0.859092796685858 0.200392191016287 0.757758988616999 0.0594387321550948 0.0815730907176866 0.173872561168821 -0.126444988332687 0.293455278711563 -0.00162082259497239 -1.37232817399922 -1.63826777801355 1.55892280414359 -0.668673652566206 -0.279528648527668 -0.440272135300919 0.0507640916836841 0.00958635318108276 -0.341418926279695 0.239995129646711 0.163263423678918 -0.224740782476706
0.122971429757484 -0.1055434730986 -0.123295388588332 0.0899019179926764 -0.449033421904072 -0.667392986743624 0.0678446924850484 0.621667740430541 0.0918693251146194 0.0654335131868804 0.333680423985361 0.363044463789709 -0.242218361400951 -0.564883670917116 -0.0347047325300402 -0.356125628759457 -1.89237234318442 1.99494825054838 -0.856851052998428 1.71416978942012 1.42643007008137 0.77008227969838 1.42333523480604 -2.01940945626905 0.806499366048617 -1.71636448194402 -1.21453271258669 0.174413006773934 0.430735404385196 -1.22979297329091 -0.208533584967715 -0.15077712474138 -0.183555587778791 -0.0213010644587996 0.0793927963640435 1.17979918371613 -0.0287202359055832 -0.0624898586992791 -0.15084037384645 -1.7063330710358 0.0205976109975299 -0.00463055439965939 0.334975745088386 -0.366797501134063 -0.234177754641342 1.56536161446178 0.104692438392166 0.00458093213429935 -0.581955529972252 0.44511172027953 0.168230792418586 0.645194093525046 0.69325312897115 -0.0159570293007252 -0.994320668877089 -0.663835867358877 -0.596352671791426 -0.402494936081488 -0.29529901583538 0.24540755611352 -0.0852942463993229 0.302175941905769 0.182939294669631 -0.740771461701958 -0.416394312585962 0.337546589810329 0.993216637750374 0.471130499490098 0.960272081534607 0.421900841379827 0.183472026969247 -0.299071593553659 0.167124704410405 -0.139623427883433 -0.181354981720675
0.109968082241506 -0.10540746181168 0.00362345381201554 -0.319451689336191 0.0925756067879045 -0.067400406088457 -0.345444243308072 -0.0642086402740555 -0.168154430694172 0.26876781602967 -0.292635611447481 -0.0410566396063082 0.166039442327065 0.279310876202486 0.100285312741718 0.167952342090167 0.43643553714702 0.155737037285735 -0.0843182561438478 -0.222606253735675 0.354970175596099 0.171084458342063 -1.11564582213146 0.0307825166851316 -0.0628914648054572 0.845663160486113 -0.40322821432401 0.484045915323418 0.340871795809818 -0.878484818034304 -0.0812221353176014 0.144466612404609 -1.20826128099777 -0.292648724066825 -0.429141578359461 1.0167717871854 0.0997430673653229 -0.0272482801066909 1.1627548354506 1.18022830061191 -0.101630513220287 -0.40291685389214 -0.99721547242988 0.0782602260069919 -0.543653825979067 -1.02532481454015 -0.429028192768664 0.538994732349071 0.610717674837698 0.38832559388464 0.402708851753921 -0.906447864450326 -1.58037016429663 0.841398473877165 0.774339253001832 1.19659464932431 0.191699809942235 0.0958329356990252 -0.0942820470738867 -0.140984054972994 -0.294202440903979 0.709936237429267 -0.628613829140213 0.770604727590668 1.59813416396498 -0.757351983196973 -0.673492925840343 -1.1650153481814 -0.190894540848413 0.224218848804784 0.0717147149627649 0.0388452349204964 -0.0408833473428229 -0.555069261003524 0.592428656175235
-0.116960193673973 0.0622885414258236 -0.0228846060772062 0.307338971494861 0.711980006275625 0.018906083102174 -0.268305789030436 -0.417653381153154 -0.11914717289238 -0.391192886647827 -0.877711944823567 -0.0473908060799344 0.32756917204058 0.7056427544798 0.0564349138846217 0.0606121830312773 1.00541728727436 -0.799780562740904 0.485249705201219 -0.696644412287724 -0.257071616685144 -0.0663313419466589 -1.54603052822676 1.03850659652328 -0.287516547699717 1.04738075449686 0.397183039696315 -0.0868705889325995 -0.0550614312858999 -0.100941972149643 0.554767670758616 0.495603789389375 -1.11036272208681 0.132926478941294 0.2701227866952 0.123762814901413 -0.509663088427808 -0.653265296396456 1.21802066933215 1.57980477900375 -0.0129884351253522 0.26061588056073 -0.841096626522074 0.0165550675868778 0.2927716227344 -1.34014826346833 -0.131622158981856 -0.342056045313696 0.618159471980605 0.152931965186885 -0.379783622267767 -1.20739636234144 -0.990992120445218 1.62455583483264 0.828910375168345 0.884001631235498 1.15101029939163 -0.0422858833922477 -0.123199743600177 0.00264257846305937 -0.382561440687196 0.976358951477855 -0.0159194912139762 0.983062328174574 1.15651811373641 -1.60962158984074 -0.727568853793989 -0.821504573451089 -1.24783439484694 0.241332102599417 -0.122497832800007 -0.0937513716557358 0.14816488527994 -1.03562876224258 -0.0378651309020898