10.393985 0.000000 0.000000 0.000000 6.217382 0.000000 0.000000 0.000000 4.944282