5.312293 -0.162883 2.568331 2.872343 4.550771 -0.034087 2.191923 1.634811 2.492481 7.627963 1.659021 0.014714 8.083453 4.806501 2.490841 1.092313 4.729151 2.173221 4.092453 1.545811 4.703471 9.241513 1.523181 2.752741 6.332513 4.580111 0.371694 1.337133 4.831811 3.687311 3.896113 1.362641 1.299991 9.110073 1.647321 1.286421 6.638373 4.655421 3.801061 4.753323 4.758931 0.700490 0.377928 1.509861 3.126461 5.513903 1.541681 4.086331 10.001643 4.560031 1.841331 1.832503 5.946341 1.430191 3.215533 0.364474 3.973461 8.539813 2.722301 3.514111 6.955773 3.271341 0.926676 8.478053 0.374213 3.389631 7.035283 5.772361 1.098531 1.872013 3.539611 1.470331 3.187013 2.771061 4.101881