-0.882115213821267 0.485732815235476 0.139337521359701 -0.749559230653982 1.14483476990104 -0.00340413882573517 0.012878134856754 -0.819968340106393 -0.193814541199158 -0.267085544100909 0.0142127938178107 -0.298508008032057 1.95157479108115 -1.14628975642784 0.736236809400637 0.699550271578393 1.0623450813802 -0.309520808509604 -2.24449039551815 -1.03822506087266 -0.632122097590149 2.73931462683202 2.30484212593383 1.97516542172145 -2.3260334043444 -0.432695355311826 -1.36081889375789 0.136233173007592 -0.763384559425691 0.163149780977938 0.623815381790916 1.06837714338855 -0.917840159558295 -0.727657042586831 -0.35634597218647 -2.99841432864234 -0.726206684043329 0.185209834697581 0.00578215091026874 2.15874877740003 -0.69225117058717 -0.715515785515165 -0.486516744184091 0.0518025597136799 -0.226269559626088 0.200901526289231 0.0740796144279546 1.34740622683024 -1.32383976454715 0.516838005200539 0.217152432529368 -0.662631820370893 -0.591149275903569 0.538437574582049 1.34243268744617 0.786754846638986 0.151682923916838 -0.095408189676358 0.413278908495975 -0.079349858963447 -0.280117430847224 0.681332215326496 0.815812668215128 -0.930649131775764 -2.01825708842789 0.977515433081945 0.351032018919832 0.514455365132708 0.0628418425400972 0.348981308098528 -0.85592365656758 0.445527724555968 1.13684764205954 -0.589606100583926 0.159529412488121