-12.0014758681898 1.18858086032588 1.59142202439606 1.18858086032588 -0.959240593652262 1.5774621820768 1.59142202439606 1.5774621820768 2.86775046501446