0 0 0 0 0 0 0 0 0 -0.0344332241765677 -0.0116360355616538 -0.00895309079983006 0.0122245607710275 -0.00505735730379235 -0.0609541395749501 0.0344332241765677 0.0116360355616538 0.00895309079983006 -0.0122245607710275 0.00505735730379235 0.0609541395749501 0.0875151641619136 0.0101365689731578 0.00825837908478954 -0.0134252653266305 0.010182848806136 -0.106027868683772 -0.0875151641619136 -0.0101365689731578 -0.00825837908478954 0.0134252653266305 -0.010182848806136 0.106027868683772 -0.0280594627347267 0.00247314285232225 -0.0194372727406913 -0.0670815894612734 0.00833216970737157 0.104880643046278 0.0280594627347267 -0.00247314285232225 0.0194372727406913 0.0670815894612734 -0.00833216970737157 -0.104880643046278 0.0496052960879448 0.00401040463775054 0.00560680176531773 0.0883780259367752 0.00603617577128282 0.0202438273854293 -0.0496052960879448 -0.00401040463775054 -0.00560680176531773 -0.0883780259367752 -0.00603617577128282 -0.0202438273854293 -0.0217294100240319 -0.034623485712145 -0.0281337675776752 0.00282204137094178 -0.0496541470227552 0.0470696754611018 0.0153643903284201 -0.0262254957978711 0.0332471749014079 -0.010162279991479 -0.0499153709688992 -0.0753502529533914 0.0217294100240319 0.034623485712145 0.0281337675776752 -0.00282204137094178 0.0496541470227552 -0.0470696754611018 -0.0153643903284201 0.0262254957978711 -0.0332471749014079 0.010162279991479 0.0499153709688992 0.0753502529533914