0.675360091545268 -0.749290042394898 1.14291707799968 -0.749290042394898 2.62751041533144 0.267746308482444 1.14291707799968 0.267746308482444 4.19002991707227