10.348046514 0.027276779 -0.011314175 0.016300328 6.174076642 0.000900567 -0.005378482 0.000716390 4.988675496
9.565118463 0.281746564 -0.130877228 0.168368907 7.088475671 -0.082800222 -0.062215827 -0.065866567 5.113399979
8.887054168 0.175661189 0.095213284 0.104973356 8.874120136 0.049487691 0.045262062 0.039366855 5.266895005
8.710546851 0.240787330 -0.027562377 0.143892081 8.876952070 0.014752397 -0.013102478 0.011735352 5.216240649
9.570079646 0.281528825 -0.149664448 0.168238788 6.960886574 -0.130295456 -0.071146811 -0.103648446 5.117538141
9.681966887 -0.000496886 -0.191225527 -0.000296934 8.039534520 0.130926920 -0.090903929 0.104150768 5.229033755
9.376064594 -0.302364521 -0.675168005 -0.180689990 8.818692947 0.151944451 -0.320958324 0.120869957 5.123136058
9.681946302 0.239525777 -0.089659813 0.143138190 6.670819878 -0.130309534 -0.042622078 -0.103659645 5.146557078
10.237248470 0.054830433 0.009079868 0.032766114 6.157667075 -0.000688543 0.004316347 -0.000547727 5.114938044
8.732325249 0.213129235 0.124332626 0.127363883 9.401950069 -0.044780862 0.059104683 -0.035622629 5.245174560
8.864943742 0.186129670 0.083934033 0.111229215 8.870783569 0.047538086 0.039900182 0.037815967 5.263978628
9.405499634 -0.170104835 0.258786644 -0.101652935 8.935699541 0.091535652 0.123020829 0.072815495 5.235055899
9.563670809 0.285148100 -0.140975260 0.170401631 7.053640824 -0.099747702 -0.067016184 -0.079348080 5.114607634
9.383716142 -0.274735349 -0.627951540 -0.164179076 8.817495028 0.168349652 -0.298512773 0.133920095 5.095678358
8.782884021 0.205345790 0.156991572 0.122712575 9.387421795 0.003833436 0.074629946 0.003049451 5.262552844
9.504311787 -0.009063332 -0.223492070 -0.005416156 8.825121495 0.209444766 -0.106242653 0.166610757 5.202204663
9.099293438 0.059839748 0.210539605 0.035759630 8.886235165 0.065883562 0.100085369 0.052409570 5.188419656
9.385985432 -0.198744015 -0.487436989 -0.118767420 8.813316902 0.177190073 -0.231715599 0.140952542 5.079597969
8.536219420 0.210840425 -0.093959936 0.125996113 9.302514662 -0.140061909 -0.044666251 -0.111417540 5.257451394
9.343064501 -0.344759523 -0.634131476 -0.206024816 8.828909753 0.078902150 -0.301450563 0.062765698 5.197871266
8.824575256 0.203894912 0.061584248 0.121845545 8.866009294 0.043951599 0.029275642 0.034962961 5.252922164
9.438965777 -0.199178962 0.239684140 -0.119027340 8.933508946 0.089646777 0.113939966 0.071312918 5.225314441
8.636193667 0.242169058 -0.120065546 0.144717788 8.944978647 -0.026189176 -0.057076218 -0.020833170 5.230787833
9.185329043 0.009993208 0.241229915 0.005971840 8.894049361 0.077129463 0.114674790 0.061355547 5.203060072
9.447463887 -0.063554655 -0.346294978 -0.037979622 8.822688978 0.200662938 -0.164620146 0.159624919 5.142705846
9.319029113 -0.154435871 0.024987658 -0.092289320 8.626633141 -0.055602800 0.011878520 -0.044231349 5.246314515
9.670674790 0.100993799 -0.107348772 0.060352876 7.521088890 0.063600575 -0.051030975 0.050593482 5.212577956
9.935581162 0.137668515 0.020037509 0.082269317 6.343466869 -0.066529059 0.009525341 -0.052923055 5.232821155
9.001221200 0.114579322 0.150179108 0.068471448 8.883814919 0.062149131 0.071391468 0.049438876 5.235794241
10.290271839 0.042976664 -0.000259647 0.025682421 6.149993484 0.001691631 -0.000123430 0.001345672 5.058881470
8.675015986 0.222674478 0.065118595 0.133068024 9.408949488 -0.091316508 0.030955784 -0.072641168 5.238265467
9.457517864 -0.215531631 0.223042379 -0.128799530 8.926600402 0.085726513 0.106028881 0.068194396 5.215375032
9.386133372 -0.202193539 -0.492119356 -0.120828821 8.813151357 0.177077450 -0.233941482 0.140862952 5.079308033
9.806812711 0.192649112 -0.026353604 0.115125168 6.469422756 -0.099180992 -0.012527858 -0.078897269 5.204918905
9.593592633 -0.137302128 -0.001478157 -0.082050368 8.567156757 0.108120767 -0.000702680 0.086008751 5.191504545
9.607978048 0.265786822 -0.140355774 0.158831526 6.830466908 -0.144843596 -0.066721695 -0.115221314 5.127953222
9.380787208 -0.283466093 -0.643497218 -0.169396480 8.817683758 0.164059911 -0.305902808 0.130507658 5.103059645
9.427695157 -0.091867907 -0.384519665 -0.054899336 8.825683440 0.193462398 -0.182791225 0.153896978 5.120313198
8.595162619 0.235893309 -0.148350401 0.140967464 9.011935139 -0.056220168 -0.070522145 -0.044722458 5.254317359
8.523098894 0.207779004 -0.123024535 0.124166639 9.245792298 -0.122475266 -0.058482849 -0.097427580 5.278057040
9.571540915 0.280727559 -0.149790165 0.167759960 6.952004783 -0.132218903 -0.071206574 -0.105178525 5.118102048
9.573499118 0.264619778 -0.101707355 0.158134112 7.149169488 -0.050497579 -0.048349184 -0.040170208 5.109897446
8.529222771 0.210112529 -0.143237202 0.125561130 9.181541809 -0.104604076 -0.068091456 -0.083211267 5.287266524
9.379883872 -0.286292640 -0.648355882 -0.171085596 8.817759156 0.162486977 -0.308212497 0.129256409 5.105720221
9.373251409 -0.324880760 -0.712958117 -0.194145468 8.821966659 0.131804932 -0.338922817 0.104849216 5.152573562
9.453600016 0.034467526 0.019927306 0.020597446 8.901922535 0.153204574 0.009472953 0.121872370 5.268632638
9.062475521 0.080162770 0.190544577 0.047904463 8.884343880 0.062321033 0.090580223 0.049575621 5.198051251
8.575395482 0.229683958 -0.154322321 0.137256818 9.050565835 -0.071616689 -0.073361050 -0.056970203 5.267592559
9.308804087 -0.082347245 0.275057199 -0.049209884 8.918822651 0.084601997 0.130755452 0.067299857 5.233588868
8.892464471 0.173017067 0.097869970 0.103393256 8.874968862 0.050045131 0.046524985 0.039810291 5.267218145
9.318121369 -0.157264279 0.018194209 -0.093979548 8.629753314 -0.053198919 0.008649081 -0.042319091 5.242586488
9.587133144 0.273703056 -0.147886980 0.163562188 6.887431484 -0.142079228 -0.070301846 -0.113022293 5.123264124
9.343911426 -0.350348648 -0.677257259 -0.209364821 8.826727008 0.085627842 -0.321951504 0.068115904 5.194853566
9.374752544 -0.314466365 -0.695512070 -0.187921930 8.820221873 0.142036052 -0.330629394 0.112987947 5.138485688
10.405585524 0.000113762 -0.000182922 0.000067983 6.218113321 -0.000100675 -0.000086957 -0.000080086 4.946845440
9.653949923 -0.037913026 -0.120447299 -0.022656442 8.236345962 0.133726798 -0.057257694 0.106378037 5.223805322
8.643830462 0.242769038 -0.112248282 0.145076330 8.934444205 -0.021140544 -0.053360083 -0.016817045 5.227415313
9.620485943 -0.092598581 -0.043651591 -0.055335979 8.445903015 0.122978701 -0.020750897 0.097828056 5.206611160
8.736654146 0.212454633 0.127881092 0.126960747 9.401006795 -0.040699250 0.060791537 -0.032375757 5.246347966
9.421075560 -0.103436634 -0.398038314 -0.061812690 8.826246247 0.191117963 -0.189217660 0.152032009 5.112548689
9.579266554 0.277003369 -0.149395626 0.165534422 6.915420938 -0.138690218 -0.071019019 -0.110326377 5.120881237
10.379931802 0.013953110 -0.010513031 0.008338238 6.198144678 -0.000042019 -0.004997637 -0.000033426 4.955532881
9.639033245 0.160551801 -0.070008639 0.095944138 7.367981487 0.025864951 -0.033280391 0.020575253 5.163758510
8.818702857 0.206340597 0.058134719 0.123307061 8.865531721 0.043276694 0.027635821 0.034426082 5.250856721
8.566305072 0.225977132 -0.155491217 0.135041657 9.070323798 -0.078378005 -0.073916714 -0.062348747 5.273484481
9.457528971 0.032258724 0.013496187 0.019277488 8.897315089 0.156116414 0.006415756 0.124188703 5.265983409
9.575024823 0.278960885 -0.149787956 0.166704213 6.933834607 -0.135722507 -0.071205523 -0.107965599 5.119406293
8.627498436 0.226412505 0.011098193 0.135301831 9.397318175 -0.120080641 0.005275809 -0.095522685 5.238092149
8.605855710 0.238198402 -0.143153730 0.142344965 8.992904182 -0.048008338 -0.068051775 -0.038190048 5.247416750
8.952394509 0.141640859 0.125034606 0.084643150 8.882515372 0.058189536 0.059438388 0.046289066 5.258885811
9.415936811 -0.179174222 0.253850581 -0.107072709 8.935861927 0.091466881 0.120674345 0.072760788 5.232912543
9.581996990 0.249317190 -0.084007082 0.148989440 7.183217107 -0.034058692 -0.039934908 -0.027093274 5.109470230
8.563448731 0.224732873 -0.155622729 0.134298100 9.076878635 -0.080402497 -0.073979232 -0.063959206 5.275253153
9.478532419 -0.032736068 -0.294090147 -0.019562745 8.821334470 0.208650510 -0.139803249 0.165978936 5.173467746
8.962262330 0.136224482 0.129546163 0.081406377 8.883101852 0.059406021 0.061583071 0.047256766 5.255362222
9.737733672 0.219662092 -0.054416903 0.131267852 6.565245977 -0.114935525 -0.025868462 -0.091429809 5.174795412
9.480222640 -0.234101739 0.191074357 -0.139896840 8.904822466 0.077724957 0.090832067 0.061829255 5.198835877
8.954674495 0.187717171 0.143876817 0.112177889 9.274682688 0.065094937 0.068395513 0.051782228 5.342522215
10.042718929 0.105990719 0.034531891 0.063338986 6.263756969 -0.037169465 0.016415615 -0.029567856 5.231813021
9.725491555 0.224099163 -0.060840234 0.133919401 6.586370841 -0.118054914 -0.028921956 -0.093911244 5.168340936
9.371417679 -0.330452526 -0.721435713 -0.197475099 8.822885066 0.125716534 -0.342952858 0.100005970 5.160058922
9.475084282 -0.230375284 0.199668384 -0.137669948 8.911549835 0.079665605 0.094917457 0.063373017 5.202721136
9.858384828 0.169955050 -0.007352926 0.101563425 6.414860434 -0.087160246 -0.003495401 -0.069334912 5.219384523
8.594458041 0.224216479 -0.025473985 0.133989508 9.376689397 -0.135449831 -0.012109708 -0.107748689 5.238721013
9.702763354 0.232203781 -0.074738447 0.138762639 6.628936543 -0.124270024 -0.035528826 -0.098855289 5.156346203
9.799622430 0.195661037 -0.028975259 0.116925064 6.477873515 -0.100773710 -0.013774128 -0.080164257 5.202375428
9.495147311 -0.241353630 0.163117770 -0.144230497 8.879236638 0.073474313 0.077542191 0.058447920 5.189205022
9.691763486 0.015436532 -0.205198855 0.009224716 7.919002741 0.120976394 -0.097546507 0.096235246 5.229856954
9.343213330 -0.334021618 -0.584180601 -0.199607952 8.829229989 0.073671270 -0.277705142 0.058604597 5.196963182
9.487714827 -0.024800753 -0.275721921 -0.014820680 8.821943084 0.209843568 -0.131071444 0.166927999 5.182480944
9.029434154 0.098699187 0.168419397 0.058981640 8.883752185 0.062086517 0.080062454 0.049389067 5.217529651
8.849123678 0.204587155 0.175673711 0.122259222 9.341255067 0.056553275 0.083510977 0.044987440 5.302921818
9.509384138 0.000714334 -0.170709046 0.000426879 8.830430506 0.205161477 -0.081150897 0.163203453 5.216864684
8.827564553 0.202184348 0.175053285 0.120823328 9.360221773 0.042521143 0.083216042 0.033825051 5.285902688
9.641329132 0.156517806 -0.071884741 0.093533463 7.377606651 0.028294742 -0.034172244 0.022508122 5.167398567
8.632403052 0.241819857 -0.123646041 0.144509109 8.950457829 -0.028770672 -0.058778298 -0.022886718 5.232588462
9.624355951 0.184538111 -0.061756434 0.110278115 7.313153574 0.011431435 -0.029357495 0.009093567 5.142375711
8.740071063 0.234428558 0.003015259 0.140092144 8.868337870 0.026284604 0.001433380 0.020909082 5.222392816
9.072423261 0.074658863 0.196597012 0.044615384 8.884741987 0.062937103 0.093457402 0.050065697 5.193969233
8.986765391 0.122649955 0.141886193 0.073294377 8.883770863 0.061563717 0.067449219 0.048973186 5.244045832
9.697126421 0.030335183 -0.202814432 0.018127999 7.809662475 0.109036323 -0.096413011 0.086737065 5.237313966
8.853599224 0.191293321 0.077885462 0.114314961 8.869225192 0.046629220 0.037024840 0.037092976 5.261542563
9.343225746 -0.339963477 -0.609932616 -0.203158747 8.829497648 0.076173927 -0.289947018 0.060595430 5.197918259
9.679859734 0.084428174 -0.124027467 0.050453426 7.570472546 0.075178775 -0.058959618 0.059803799 5.223799626
8.762361872 0.208460386 0.145739825 0.124573826 9.394455641 -0.015855546 0.069281141 -0.012612893 5.254628397
8.749586802 0.210451107 0.137510315 0.125763461 9.397941365 -0.028269152 0.065369034 -0.022487765 5.250267932
9.420287190 0.051899875 0.063751171 0.031014842 8.937140805 0.130965029 0.030305745 0.104181083 5.288822186
9.375415036 -0.307396618 -0.683563195 -0.183697121 8.819238764 0.148060875 -0.324949191 0.117780620 5.129317415
9.588514240 -0.145918465 0.006810931 -0.087199404 8.588306939 0.105423236 0.003237750 0.083862898 5.188866820
9.221788131 -0.013478217 0.253075355 -0.008054447 8.899493031 0.079999902 0.120305822 0.063638946 5.213776717
9.603806058 -0.120311969 -0.017577772 -0.071897220 8.523766650 0.113692167 -0.008356042 0.090440732 5.197118823
8.777952816 0.222232864 0.032373342 0.132804120 8.864453083 0.036600661 0.015389493 0.029115379 5.235347556
9.331240429 -0.271475286 -0.319197872 -0.162230895 8.782080668 0.045880476 -0.151738846 0.036497359 5.172227419
9.675675706 -0.008776753 -0.178229057 -0.005244899 8.089960606 0.132599568 -0.084725726 0.105481339 5.229162920
8.854462550 0.205184171 0.174215708 0.122615993 9.336969112 0.059387185 0.082817878 0.047241781 5.307517895
8.590107314 0.223597900 -0.030240732 0.133619851 9.373098588 -0.137087414 -0.014375703 -0.109051366 5.238993037
9.662090379 0.246474903 -0.104930836 0.147290918 6.712091286 -0.135948843 -0.049881548 -0.108145647 5.139331656
9.333930063 -0.287492038 -0.388065325 -0.171802344 8.799452804 0.054253652 -0.184476745 0.043158118 5.179023137
9.685064952 0.003860919 -0.196652544 0.002307246 8.009428148 0.129247558 -0.093483800 0.102814856 5.228744150
9.400314165 -0.144613763 -0.436575081 -0.086419727 8.822679772 0.184050591 -0.207537095 0.146410001 5.091579353
10.249574220 0.051910680 0.007182283 0.031021299 6.153622976 0.000235292 0.003414281 0.000187172 5.102824072
9.506224692 0.006534290 -0.126036494 0.003904826 8.837759767 0.198743036 -0.059914661 0.158097661 5.227273692
9.564836015 0.284866012 -0.147285489 0.170233058 7.009325968 -0.116927684 -0.070015912 -0.093014546 5.115508212
9.664477566 -0.023354064 -0.150178691 -0.013956153 8.166506321 0.133595286 -0.071391269 0.106273421 5.227375840
9.642982828 0.253199657 -0.119238589 0.151309563 6.752415617 -0.140639054 -0.056683103 -0.111876652 5.134416298
9.313202261 -0.179121842 -0.042384199 -0.107041407 8.656408162 -0.033284111 -0.020148409 -0.026477104 5.210442675
9.568854077 0.282237938 -0.149468230 0.168662547 6.969221741 -0.128353499 -0.071053534 -0.102103643 5.117062321
8.979293755 0.181930092 0.142842523 0.108719589 9.257858211 0.059836323 0.067903835 0.047599065 5.343084712
9.593372804 0.271254817 -0.146120340 0.162099145 6.868574480 -0.143600886 -0.069462029 -0.114232753 5.124871037
9.567027087 0.277667364 -0.122403364 0.165931219 7.108876079 -0.071944808 -0.058187559 -0.057231217 5.112285835
9.687670208 0.007874093 -0.200602637 0.004705479 7.979320627 0.126986398 -0.095361577 0.101016131 5.228614616
9.141108019 0.139563927 0.135314085 0.083401996 9.152090595 0.045494664 0.064325000 0.036190451 5.344025755
9.163763890 0.023024687 0.234245272 0.013759321 8.891557614 0.074792601 0.111354462 0.059496602 5.197112894
8.875140442 0.205086921 0.164828089 0.122557877 9.323320249 0.067604273 0.078355234 0.053778375 5.322955502
9.346398047 -0.351172927 -0.700356353 -0.209857402 8.825569095 0.091071197 -0.332932247 0.072446026 5.191305169
9.367833954 0.073065035 0.106654561 0.043662929 8.983177112 0.102222474 0.050700964 0.081316731 5.312391358
9.684089582 0.002452815 -0.195022620 0.001465778 8.019460249 0.129871189 -0.092708974 0.103310947 5.228837162
8.591717392 0.235004521 -0.149721527 0.140436333 9.018320314 -0.058904624 -0.071173945 -0.046857910 5.256612340
8.655388311 0.243417575 -0.099005098 0.145463889 8.919894829 -0.013909167 -0.047064597 -0.011064573 5.222974627
8.972105153 0.130789223 0.134273090 0.078158322 8.883489855 0.060437074 0.063830136 0.048076955 5.251247732
9.236089762 -0.023391876 0.257670858 -0.013978749 8.902101637 0.080809159 0.122490411 0.064282700 5.217845515
8.525391954 0.208732089 -0.137505189 0.124736193 9.203558970 -0.110154336 -0.065366597 -0.087626431 5.285594061
10.008291522 0.115025487 0.033824331 0.068738072 6.286606807 -0.046320744 0.016079258 -0.036847587 5.236066342
9.591044408 -0.141606355 0.002654966 -0.084622531 8.577786761 0.106760963 0.001262106 0.084927044 5.190164173
9.105837643 0.149935100 0.136744398 0.089599705 9.175180188 0.045260115 0.065004936 0.036003869 5.344663897
9.243056598 -0.028402771 0.259861716 -0.016973209 8.903470167 0.081158857 0.123531892 0.064560881 5.219749012
9.576471047 -0.167068438 0.027215039 -0.099838415 8.638241531 0.099219604 0.012937363 0.078927985 5.183359324
9.319955210 -0.151588512 0.031606574 -0.090587767 8.623550136 -0.058001174 0.015024991 -0.046139226 5.249924277
8.523763694 0.208148119 -0.133082055 0.124387218 9.218057208 -0.114143079 -0.063263947 -0.090799427 5.283697767
9.093649721 0.062959985 0.207901751 0.037624253 8.885879894 0.065146055 0.098831398 0.051822892 5.188952814
9.330898092 -0.268668769 -0.308177636 -0.160553748 8.778909919 0.044364074 -0.146500096 0.035291080 5.171169658
9.348300288 -0.350824348 -0.709692803 -0.209649095 8.825195522 0.094005049 -0.337370566 0.074779870 5.189239638
8.524475474 0.208405654 -0.135347977 0.124541118 9.210851598 -0.112127299 -0.064341112 -0.089195899 5.284723091
9.850843020 0.173339331 -0.010180469 0.103585837 6.422360877 -0.089008971 -0.004839546 -0.070805550 5.217631157
9.389557889 -0.228531132 -0.536147429 -0.136567902 8.814243152 0.177074912 -0.254871349 0.140860932 5.078720979
8.838607394 0.203181403 0.176616228 0.121419159 9.350464848 0.050222246 0.083959027 0.039951184 5.294076103
8.603460920 0.225244385 -0.015596518 0.134603774 9.383432503 -0.131735304 -0.007414202 -0.104793828 5.238345529
8.661274065 0.224509925 0.049416025 0.134164868 9.407704131 -0.100401054 0.023491167 -0.079867814 5.238193237
8.909159056 0.198777992 0.150831693 0.118787725 9.303986543 0.071345481 0.071701691 0.056754460 5.337072626
9.283246141 -0.060001574 0.270862202 -0.035856336 8.912486315 0.083043075 0.128761253 0.066059753 5.229191142
9.508895685 0.003233584 -0.152723243 0.001932357 8.832978465 0.202914977 -0.072600887 0.161416389 5.221204359
9.593123733 0.231372926 -0.069850182 0.138266129 7.218453979 -0.019298965 -0.033205065 -0.015352091 5.112903862
9.666195000 -0.021079112 -0.154797580 -0.012596665 8.155128910 0.133507935 -0.073586976 0.106203934 5.227796832
9.314655884 -0.197550442 -0.099477583 -0.118054153 8.682764741 -0.014030506 -0.047289205 -0.011161097 5.185362283
9.563332903 -0.190735655 0.049658028 -0.113981705 8.691798203 0.092712580 0.023606210 0.073751726 5.179411803
9.583533202 -0.154536745 0.015139594 -0.092349601 8.608971666 0.102825222 0.007196992 0.081796210 5.186433758
10.230935627 0.056381473 0.010021113 0.033693000 6.160138381 -0.001246866 0.004763792 -0.000991866 5.120928736
9.043408459 0.090818619 0.177960924 0.054272291 8.883869866 0.061934399 0.084598262 0.049268059 5.208509720
9.313022786 -0.184430182 -0.058788176 -0.110213618 8.663671642 -0.027937518 -0.027946458 -0.022223955 5.202571930
8.957330242 0.138936447 0.127268063 0.083027020 8.882834908 0.058818306 0.060500118 0.046789245 5.257199226
10.077315173 0.097144656 0.032302747 0.058052667 6.242843798 -0.028469017 0.015355934 -0.022646756 5.222795553
9.564285394 0.283585501 -0.135531125 0.169467837 7.074694305 -0.089815358 -0.064428175 -0.071447022 5.113984244
9.352161881 -0.122237947 0.274100557 -0.073048165 8.928737174 0.088254132 0.130300688 0.070205086 5.237816647
9.317591410 -0.207953060 -0.129897927 -0.124270653 8.698527192 -0.002903245 -0.061750291 -0.002309496 5.175306363
9.873504033 0.163199773 -0.001663565 0.097526539 6.400145208 -0.083347230 -0.000790818 -0.066301705 5.222608678
9.167961207 0.131520443 0.135077384 0.078595291 9.133888424 0.046817091 0.064212478 0.037242424 5.343300095
9.624784438 -0.085333413 -0.050912016 -0.050994388 8.423208267 0.125273113 -0.024202325 0.099653233 5.209025668
9.462500281 -0.047379259 -0.321144390 -0.028313368 8.821373326 0.205209193 -0.152664173 0.163241410 5.158005434
10.305820028 0.039448769 -0.003611410 0.023574187 6.153139285 0.001692529 -0.001716776 0.001346386 5.040621985
9.220062338 0.116070864 0.136293556 0.069362778 9.096836307 0.052761226 0.064790616 0.041970912 5.341024459
8.996429631 0.117259546 0.147341040 0.070073123 8.883817458 0.062012855 0.070042320 0.049330470 5.238644293
9.698066942 0.036710492 -0.196622687 0.021937820 7.770638485 0.105326778 -0.093469607 0.083786167 5.239671001
8.881823381 0.204260271 0.161496580 0.122063879 9.319519578 0.069235059 0.076771516 0.055075645 5.326768676
9.667878133 -0.018868593 -0.159227802 -0.011275681 8.143919007 0.133405870 -0.075692995 0.106122743 5.228160376
8.992855165 0.178802798 0.142474364 0.106850750 9.248613592 0.057020611 0.067728821 0.045359201 5.343297026
9.136327843 0.039010765 0.225080159 0.023312440 8.888984119 0.071191166 0.106997592 0.056631704 5.191007251
9.321235684 -0.218965155 -0.159778260 -0.130851370 8.715046985 0.008218750 -0.075954669 0.006537915 5.168488853
9.526899323 -0.235379212 0.106417272 -0.140660245 8.808257937 0.076596261 0.050588163 0.060931391 5.179851486
9.315978133 -0.202674542 -0.114751396 -0.121116264 8.690506765 -0.008510572 -0.054550002 -0.006770056 5.179959506
9.486962731 0.016578747 -0.049601827 0.009907292 8.861208576 0.180156470 -0.023579493 0.143312275 5.244947804
9.289727855 -0.065524490 0.272198945 -0.039156775 8.914075017 0.083392979 0.129396708 0.066338098 5.230429325
8.761186257 0.228048823 0.020348874 0.136279678 8.865447477 0.032604095 0.009673356 0.025936160 5.229174740
8.612835630 0.225964410 -0.005251837 0.135034054 9.389529425 -0.127461188 -0.002496594 -0.101393821 5.238152980
9.490594883 -0.022294014 -0.269072304 -0.013322678 8.822245381 0.210072236 -0.127910380 0.167109901 5.185433858
9.631887120 0.172587005 -0.065149546 0.103136255 7.339926194 0.018639047 -0.030970498 0.014827134 5.152886931
9.350601801 -0.350026977 -0.717500448 -0.209172594 8.824936119 0.097068916 -0.341082130 0.077217138 5.187001885
9.534620403 -0.229565554 0.094291815 -0.137186061 8.787988443 0.079395934 0.044824018 0.063158497 5.178952356
9.342962437 -0.329718579 -0.566810485 -0.197036500 8.828433487 0.072097363 -0.269447814 0.057352573 5.195870292
9.316755123 -0.205294208 -0.122344121 -0.122681750 8.694487019 -0.005712470 -0.058159397 -0.004544200 5.177534363
9.408303382 -0.127878517 -0.422468114 -0.076418913 8.825150863 0.186830001 -0.200830988 0.148620987 5.098756445
9.263421943 -0.043829749 0.265897578 -0.026192216 8.907823552 0.082095517 0.126401193 0.065305983 5.224896086
9.398453391 -0.148781509 -0.439896833 -0.088910330 8.821901066 0.183361963 -0.209116174 0.145862205 5.090082646
9.414619172 -0.115485038 -0.410750930 -0.069012695 8.826110368 0.188934986 -0.195260926 0.150295477 5.105283440
10.068668901 0.099356421 0.033081394 0.059374396 6.247919098 -0.030587442 0.015726084 -0.024331937 5.225525252
9.481657836 -0.030027748 -0.288218127 -0.017944280 8.821486645 0.209128147 -0.137011834 0.166358890 5.176490740
9.338315704 -0.305173584 -0.467359102 -0.182368658 8.815625424 0.062778383 -0.222171064 0.049939438 5.186812243
9.475376371 -0.035499747 -0.299734551 -0.021214291 8.821234520 0.208100063 -0.142486460 0.165541062 5.170436529
9.319813000 0.088028959 0.127652208 0.052605218 9.021228845 0.080822707 0.060682731 0.064293477 5.326718927
9.082784630 0.068948866 0.202396949 0.041203147 8.885253930 0.063882549 0.096214549 0.050817788 5.190897269
9.357542560 -0.346262705 -0.729719919 -0.206923103 8.824560480 0.105174747 -0.346890967 0.083665228 5.180627094
9.966989688 0.126996990 0.028080750 0.075892121 6.317431298 -0.057726995 0.013348900 -0.045921120 5.235894809
9.598712376 -0.128746794 -0.009631249 -0.076937787 8.545613631 0.110890413 -0.004578460 0.088211971 5.194279181
8.913606778 0.197726123 0.149638427 0.118159138 9.301320300 0.071145285 0.071134441 0.056595206 5.338108799
9.114586146 0.147399693 0.136289237 0.088084571 9.169524186 0.045166902 0.064788563 0.035929720 5.344548941
9.320886333 -0.148723805 0.038063770 -0.088875847 8.620502247 -0.060395561 0.018094583 -0.048043932 5.253408142
8.552466902 0.215213178 -0.072934094 0.128609226 9.330919264 -0.144420118 -0.034671081 -0.114884442 5.246774634
9.406244986 -0.132055306 -0.426144755 -0.078914920 8.824649312 0.186133806 -0.202578774 0.148067172 5.096787081
9.513469918 -0.241404262 0.128980651 -0.144260754 8.840303980 0.073356971 0.061314241 0.058354576 5.182371998
9.386924028 -0.184415778 -0.470607438 -0.110205010 8.814877778 0.178206849 -0.223715243 0.141761374 5.081345318
9.580059634 0.252651142 -0.087388151 0.150981776 7.176306767 -0.037223072 -0.041542185 -0.029610500 5.109321728
10.339116335 0.030272100 -0.010169122 0.018090302 6.168347569 0.001114037 -0.004834151 0.000886203 4.999594618
9.494833372 0.012880912 -0.073775773 0.007697503 8.851815799 0.187210329 -0.035071194 0.148923533 5.238925821
9.382817988 0.067701566 0.096915417 0.040457774 8.970744092 0.109818348 0.046071214 0.087359156 5.306614962
9.347294848 -0.351057194 -0.705205396 -0.209788241 8.825366546 0.092519180 -0.335237363 0.073597879 5.190295702
9.497690559 -0.241952980 0.158214443 -0.144588662 8.874196311 0.073097735 0.075211269 0.058148357 5.187935434
10.404505188 0.000388453 -0.000524887 0.000232136 6.217238648 -0.000223264 -0.000249518 -0.000177604 4.946757043
8.679573928 0.243610536 -0.067505828 0.145579201 8.895662868 -0.000293654 -0.032090616 -0.000233598 5.216720236
10.034032583 0.108229777 0.034665443 0.064677024 6.269303346 -0.039438473 0.016479102 -0.031372824 5.233306203
9.439521819 -0.073775301 -0.360880202 -0.044087376 8.823858951 0.197839208 -0.171553604 0.157378677 5.134020062
9.437038178 -0.077279606 -0.365682625 -0.046181514 8.824263517 0.196920866 -0.173836559 0.156648147 5.131206456
9.904381217 0.149883048 0.009716565 0.089568599 6.371205943 -0.075160267 0.004619017 -0.059789076 5.228232805
9.340168623 -0.312741623 -0.499303355 -0.186891242 8.820944499 0.065935837 -0.237356579 0.052451154 5.189910248
9.668757131 0.104562542 -0.104337244 0.062485521 7.511058165 0.061176904 -0.049599369 0.048665481 5.210023337
9.341701877 -0.320232581 -0.529474799 -0.191367763 8.825048052 0.068753455 -0.251699344 0.054692534 5.192759422
9.695484567 0.024574161 -0.205726452 0.014685271 7.849047703 0.113109320 -0.097797314 0.089977084 5.234300513
9.566055047 0.284018759 -0.148415741 0.169726748 6.993627742 -0.121828639 -0.070553206 -0.096913197 5.115976916
8.532062326 0.209795892 -0.100250238 0.125371911 9.292399180 -0.137301945 -0.047656506 -0.109222022 5.261772953
9.214602129 -0.008667596 0.250741306 -0.005179668 8.898285536 0.079534048 0.119196272 0.063268365 5.211675447
9.600679802 0.219916814 -0.064187004 0.131420072 7.240530206 -0.011122872 -0.030512929 -0.008848109 5.117567512
8.740975649 0.211784798 0.131258032 0.126560461 9.400025847 -0.036577535 0.062396852 -0.029096983 5.247593877
9.569772545 -0.179187033 0.038755645 -0.107080365 8.665836068 0.095877396 0.018423484 0.076269299 5.181010910
9.386122572 -0.191693705 -0.478654852 -0.114554226 8.813917042 0.177578738 -0.227540787 0.141261720 5.080343994
9.339434952 -0.110468402 0.275516882 -0.066014804 8.926085952 0.087111940 0.130973974 0.069296486 5.237049546
10.325281236 0.034432465 -0.007741977 0.020576494 6.160739491 0.001413066 -0.003680346 0.001124076 5.016796672
9.691686469 0.062744113 -0.154828676 0.037495249 7.646606203 0.090414670 -0.073601758 0.071923767 5.236142971
9.588402696 0.238779784 -0.074891505 0.142692392 7.204152589 -0.025019969 -0.035601586 -0.019903080 5.110926180
9.320309215 -0.216158834 -0.152340813 -0.129174340 8.710889194 0.005477927 -0.072419089 0.004357624 5.169871412
9.445153993 0.039149435 0.032700671 0.023395308 8.911492188 0.147173315 0.015545098 0.117074577 5.274143085
8.745287622 0.211117450 0.134466039 0.126161660 9.399005046 -0.032429471 0.063921860 -0.025797249 5.248903267
8.868830743 0.205547675 0.168013549 0.122833219 9.327088495 0.065596865 0.079869524 0.052181506 5.318803676
9.388675506 -0.222105905 -0.524172803 -0.132728251 8.813684607 0.177064574 -0.249178905 0.140852709 5.078553158
9.613639687 -0.104045934 -0.032757292 -0.062176802 8.479460410 0.119184560 -0.015572014 0.094809864 5.202714316
9.563635592 0.285385423 -0.142410216 0.170543453 7.046480203 -0.102873333 -0.067698327 -0.081834481 5.114763237
9.636695123 0.164574441 -0.068251645 0.098348027 7.358490760 0.023447902 -0.032445160 0.018652520 5.160118144
10.261603712 0.049193341 0.005202883 0.029397445 6.150870230 0.000916558 0.002473323 0.000729111 5.090454204
9.604088806 0.267220574 -0.142096647 0.159688322 6.840041728 -0.144756547 -0.067549264 -0.115152068 5.127202300
8.755757929 0.229803969 0.016168976 0.137328536 8.865996583 0.031124673 0.007686335 0.024759298 5.227300400
9.636368392 -0.065640315 -0.073828974 -0.039225991 8.354281596 0.130516496 -0.035096485 0.103824281 5.215312898
9.389443215 -0.173032816 -0.459689544 -0.103402667 8.816907502 0.179583107 -0.218525144 0.142856171 5.083414437
10.255618438 0.050530493 0.006207048 0.030196514 6.152079585 0.000605027 0.002950679 0.000481292 5.096676338
8.577701653 0.221394282 -0.043898306 0.132302992 9.361564050 -0.141073642 -0.020868179 -0.112222361 5.240226795
9.951236946 0.132145350 0.024407671 0.078968730 6.330224824 -0.062141267 0.011602809 -0.049432620 5.234601869
9.574203572 -0.171157194 0.031126207 -0.102281814 8.647616321 0.098080794 0.014796636 0.078022076 5.182493801
9.843398938 0.176673657 -0.012955742 0.105578397 6.429888489 -0.090799409 -0.006158842 -0.072229822 5.215793337
9.313340951 -0.189728228 -0.075338125 -0.113379677 8.671211785 -0.022410606 -0.035813898 -0.017827364 5.195141901
9.468330663 0.026209526 -0.006145960 0.015662548 8.884217068 0.164490561 -0.002921639 0.130850235 5.258456559
9.656492112 0.128093712 -0.087627609 0.076547512 7.448259764 0.045806355 -0.041656018 0.036438397 5.191943118
9.316417373 -0.162862135 0.004047021 -0.097324770 8.636119958 -0.048359568 0.001923855 -0.038469447 5.234818037
9.613867063 0.200380160 -0.060235995 0.119745164 7.279482914 0.001660651 -0.028634716 0.001321027 5.129681000
9.444727574 -0.066916541 -0.351187841 -0.039988651 8.823062353 0.199715568 -0.166946093 0.158871298 5.139767416