5.4284635393 2.6987481353 2.4614026544 2.7635082030 4.6877621273 4.8859337272 2.2469526234 1.5079451862 2.6142387565 7.6532000359 1.4015209460 -0.0758182259 8.1048559297 4.7153874158 2.5904441187 1.1522235719 4.4535087449 2.1346447944 4.0845003766 1.6765238836 4.8141107489 9.2516232832 1.5673966380 2.7060179422 6.1721513146 4.6667440357 0.2600283942 1.4212730681 4.6534807155 3.6227885878 3.9266889969 1.6985356423 1.3192192321 9.0685633140 1.6544021950 1.1759094046 6.3630606077 4.4361094109 3.7356760080 4.6473522466 4.7783125978 0.7101919443 0.3903312157 1.3200576548 3.0507801929 5.5665486245 1.5752315384 4.2868536473 9.9941736183 4.3563704606 1.8831511274 1.7878057054 5.6289200051 1.2972882784 3.2124926816 0.4337994945 4.1789031501 8.4000734375 2.6709293336 3.4787079115 6.9003404000 3.5409644049 1.0809320105 8.5247036318 0.2434604233 3.4181124126 6.8996919010 5.9773668103 0.7208963469 2.0174070377 3.2140086367 1.7138437898 3.3499108129 2.8322093324 4.0406303019
4.2968224482 4.1040299030 2.5461060587 2.7994088964 5.9481552452 4.8434457027 2.0597523737 1.9636846920 2.5146023747 6.9617179737 1.5604554515 -0.1849423666 7.6975293994 4.9263441016 2.6829418542 1.2064312202 5.2434729287 2.1919428096 3.6986979123 1.8016631630 4.7777871340 8.5046588662 1.7383731513 2.6021674816 5.9634319297 5.5420113851 0.1470657991 1.4472478869 5.4263210685 3.7047233037 3.4622382888 1.8602347186 1.1993353192 8.4503661586 1.6117691621 1.0613783903 6.1429447325 5.1808248058 3.7072771439 4.4154639291 5.3754138545 0.5161168891 0.4346804281 1.3576453395 3.1178029793 5.1794203612 2.1798556688 4.3814821779 9.2608210141 5.5216335553 1.6812067427 2.0586415219 6.3735164125 1.4267007337 3.1695882995 0.5048301050 4.1631641523 7.9779045210 3.0349018113 3.3630697347 6.5774434068 4.4613946087 1.0630298030 7.6521783888 0.6079751925 3.2845835431 6.5290986848 6.9346778233 0.4876833726 1.7551294900 3.8495746107 1.7544632914 2.9393009017 2.9766198070 4.0966413893
4.4538856878 4.4508441638 2.8379998804 2.6663066040 7.9288866618 5.5199284060 1.6871322429 2.9924824880 1.9864161540 6.3459401928 1.1814711024 0.3950144162 7.2783438298 5.8273328354 2.9619341704 1.5717519888 6.2117982683 2.9710624142 3.2138956398 2.0073470796 4.6548828171 7.3789018091 2.5923262980 2.9942452460 5.8994768555 7.1064660846 0.1071855659 2.3934827614 6.5733207277 4.2805950563 2.6745333415 3.0698541891 0.3566541662 6.7929209634 1.3981342744 2.2336333158 5.7987708734 6.1673743733 4.2233610011 4.5892081220 7.6464069785 0.7279679462 -0.0625925963 2.6159491199 2.3688551352 4.6204601244 1.4909199190 5.0930423686 8.9754812570 6.2576226232 3.5015771901 1.6764099062 7.3315598476 1.9229517225 2.2113192535 0.7612791034 4.6922863716 6.6937335018 3.9667847359 2.6909322763 6.8559221020 6.3632531083 1.1489952123 7.3868017534 2.4886604893 4.5626508358 6.8316889607 8.3193740195 -0.2946365395 2.0664689497 4.8619299019 2.3616407321 3.2404356520 2.6385994074 3.2346273699
4.2245825865 4.5246094726 2.7487986300 2.4738816738 7.9147249011 5.5662749460 1.7057343352 3.0306475403 1.9796534770 6.2528215497 1.2135944979 0.1894038203 7.1484045249 5.8949233443 2.8230675561 1.6163401126 6.1942942188 2.8576519367 2.9962985560 1.8395300240 4.5541821949 7.2053470002 2.7833876708 2.8109761733 5.9507425453 7.1987504489 0.0568019538 2.4554155113 6.6235918554 4.1064940795 2.3969618613 2.9137482242 0.2688893157 6.5021843190 1.5669067206 2.1523734952 5.7489018398 6.3442252891 4.0475267993 4.5650315187 7.6221530873 0.4268943830 -0.0447032155 2.6556129087 2.3982416812 4.4469739806 1.6652697174 5.0495534443 8.9273065220 5.9123391578 3.3259865003 1.5363492697 7.3486639417 1.8415682134 2.0497689032 0.5760940731 4.6044151900 6.4098977038 4.0699206837 2.3739972824 6.8075205572 6.5164635164 1.1721372763 7.1169647701 2.5258183280 4.3800914898 6.8585397279 8.4157174841 -0.3787962568 2.3347673047 4.9514805578 2.2387313036 3.0745368741 2.3042667679 3.0910739208
4.3552040772 3.9772184898 2.5940550390 2.7590431473 5.7124420287 4.7899361244 2.0687497642 1.8696792069 2.5914057521 7.0359411184 1.6341911485 -0.2322131861 7.6294308457 4.8434332102 2.5655033817 1.1846620005 5.1000555985 2.0861161555 3.7175617802 1.8376193733 4.8556136387 8.4978120771 1.6686123614 2.5497705407 6.0106453332 5.4960497072 0.1202155121 1.3491555512 5.3180504301 3.6396104873 3.5674357501 1.7872003483 1.2425294458 8.4798147732 1.6458198274 1.0000428146 6.0800986398 5.1501925495 3.7385909102 4.5060650323 5.3905236498 0.4469229145 0.4331787273 1.2522995692 3.0544769327 5.1714263326 2.0755762220 4.3630078367 9.2302362342 5.3444183412 1.6484715041 2.0054938023 6.1991273160 1.3932543802 3.2132938681 0.4814850690 4.1033607737 7.8627047477 2.9518063378 3.1944108431 6.5346590367 4.3115960184 1.0669539566 7.7555219906 0.5203547449 3.2726993719 6.5539570691 6.8411722273 0.6132361863 1.7254954187 3.7155873030 1.6351324586 2.8354885748 2.8611993534 4.0241099014
4.4672177275 4.4611787607 2.5086211392 2.7278171499 7.0781812924 5.3876160755 1.8794214319 2.7921199742 2.3183361001 6.8813754986 1.0257889538 -0.0175820891 7.6691452642 5.0906315762 2.7257750575 1.1581058274 6.0103193125 2.6495026071 3.7379307818 2.0734315552 4.8657805497 8.5233942936 2.0417008992 2.7010310593 5.8386073108 5.9005775934 0.1408478665 1.8981934159 6.1247527974 3.9993226532 3.1720377884 2.3303879858 0.9963313182 7.7018579287 1.9528524772 1.3917647929 6.2362556109 5.7470231008 3.8848279578 4.2624241446 5.6660581164 0.2419741787 0.3039433914 1.7360010534 2.4464087779 5.2873563200 2.2732560546 4.9577473765 9.3121342248 6.2274127638 2.5114820293 1.8568308843 7.0692152848 1.7173297383 3.5622061731 0.5678097724 4.4768358396 8.4104380720 3.4799965211 3.2838577581 6.4072100543 4.9551753405 1.2412621055 7.9345718200 0.9957988196 3.6685348729 6.0973859162 7.3904322815 0.5094926853 1.5008074265 4.5986250533 2.0532525076 3.2137419369 2.9663117254 3.7080513883
3.7748614512 4.0523010411 5.6382334485 2.7714417960 7.1302554812 5.3771277816 1.2171087642 2.6267313508 1.7690031231 6.0772467886 1.4461812141 -1.0109994489 7.5307834235 5.9290577982 2.4747801008 1.5184332345 5.7657822168 2.6906882972 2.7519553635 1.5577842285 4.4199628211 7.3589733420 2.6949376026 1.5814451288 6.3288559314 6.9390599744 -0.0500599203 2.3305844650 5.6228435857 4.0713873989 2.6453377984 2.1692123537 0.6330757939 6.1362736724 2.4015742771 0.6833258622 6.8892863437 6.1903276645 4.2361693627 4.9763219786 6.2597808974 0.2796372001 -0.7286024312 2.3349771835 1.7010089216 3.9493166697 2.1725625933 3.7140817291 9.4763343918 5.8563021539 2.4032959963 2.1053024501 6.9520834071 1.8821249219 3.0237422984 0.1566055017 4.9883605928 7.5234619067 4.2388706659 1.5636841878 7.1058999724 7.2390156709 1.2999576216 7.0965569251 2.3122771038 3.0801808245 6.2772734952 8.3463730792 -0.7137824851 1.7241174459 4.4791730246 1.8239690566 1.6134491219 1.6034073354 3.4244472728
4.6109675991 3.7012293864 2.6734361234 2.6926659562 5.3695295750 4.8299245825 2.1782034973 1.7313894591 2.6731710189 7.1935915859 1.6267695119 -0.2754294940 7.6154634148 4.6861578985 2.5083649593 1.0974721798 4.7130715174 2.1042101869 3.8109273462 1.6968006327 4.9514302848 8.6018899355 1.5205944975 2.5808731131 6.0305893081 5.3568229634 0.2426833881 1.3268965249 5.0434819111 3.6091683993 3.7911920884 1.7978931082 1.3213643579 8.5095447986 1.7766610867 1.0638258714 6.2998634411 5.0138254203 3.8885567045 4.4764032169 5.2496614258 0.4474070285 0.4208403605 1.1803441910 3.0892772994 5.3265954846 2.0132113206 4.6164281903 9.2812463586 5.0487589094 1.7367180620 1.7733219133 5.8600429086 1.2665367639 3.2286459565 0.4534508113 4.1406329853 7.8578938061 2.7813253475 3.1179095316 6.6458327920 4.0815990289 0.9640943835 7.9022769358 0.4330973864 3.4055701574 6.7239796490 6.6232680331 0.8158129155 1.7871160838 3.3806093055 1.6556614776 2.9438446386 2.9128783734 4.3332729981
5.3629844905 2.9055780051 2.6000782604 2.7916637480 4.7563171571 4.9796920210 2.3237976356 1.4829497770 2.8053645408 7.5998055692 1.3643921528 -0.1140651392 7.9985856186 4.6676254101 2.6852998957 1.1076219982 4.3434019912 2.1936186588 4.0508047126 1.6483663207 4.9753421272 9.2049787694 1.4861929378 2.7254218078 6.0225899399 4.7363996982 0.2309781166 1.2750254423 4.7663249514 3.6963643003 3.9738321555 1.6443076191 1.3791433198 8.9422019384 1.6658790930 1.2337091732 6.3068592193 4.4481697827 3.8525211908 4.5564377346 4.7821746786 0.7069468135 0.4304719267 1.3154762324 3.1648472298 5.5167313625 1.6849756206 4.4764558902 9.8345985709 4.1892526505 1.9208363838 1.7214042163 5.5181307278 1.3054229282 3.1149115996 0.6018922277 4.2812387481 8.4581289768 2.6139780598 3.5263353182 6.8446647717 3.7430553389 1.1458219343 8.4230016697 0.2986012947 3.3651467499 6.9099185697 5.9845075359 0.7591452235 1.9466522751 3.1327263506 1.6381564981 3.3708889234 2.9594320523 4.3018031597
4.3594153193 4.9284156315 4.1260257324 2.7438228273 7.9483510520 5.4780935173 1.8174024756 3.2555126457 2.0154756613 5.9540756824 1.5939506589 0.0884600778 7.1770004858 6.2592767160 2.8585072634 1.8244469221 6.2934104085 2.8470981019 2.7159452393 1.7865139240 4.6111010884 7.3084605943 2.9763087457 2.7092030532 6.0088592493 7.7592512737 0.2602703793 2.7976385076 6.6411599789 4.0302786147 1.7058465447 2.7293095715 0.1128496439 6.6254372497 1.9188582845 1.8408415158 6.0517341802 6.7839688123 4.2946489544 4.5999420031 7.6755887684 0.9279725882 0.0760880909 2.8410156454 2.2907907561 4.1849773643 2.1158621868 5.1631758890 9.1309743113 6.2257889967 3.3929344515 1.9090997796 7.4410590168 1.8306113774 2.4276006123 0.2859213207 4.8703051850 6.6652525858 4.3724228636 2.4310822266 7.1107418713 7.3373219763 1.2951772426 7.0343380189 2.5534929106 4.1769786455 6.3515130709 9.1242022094 -0.3804973306 2.5275253139 4.9702409478 2.3035477007 2.7524448002 2.0391596444 3.0536066768
4.4210485184 4.4558190500 2.8279033204 2.6379824410 7.9301378674 5.5331941474 1.6904769602 2.9891838911 1.9863395019 6.3320729029 1.1800614552 0.3745062338 7.2676279397 5.8409536794 2.9569699677 1.5848221103 6.2153420512 2.9651349213 3.1894338175 1.9908996755 4.6492337851 7.3437200147 2.6071787824 2.9831678758 5.9146855674 7.1099907423 0.1094759557 2.3987255010 6.5744186727 4.2738298979 2.6456426674 3.0344569315 0.3502781251 6.7630085972 1.4101525244 2.2293151271 5.7881223662 6.1710339030 4.1852788470 4.5721485080 7.6720351868 0.6914297207 -0.0546876596 2.6354990459 2.3665985328 4.6048527695 1.5055455064 5.1047309871 8.9858830012 6.2057142158 3.4825084302 1.6556039759 7.3281196430 1.9091083053 2.1892870713 0.7642726097 4.6758450936 6.6722580030 3.9808905394 2.6589142345 6.8797165648 6.3979382463 1.1402290620 7.3641724015 2.5273095913 4.5419386460 6.8404560247 8.3170427867 -0.2818522133 2.0966434829 4.8654552070 2.3564195232 3.2072577144 2.6180323044 3.2018713808
4.6622227258 4.6004385634 2.9741612604 2.8063309325 7.7203686504 5.4830281083 1.8896947137 3.1776411313 2.1890051821 6.6068822143 0.9942694424 0.4594832362 7.6538275133 5.5445187720 3.0495394873 1.1994474175 6.5019312221 2.7867595291 3.5989176226 2.0352257239 4.8479592497 8.1640178135 2.2127266162 3.1536259982 5.9158368809 6.6360265886 0.3891248260 1.9768516351 6.6892648561 4.0828146252 2.8071205403 3.0725828533 0.5322885735 7.1608285046 1.2902618751 2.3470609493 5.9565166020 6.0581472530 4.1360566501 4.3776538476 6.7855715935 0.8016526471 0.1613452571 2.3175808636 2.2122781251 5.1449506834 1.9303843282 4.9312734458 9.0862644297 6.6633997577 3.2444950164 1.7159308894 7.5533251405 1.7576982777 2.9439588782 0.7012133446 5.1680328690 7.6578722966 3.7007767657 3.1698151243 6.6902877013 5.6623302329 1.3210154920 8.1464040242 1.7143651022 4.6354134545 6.6040527444 8.0129499508 0.2637927218 1.4669752251 5.0486805166 2.3549196061 3.2334017468 2.3632622158 3.3613717097
4.3090049720 4.0702005596 2.5609320406 2.7893852806 5.8779252316 4.8212106636 2.0602166881 1.9317222055 2.5379250167 6.9803604880 1.5892162822 -0.2012243875 7.6724335881 4.9056917710 2.6477536457 1.1975976117 5.2171103519 2.1620846468 3.6970401890 1.8047536888 4.8093326789 8.4919030268 1.7199643214 2.5848930696 5.9822439636 5.5338617422 0.1229522882 1.4228746108 5.3942702642 3.6880454938 3.4816632619 1.8383026957 1.2027909431 8.4734749355 1.6099783419 1.0394588986 6.1283575494 5.1728068815 3.6961023016 4.4238225298 5.3838229450 0.5044949927 0.4322244872 1.3272434250 3.0925174533 5.1845089111 2.1593575264 4.3530978506 9.2590680428 5.4658105695 1.6538231514 2.0588181073 6.3288819960 1.4090940779 3.1780598973 0.4964298540 4.1496175618 7.9434441784 3.0034634433 3.3166143612 6.5527108828 4.4156388203 1.0681103395 7.6908970012 0.5940703743 3.2622982928 6.5405689375 6.9143128841 0.5267205183 1.7401945727 3.8059746185 1.7084239760 2.9057588957 2.9502466794 4.0674796317
3.8162096799 4.0916280031 5.5668203407 2.8229933189 7.0991022315 5.3750333433 1.2415526452 2.6694900873 1.7747217774 6.0793972737 1.4774418674 -0.9656398536 7.5306735718 5.9470590384 2.5162562502 1.5613277343 5.7832182271 2.7189798099 2.7265239859 1.5690070797 4.4159445323 7.4265230513 2.7000170440 1.6585382293 6.3407842527 6.9944494984 -0.0111494295 2.3739329345 5.6490961734 4.0049485118 2.6371288915 2.2541107621 0.6256742597 6.1082636783 2.3677612465 0.8515958830 6.9292445354 6.1994824193 4.2243203112 4.9625009133 6.3302434542 0.2559390330 -0.6498649493 2.3258772585 1.7381798248 4.0638578979 2.2156164426 3.7902506089 9.4966112872 5.8660388237 2.3945739091 2.0651200889 6.9773102984 1.8554011358 3.0742540670 0.1704730567 5.0055512468 7.4930490422 4.2432507069 1.5870992179 7.1141973294 7.2259416201 1.3009675037 7.1805478734 2.3413114664 3.1687618191 6.2670794268 8.4072728975 -0.6406891471 1.8049524025 4.5538139744 1.7713093992 1.6121602430 1.5392743018 3.3562035544
4.3582115836 4.9375800707 4.3161848210 2.8210164864 8.0257305788 5.5189162495 1.8212202291 3.2031648952 2.0728961164 5.9741348648 1.5912027418 0.1258955354 7.2297585004 6.2731014400 2.9259098475 1.8949356567 6.2553061286 2.9134304827 2.7798550059 1.8207932526 4.6343861377 7.2979602708 3.0449550876 2.7536681023 6.0620359274 7.7273781127 0.3590530114 2.7819201720 6.6393153125 4.1018422051 1.6723214764 2.7564983043 0.0935639950 6.6079490616 1.9548910301 1.8119239959 6.1476431996 6.7273861282 4.3186574845 4.6015406130 7.6195926676 0.9110300267 0.0059570449 2.9016558527 2.3662061367 4.1896603111 2.1655666395 5.1665556215 9.1537995630 6.2399569887 3.4128575453 1.9717193955 7.4304399205 1.8621265635 2.5644558744 0.3286717834 4.8387274646 6.6812562258 4.4634892111 2.5633725105 7.2137093028 7.4007562310 1.3405374228 7.0246369138 2.5385361119 4.1606323737 6.2969192239 9.1487697652 -0.2766945926 2.5103965258 4.9165023716 2.3867951040 2.8528009438 1.9440139584 3.0615632022
4.3780319160 4.4902880905 5.3630125504 3.1205400775 7.3469760364 5.4794103798 1.4125593750 2.8176000671 2.0601787721 6.3274783087 1.6025157846 -0.3169869995 7.9440721590 6.0402353421 2.7686551098 1.8325607354 5.9228261911 2.9058389340 2.9255594247 1.6984840818 4.5067539369 7.5998619020 2.9093276214 2.2698295133 6.4722473314 7.2200330207 0.2311409145 2.7369027209 5.9552605888 4.1606010833 2.1883833552 2.2501045087 0.3628635908 6.6606647946 1.8198395423 1.5513303342 7.2626591702 6.4738454107 4.4521749069 5.0977705750 6.4885058655 0.6298764636 -0.4632974060 2.8241487151 1.9204266506 4.3412687125 2.4051914103 4.3218439925 9.8167457654 6.0063274362 3.1484553347 2.1345085850 7.0626050835 1.8574705182 3.1542652969 0.2633781483 4.9646150310 7.0272080420 4.3628398322 2.1563771193 7.2728161748 7.3100914174 1.5470298747 7.5692982315 2.5527627550 3.7814413781 6.2697346249 8.6024974335 -0.4372212763 2.1807255443 4.6009183107 2.1390471914 2.2202515207 1.5960163706 3.1256034572
4.6663239275 4.5329928853 2.8936661077 2.9568622637 7.8137014459 5.4102723697 1.8109939978 3.0895109287 2.0001967440 6.4296105142 1.1344000127 0.5133366920 7.3383177402 5.6962812524 2.9417595978 1.4307944782 6.4024497815 2.8841999824 3.4290395777 2.0219341520 4.6657097626 7.7125334612 2.4259373307 3.0514198345 5.8622746601 6.9611402050 0.2329007149 2.3316225596 6.5459277797 4.1742035275 2.8956933379 3.0822566714 0.4953419280 6.8561163969 1.3743627563 2.2653993017 5.9119726843 6.1809582900 4.1678085719 4.5075827575 7.2752573559 0.8102142060 0.0777427263 2.4027459354 2.4111438712 4.8625177043 1.6484731974 5.0088330055 9.0025704620 6.5615260330 3.4422826401 1.9213587464 7.3858741533 1.8230542062 2.4832748868 0.7719676613 4.9075527684 6.9424165283 3.7894065951 2.8849095232 6.5273093553 6.1465202057 1.3771515384 7.7955742564 2.0252211260 4.5719084754 6.5855820737 8.2654485345 -0.1552450658 1.6820959975 4.9446858579 2.4296274883 3.2810238723 2.5457234865 3.2348305984
3.9716658689 4.1964745562 5.4555113516 2.9300348734 7.0378591268 5.3760376048 1.2807876990 2.7584881060 1.8432561717 6.1085026846 1.5424050933 -0.7837341068 7.6524199012 5.9032452798 2.6082030453 1.6139179640 5.8824188856 2.6824459736 2.7515585449 1.5167461404 4.4327982427 7.4749233318 2.7731175638 1.8650317154 6.3767000092 7.1551796939 0.0348317350 2.5146049221 5.7530898256 4.0168924652 2.5818374606 2.4397165316 0.4582395835 6.2594009115 2.1610955332 1.1421165485 6.8824554740 6.2514057185 4.3226889540 5.0099709301 6.4763191087 0.2368523885 -0.5861313551 2.3787566915 1.8105726910 4.0383512185 2.2829399486 4.0118996849 9.5358026437 5.8391290322 2.5445702341 2.0928498201 7.0569015184 1.8221107960 3.1698134020 0.1432571132 4.9539814700 7.3980156836 4.3150453615 1.7170953641 7.0894629883 7.2959680621 1.4334486362 7.4130765605 2.3574457075 3.3800918088 6.1601214772 8.5325269643 -0.6022144058 1.9035902771 4.5888729056 1.8439440243 1.7243085017 1.4738201783 3.3150084136
4.3904727719 4.8052876513 3.3679692757 2.5679545042 7.7238445547 5.5121087806 1.7395993603 3.3474307373 1.8171808200 5.9671761944 1.5208140666 -0.0816161092 7.0666217401 6.0449718186 2.5939334670 1.6072203610 6.3081885614 2.7090454949 2.6221871839 1.6415150308 4.6082343341 7.1208691178 2.8478230862 2.5775247305 5.7399201037 7.6007088384 -0.0176114136 2.5191656007 6.5947647999 3.9858381658 1.8385680635 2.8655502017 0.0933655523 6.4229522934 1.7254749930 1.8345647295 5.6401498913 6.5291046697 4.0724490810 4.3988095645 8.0352924117 0.5761144249 0.0768881303 2.6290117632 2.3019979078 4.1162533212 1.8083916067 5.1185724052 8.7841859321 6.0494453812 3.2357598597 1.3565134227 7.4579014092 1.7366442411 2.0829413696 0.1970037098 4.9132767748 6.4707583241 4.2532139710 2.2512832081 6.6841055086 7.0204488680 1.0819045860 6.9257067503 2.6350569775 4.1435704535 6.3732354881 8.9513579401 -0.4654348421 2.3830652577 5.1537637207 1.9581586006 2.6488013621 2.1519482754 3.1687038170
3.8578640452 4.0640589522 5.9496492669 2.7854107091 7.0535860426 5.3725017883 1.0845171295 2.4350346154 1.8284535526 6.0822198856 1.2528242942 -1.0705222259 7.7205722644 5.8893164911 2.5553866079 1.5829247111 5.7627897310 2.8826529990 2.6704745688 1.5439685984 4.4356932415 7.3068045410 2.7341588542 1.4359981907 6.3205026917 6.9735706973 -0.0339226391 2.3494402694 5.7123525084 4.3015294988 2.6911149552 2.1815529274 0.6018820244 6.1400312772 2.6063928677 0.4006853762 6.8123224078 6.0586788720 4.2656322762 4.9194157773 6.3792702204 0.3380732760 -0.7260914834 2.4559339196 1.5404413399 3.9799500920 2.0493258463 3.8402614760 9.5269848777 6.0482686827 2.6146679628 2.3586883367 6.7061797194 1.9145992943 3.0477571519 0.0186937919 4.5976372832 7.4257469972 4.3005234947 1.6060807080 7.0711493243 7.2793224914 1.3297326747 6.7975374304 2.0891687672 2.7317793019 5.9735044447 8.2332837134 -0.8629468303 1.4165241678 4.3708018830 2.2543496343 1.3719913896 1.6995604816 3.5869323357
4.3621753516 4.4700601000 2.8068696118 2.5898746708 7.9308199598 5.5530615582 1.6968730975 2.9878235387 1.9855761067 6.3093177458 1.1784754981 0.3321671797 7.2432064334 5.8632236984 2.9361566172 1.6109890691 6.2166723452 2.9521564312 3.1457684047 1.9523364218 4.6252338883 7.2994618032 2.6510343054 2.9609206242 5.9471658580 7.1233707832 0.1245369668 2.4013171599 6.5679763882 4.2314144564 2.5899193160 2.9817129146 0.3444980817 6.6954638504 1.4275748242 2.2171535696 5.7627238344 6.1813026690 4.1066091142 4.5465882164 7.6955817674 0.6194562161 -0.0430489984 2.6584991973 2.3658902372 4.5583448514 1.5455841430 5.1069563898 8.9866993469 6.1154560346 3.4507265100 1.6304017972 7.3370832997 1.8696106978 2.1609237418 0.7681220279 4.6472194916 6.6179844142 4.0040166353 2.5926949943 6.8971579376 6.4503238147 1.1410207902 7.3132289966 2.5674839113 4.4979960229 6.8452671980 8.3295916078 -0.2701470777 2.1520710932 4.8908003423 2.3503696482 3.1526085898 2.5574843897 3.1613787080
4.6495960003 4.5990184765 2.9541481136 2.7648546371 7.6856917925 5.4623542156 1.8760769325 3.1641980005 2.2064047218 6.6326714940 0.9778090271 0.4446945589 7.6666977073 5.5159993929 3.0227549040 1.1524236762 6.5283296005 2.7536804312 3.6053831034 2.0659804735 4.8489143307 8.1976421371 2.1921073152 3.1112311335 5.9123946578 6.5734220067 0.4088832014 1.9151114648 6.6934724730 4.0870370217 2.7893923432 3.0561958156 0.5229942813 7.2216113961 1.3042433955 2.2757278947 6.0261182894 6.0346994937 4.1133179440 4.3560396247 6.7085184204 0.7759279611 0.1789515431 2.3023396128 2.1956766679 5.1899097245 1.9510410745 4.9211223666 9.0973874223 6.6560076630 3.2130720407 1.6647018799 7.5586530120 1.7297590010 3.0067223852 0.6781364988 5.1813234798 7.7642832796 3.6776337119 3.1974088333 6.7101785045 5.5689254670 1.2831033501 8.1871558551 1.6875619446 4.5645339329 6.5876739709 7.9709991987 0.2964647275 1.4590931105 5.0530515723 2.3091313611 3.2134663361 2.3992885287 3.3436991937
4.2601799014 4.5627992850 2.7819715415 2.4272697399 7.8608855251 5.5795424484 1.7039241407 3.1272039886 1.9840777173 6.2124817331 1.2915993728 0.0905993260 7.0684766436 5.8872108942 2.7330719530 1.6061149031 6.1626180387 2.8568829642 2.8707515065 1.7362014764 4.5679960346 7.0690455365 2.8176312778 2.7046604536 5.9256003865 7.3591643402 -0.0392865719 2.4484012074 6.6882088381 3.9996064857 2.1804249917 2.9023758640 0.0894390458 6.3667929516 1.6620598615 1.9243762950 5.8136104118 6.3310704079 3.9206213313 4.4531409082 7.6379050586 0.4567749065 -0.0455529822 2.6547519809 2.4593498176 4.3290061826 1.6793256709 5.0390219990 8.8823796766 5.8286753027 3.2007577942 1.3730403848 7.3851637060 1.8694604944 2.0188980586 0.4793846629 4.6222975697 6.3450044334 4.1323222563 2.3028887874 6.6307397004 6.6020289660 1.0793563812 7.0087358846 2.5344849835 4.1962201995 6.8716728047 8.4936639491 -0.5287882240 2.3078036674 5.0125878035 2.0485796335 3.0155800591 2.1272641034 3.0185539888
4.6813772908 4.5752113654 2.9346321791 2.9841163425 7.7924177442 5.4313239161 1.8635521529 3.1376085021 2.0570152095 6.4657181122 1.0920358490 0.5130741023 7.4217485234 5.6668374023 3.0016084740 1.4112285027 6.4294530997 2.9060043620 3.4496003912 1.9620378025 4.7106572259 7.8256530441 2.3405516127 3.1130629660 5.8534710729 6.8998107564 0.2621704016 2.2644161277 6.6216019988 4.1503446042 2.9590928969 3.0660766444 0.4949454403 6.8856098828 1.3565159085 2.3119823024 5.9375543449 6.1097579252 4.0968151436 4.4282645746 7.1703380745 0.8243028137 0.1309319479 2.3860491230 2.3836686786 4.9672317610 1.7864491087 5.0233950793 9.0464814124 6.6079569551 3.3563789036 1.8897774860 7.4418523552 1.8130617762 2.6144088612 0.7366155392 5.0202793717 7.1287313573 3.7446229783 2.9610147103 6.5207458949 6.0994349005 1.3654872723 7.9574140351 1.9550268666 4.6129947277 6.5912931064 8.2067655221 0.0196785392 1.5553742643 4.9668545886 2.4238447484 3.2599100158 2.4848179902 3.2513373415
4.2270008236 4.3903929206 5.3603622853 3.0401166214 7.1768825396 5.3887593219 1.3436687367 2.7986663897 2.0181704214 6.2290518761 1.6628233927 -0.4910072001 7.8935377101 5.9730794448 2.7022145966 1.7249348519 5.9654652573 2.7657523519 2.8706643571 1.6519836979 4.4498036486 7.5758926549 2.7900371352 2.1181410149 6.4205466337 7.2178878513 0.1510968938 2.6129185550 5.9650096710 4.1078607804 2.2391441572 2.2751764214 0.3517608107 6.5520183251 1.9360371083 1.3601657819 7.0570171177 6.4866850400 4.3583776153 5.0702891354 6.5030194274 0.4877497600 -0.4792376178 2.6890848788 1.8468408213 4.2557033700 2.3218267842 4.1079869279 9.7483635055 5.9200086226 2.9259935645 2.1317823571 7.1326530776 1.8741667506 3.1033150286 0.2215910269 4.9042207934 7.1124150443 4.2823656882 1.9165710712 7.1268924677 7.4222259881 1.5541973623 7.5015080845 2.5208834014 3.6599832189 6.2469499591 8.5403400575 -0.6552359890 2.0418775834 4.5982742301 2.0744917709 1.9843123359 1.5786870860 3.2055837441
4.5194676793 4.0166900329 6.2886783791 3.3428575318 6.8244227336 5.6584613417 1.1275028594 2.5633631527 2.0383499212 5.9118307270 1.5534066764 -0.8746144215 8.1444025906 5.9771950703 2.9023841586 1.9155777770 5.5678410368 3.1268607882 2.7301709630 1.2635779715 4.6445178894 7.4289170448 2.7996069877 1.7766564093 6.4836426771 6.9064429854 0.3877680520 2.7219465918 5.4961999371 4.4812891581 2.4167525532 1.9816376994 0.7652385093 6.3944966936 2.8529205874 0.5894826392 7.0802423000 5.8742953558 4.5649846787 5.0871603317 6.2927377225 0.8590490960 -0.5172576373 2.5838242894 1.1367869872 4.0609363375 1.7396709311 4.0757794430 9.9008181616 6.1854407622 3.4393603800 2.8431394740 6.0781914932 2.0194564423 2.8271489176 -0.2647574025 4.9467755081 7.4354411300 4.2281960151 2.4502196899 7.4802497512 7.1326167233 1.6037673815 6.9679517236 1.7291535834 2.7867099002 6.1584320540 8.3345406993 -0.1509586510 1.3443522401 4.2101222262 2.6645786026 1.5682191530 1.4469022486 3.6141858716
4.3312000437 4.3197357300 2.4504671374 2.7069682914 6.6060318121 5.1951609351 1.9958123257 2.3248472817 2.4051667936 6.9535044193 1.1609892882 -0.0357644785 7.8144700384 4.9838584966 2.8716217407 1.2039746307 5.6132272759 2.5075225209 3.7296508086 1.9895693075 4.8558488597 8.5761926043 1.8751212270 2.7711447927 5.9518170785 5.5708446862 0.1564647047 1.5084671272 5.7847380694 4.0293548619 3.4371365503 1.9073356587 1.1647120099 8.1137863313 1.9235112317 1.2776326431 6.2180418183 5.1986248214 3.9399708671 4.4628234849 5.3664223972 0.4397277132 0.4220041976 1.4461999047 3.0543684488 5.2515472875 2.2581556245 4.7518926077 9.3399217186 5.8491021219 2.2791939716 1.8117454491 6.7122462282 1.6083050277 3.3374371031 0.5998158739 4.1638955073 8.2025117079 3.2479786706 3.3928418499 6.8552250280 4.8108287051 1.1813517483 7.7922806542 0.7413214164 3.5502924512 6.1359246440 7.0919309157 0.5325972366 1.7266833290 4.2875251917 1.8829902784 2.9812566234 3.0548387347 3.9934629897
5.0594405134 3.3316493181 2.7235799564 2.7039587454 5.0150651260 5.0052824771 2.3420357538 1.5832711066 2.8022124165 7.3628965869 1.4823401536 -0.2132869989 7.7647549914 4.5679404739 2.6435745056 1.0104373814 4.4608048987 2.1883583727 3.9908832629 1.7045968872 5.2135270311 8.8912622020 1.5135807935 2.7496267715 6.1054499957 5.0262071349 0.2887363237 1.3530291366 4.7386863269 3.6788398043 3.8189265020 1.4838212701 1.4693549241 8.7588265326 1.5579418669 1.2278545389 6.3193012325 4.8603096522 3.9842304776 4.5739624868 5.0347624551 0.5827159177 0.4551658346 1.3312832803 3.1493562419 5.4707396260 1.7982442825 4.6806528988 9.4515597684 4.4694890005 1.9180101485 1.6296439343 5.5790871423 1.2805115950 3.2537461501 0.5678175749 4.4421168442 8.1776497300 2.6596973656 3.6042827535 6.7096693858 3.8360216883 1.1729715037 8.1447019830 0.3056277459 3.3202881813 6.7606433561 6.3511372197 0.8078376097 1.7085620629 3.1163460420 1.8617290050 3.2657548275 2.9646798548 4.4488781581
4.6043841974 4.4696297502 2.8690840917 2.8269862761 7.8900277029 5.4500402598 1.7130483029 3.0299835942 1.9781599960 6.4084957885 1.1706120415 0.4624452477 7.2990839992 5.7510674032 2.9269959103 1.4679301691 6.2770725979 2.9529593870 3.3082558842 2.0379787885 4.7009323550 7.5622306796 2.5429255179 3.0593151608 5.9555064039 7.0836478016 0.2137555839 2.3550739163 6.5101222784 4.2045873151 2.8040753774 3.1389339732 0.4222014555 6.8697641733 1.3817680351 2.2820867561 5.8158559333 6.1152282503 4.1923498298 4.5410439032 7.4493893400 0.8578691117 0.0277193960 2.4837385227 2.3765924713 4.7364499646 1.4967028399 5.0135390491 8.9695518225 6.4788694705 3.5494145723 1.8551745106 7.3790113205 1.8854883644 2.3833852377 0.8097364622 4.7826049978 6.7694618956 3.8465081953 2.8101192203 6.6227446737 6.2128330294 1.2826595285 7.5211145572 2.1942099754 4.5396041953 6.6763499613 8.3362272881 -0.3147511654 1.8990154192 4.8883704347 2.4131434416 3.3357480301 2.6540919343 3.2478710423
5.3925961679 2.7965213018 2.5404901311 2.7770409258 4.7159696385 4.9416767087 2.2895738512 1.4878466044 2.7285397922 7.6341980362 1.3751035174 -0.0997957188 8.0488728832 4.6924093202 2.6521838047 1.1523076745 4.3700705854 2.1570889780 4.0882898767 1.6502583475 4.8783391177 9.2326601254 1.5192116280 2.7150259587 6.0436843867 4.6966774439 0.2349803691 1.3332091330 4.7121603278 3.6697612575 3.9586756799 1.7014601391 1.3894090812 9.0027870780 1.6777494107 1.2091098828 6.3457478721 4.4052376307 3.7855980311 4.6155714721 4.7699254576 0.7274464192 0.3975737787 1.3011986816 3.1165726617 5.5072558457 1.6491652895 4.3853116684 9.9135722418 4.2386968488 1.8997061034 1.7548845942 5.5345928500 1.2859346825 3.1418730315 0.5480990092 4.2371009827 8.4347656237 2.6140428249 3.5014278403 6.8740508254 3.6665745494 1.1199250638 8.4799200982 0.2896267153 3.4008308938 6.9073512100 5.9402639855 0.7443858772 1.9881418843 3.1776136391 1.6779353909 3.3633938588 2.8935143510 4.1929744381