-28926.1578312218
-28926.5426257072
-28926.940218108
-28926.6464117768
-28926.4353101868
-28927.6385724743
-28926.8104997388
-28926.1444292139
-28925.7883827245
-28927.334725964
-28926.9556280428
-28927.0118075487
-28926.5386074042
-28926.8983947766
-28927.1372767264
-28927.2477856371
-28927.0877744825
-28926.9708314434
-28926.8401496557
-28926.9612033804
-28926.9453678597
-28926.9215244411
-28926.7076238895
-28927.0621953866
-28927.0829549407
-28926.9074530335
-28927.2856531155
-28926.1804652311
-28926.9808644115
-28925.9756157254
-28927.29822368
-28926.9237350928
-28926.99279374
-28926.1924281657
-28927.3489644493
-28926.2545356685
-28926.8818191067
-28927.0810923224
-28926.7110932031
-28926.7730258729
-28926.4127167224
-28926.7244607886
-28926.7112957918
-28926.8641004232
-28926.8303743792
-28927.4358189244
-28927.1262528562
-28926.7844790024
-28927.2298695351
-28926.9416340516
-28926.9032359515
-28926.2567071358
-28926.9431508134
-28926.8689675849
-28927.564107336
-28927.2032591283
-28926.7519688985
-28927.331779925
-28927.3533155474
-28927.0526056917
-28926.3076786576
-28926.234947836
-28926.9822675658
-28926.9347335203
-28926.7783948122
-28927.4247568222
-28926.3598760516
-28926.9265043939
-28926.6607184267
-28927.071568479
-28926.9707572924
-28926.8657924262
-28926.7789008076
-28927.1652764097
-28927.0565615446
-28926.1218509879
-28926.9912130315
-28926.9749892046
-28926.0067241717
-28926.1581766701
-28926.8187364845
-28926.981707964
-28926.2956655181
-28926.8164236541
-28926.1800463121
-28926.1630360766
-28926.9247425937
-28927.6201239818
-28927.0810531381
-28927.2190690702
-28927.0588821302
-28927.239255825
-28927.2218821817
-28927.2226134872
-28926.9827550575
-28926.6862173851
-28927.0312155141
-28926.788130224
-28927.1095249386
-28926.9930635408
-28927.6421839673
-28926.9636624719
-28927.0319398807
-28927.3778977547
-28927.2992377117
-28927.3671345695
-28927.3592289862
-28926.8373440274
-28927.3670762011
-28927.1231983799
-28927.3326203482
-28926.8615794258
-28927.0267859112
-28927.5136156867
-28927.2599892562
-28926.8213155781
-28926.1374757565
-28927.0313687141
-28927.6516555649
-28927.1554409961
-28925.7830845347
-28927.2967145374
-28926.5154071262
-28927.298762329
-28926.1848164652
-28926.9429155711
-28926.4541620878
-28926.8492047832
-28926.2468518579
-28926.5774565328
-28927.6326892401
-28926.7118823328
-28927.077278785
-28927.2610617924
-28927.0736044337
-28927.2132869262
-28927.6522988417
-28926.7296382959
-28926.7891227588
-28927.0309635368
-28927.1615993373
-28926.6493589042
-28926.0707038167
-28927.3573214692
-28926.6520430338
-28927.1782205862
-28927.4191467901
-28926.9098687229
-28926.6575078932
-28927.0859715932
-28927.0567317517
-28927.1335211491
-28926.648089902
-28926.2997885848
-28927.010613922
-28927.218039392
-28926.8150154657
-28927.2308651991
-28927.0986357647
-28927.2213867987
-28927.2439140034
-28926.9833504423
-28927.3221000244
-28927.1727406245
-28927.4148533802
-28927.388943394
-28925.7945103169
-28927.1115007562
-28926.9945734997
-28927.0658662004
-28926.0318564569
-28926.5368548559
-28927.252399597
-28927.3095619775
-28926.2706540513
-28926.8181330723
-28927.3229696998
-28927.0681318191
-28926.1405876488
-28927.0312953794
-28926.9809125756
-28927.5669388151
-28927.2225487242
-28927.3484505626
-28926.7723114384
-28927.1080975662
-28927.3765152811
-28926.9937971593
-28927.2453111712
-28927.1919036875
-28927.2223313053
-28926.8404674845
-28926.8366519062
-28927.2311672453
-28927.0017226068
-28927.1641661858
-28927.0901029594
-28927.0961087809
-28927.2791491899
-28927.0637695644
-28927.2114873023
-28927.1772272352
-28927.0396440998
-28926.0200695799
-28927.1858990906
-28927.1275215863
-28927.1430868981
-28927.009132671
-28927.0923068083
-28927.1170735087
-28926.174242399
-28927.3373887326
-28927.0888340932
-28926.6601044021
-28926.9092888486
-28926.7571572904
-28927.082244724
-28926.8778647504
-28926.9871611225
-28926.8378545127
-28926.2330750134
-28927.2387665646
-28927.2536581228
-28927.1063790322
-28926.9068346551
-28927.422379909
-28926.6804081658
-28926.0138519179
-28927.1066809423
-28927.1076224557
-28926.2012785277
-28927.1142338662
-28927.2663858329
-28927.1055665007
-28927.6712606766
-28926.4968579517
-28926.888662222
-28927.1044421269
-28927.026890675
-28927.3663712906
-28927.4326498882
-28926.9536020203
-28927.2595544185
-28926.2714899846
-28927.4360317173
-28926.9420797739
-28927.369193926
-28927.4356057233
-28927.3714902935
-28927.2834462734
-28927.05754129
-28927.3341478584
-28926.5382566496
-28926.9859152499
-28925.7965523941
-28926.2525284218
-28926.8310582009
-28927.2528899458
-28927.1035595261
-28925.7866259585
-28926.8313334439
-28926.182882281
-28927.426393314
-28926.2970134333
-28927.0615567358
-28927.3467735259
-28927.1153643626
-28926.8947404257
-28927.051553428
-28927.093447645
-28927.3334419955
-28927.01770779
-28927.4356110295
-28927.3777659156
-28927.1073141509
-28927.1558803236
-28927.0445915351
-28927.1446120954
-28926.9848297884
-28926.2481388196
-28927.2642863397
-28927.2216359188
-28926.7516214093
-28926.0601304308
-28926.7452818404
-28926.978682876
-28927.3035154751
-28927.0104269798
-28926.8793061367
-28925.8782852811
-28926.1642294312
-28926.9635092719
-28927.0421951658
-28926.8289025162
-28927.1141545451
-28926.0663649638
-28926.0790049172
-28927.0618142914
-28926.8119620779
-28927.2418349186
-28927.1284645963
-28927.2755751125
-28927.0111414144
-28926.8090078755
-28927.0175941826
-28926.89265413
-28927.1028129821
-28926.8871575693
-28927.2747334649
-28926.8668708128
-28927.6405379515
-28926.6966513128
-28926.9796635738
-28926.6282287313
-28927.0148424328
-28926.878031148
-28926.984812101
-28927.0874200544
-28926.5676698275
-28926.9403020551
-28926.1978905761
-28926.91902807
-28927.3106871677
-28927.1109407462
-28926.8892419603
-28927.0347991154
-28926.9435079626
-28926.9151488171
-28926.6139615379
-28927.0496023728
-28926.9974636193
-28926.2291207932
-28926.4707853776
-28926.271670396
-28927.1730916512
-28926.8665388341
-28927.3079611326
-28926.7542737015
-28926.2705739139
-28927.0335110652
-28926.8226753303
-28926.1820954643
-28927.1880487888
-28926.1700797397
-28927.0395504927
-28926.9894252445
-28927.2432576651
-28926.046874548
-28927.2826059863
-28927.1972410617
-28926.8525437544
-28926.9828288003
-28925.9072734175
-28926.9952744646
-28927.2404407441
-28927.305405985
-28926.9429314897
-28926.989766067
-28927.3322276881
-28927.2928454888
-28927.2696816741
-28926.8691973849
-28927.6700518115
-28927.4056753933
-28927.6481813532
-28926.5058778405
-28927.6259380992
-28927.0454427067
-28927.6491910311
-28927.1276790041
-28927.0521773847
-28927.1240096869
-28927.432611112
-28926.959761586
-28927.2433280065
-28926.8985604939
-28927.0170362134
-28926.1346263179
-28927.215339752
-28926.7783637913
-28927.0505021167
-28926.7688271585
-28927.1926532247
-28927.2470785496
-28927.2235913278
-28927.0730679616
-28927.1836194581
-28927.0117463231
-28927.0782637005
-28927.6456598116
-28926.8143849782
-28926.2143994421
-28926.9048225104
-28926.8931286963
-28927.0988514148
-28927.2259422541
-28927.2638598015
-28926.7846730195
-28927.0635428936
-28926.6612212928
-28927.004527963
-28927.0590011799
-28927.6360528375
-28926.8112275069
-28927.2004390779
-28927.2849533751
-28927.0961110938
-28926.2468145783
-28926.1210496131
-28927.1043362746
-28927.2834379739
-28926.6258648796
-28926.6706615973
-28927.1188766701
-28926.1625306254
-28926.2859642565
-28926.6304342128
-28927.3399090496
-28926.0565875104
-28926.2586381907
-28927.6250703286
-28927.1819935787
-28927.1093730992
-28926.027436514
-28926.7622274489
-28927.2511692349
-28927.0670093501
-28926.8849533123
-28926.1828539812
-28927.0920427219
-28927.0378229789
-28926.1450168435
-28926.1733203417
-28927.0155248939
-28927.4429708887
-28927.1626035729
-28926.8696745363
-28926.1408608509
-28927.4391744944
-28927.0551928127
-28927.0380032542
-28927.3283081624
-28927.3424212033
-28926.9104188007
-28926.0870315911
-28926.9910659541
-28926.2854442472
-28927.0984656937
-28927.0864770444
-28926.2214131727
-28927.1617386595
-28927.332651097
-28926.9723744641
-28927.1289334482
-28926.8285283599
-28927.6647073624
-28926.9028915916
-28927.1629616745
-28926.9397288475
-28927.158063764
-28927.4310940781
-28926.0840320818
-28926.3715500014
-28927.0897971036
-28927.4503206797
-28927.0682591683
-28926.7003550523
-28926.7830992499
-28926.5379718826
-28926.6888876368
-28927.1302915677
-28927.042595445
-28927.002373911
-28926.9487894174
-28926.8264709082
-28926.0442500114
-28926.8640057276
-28926.9663738128
-28926.2871786999
-28926.9228240561
-28927.2386279226
-28926.7702265032
-28926.7335576856
-28927.0603388909
-28926.9980777799
-28926.5965593226
-28925.8416891179
-28927.4246975014
-28926.7526000662
-28926.9638292776
-28926.0229884075
-28927.6473112697
-28927.1032025129
-28927.0455202591
-28926.9002236528
-28927.3212129337
-28927.0265810096
-28926.812412426
-28926.1807815633
-28927.2790836105
-28927.0688244845
-28927.1417947662
-28927.0634861579
-28926.3328287662
-28927.2271754734
-28927.2354382059
-28926.1332626201
-28927.3135198713
-28927.0868826298
-28927.3150718718
-28926.2473300977
-28926.650126537
-28926.9851239433
-28927.2182330009
-28926.9181393467
-28927.5877900715
-28926.7470928931
-28927.6021112794
-28926.0725841224
-28926.6534074119
-28926.1100439745
-28927.0913382196
-28926.0882324288
-28926.8749091875
-28927.227612624
-28926.8944542982
-28927.2352928972
-28926.7227905547
-28927.0178862966
-28927.4352216348
-28925.8020616081
-28927.2422248576
-28926.1331842514
-28927.3356457083
-28926.9596521963
-28926.609941058
-28927.1035230628
-28927.4306074028
-28927.0369596982
-28927.1670771221
-28927.0028090208
-28927.120695206
-28927.2302726715
-28926.992755372
-28927.3296879149
-28926.9118352886
-28926.6155463281
-28926.2346192587
-28926.0603645846
-28927.1935918809
-28927.5460938173
-28927.6148189892
-28927.0485920146
-28926.9692930486
-28926.8350786808
-28927.3840785453
-28927.1299833989
-28927.1718940788
-28926.7965622112
-28926.8850982129
-28927.0878129866
-28927.0392238202
-28926.7804888632
-28927.2228432872
-28927.2074672306
-28926.180082095
-28926.7739230317
-28927.1017839842
-28926.2571498648
-28927.6117826085
-28927.30075597
-28927.5760633317
-28927.2211221681
-28927.3778012904
-28926.9068073077
-28927.1100996428
-28926.1454941309
-28927.3998536567
-28926.9558785235
-28926.8907489259
-28927.2467049375
-28927.3936751791
-28926.8222183153
-28926.9154108626
-28927.0984896397
-28927.0414307984
-28926.946668019
-28927.1832299273
-28927.1191023885
-28927.2588212082
-28926.7370497207
-28925.7841950308
-28926.9650209995
-28926.2687953787
-28927.2614245199
-28927.2198448664
-28926.9986177895
-28926.6270654452
-28926.8096451658
-28926.9736893175
-28926.8590181556
-28927.2413604884
-28926.1539753707
-28926.8418341755
-28926.7345926701
-28927.0976180595
-28926.8183057285
-28927.120470304
-28927.034326726
-28926.1566521531
-28927.0627668254
-28926.8543954881
-28926.8033597475
-28927.1000893961
-28927.3659003978
-28927.3156699777
-28926.6403334371
-28927.0745668999
-28927.0416913473
-28927.2144318446
-28926.7882373008
-28926.7378227957
-28927.2867150392
-28926.9243416342
-28927.4797613411
-28926.8441476862
-28927.1922401561
-28926.7861035212
-28927.2896393091
-28927.2443653039
-28926.5332247231
-28927.1925506379
-28927.1309968864
-28927.0143349407
-28927.500044152
-28926.8903634769
-28926.8423657496
-28927.1398268399
-28927.0254418056
-28927.0616017706
-28926.0781202756
-28927.3529337719
-28926.5225209947
-28926.67163971
-28927.3784219818
-28926.8688372424
-28927.3639102943
-28927.2150518557
-28927.000289384
-28926.2496935413
-28927.1238008396
-28927.3420835102
-28927.2641988551
-28926.8772622907
-28927.1530605454
-28926.7811914608
-28926.869240787
-28926.9502591035
-28926.0445784526
-28926.9001720873
-28927.2284195772
-28927.2953034918
-28927.2039719301
-28927.1003043659
-28926.8468654218
-28927.3353190358
-28926.9768429792
-28926.8032600178
-28925.923529898
-28927.2751749694
-28927.0949709374
-28926.9445013137
-28926.122375351
-28926.6693240224
-28926.1717450755
-28927.3342341185
-28926.9614933176
-28927.1869083603
-28927.4883228544
-28927.6552603911
-28927.3046969927
-28926.7838305555
-28926.7686079709
-28926.0060102814
-28926.7809914572
-28927.004020471
-28927.3166573422
-28927.0576536729
-28927.196318052
-28927.3412443116
-28926.8947514463
-28926.8628244821
-28926.9883161091
-28926.9307142649
-28926.8136776187
-28926.5365038292
-28927.3064095403
-28927.2183664727
-28926.9693527775
-28926.783396126
-28927.4603584099
-28927.1951577592
-28926.2384776949
-28926.5069250701
-28926.7414046284
-28926.6719584912
-28927.396511012
-28927.6272349931
-28927.0215501715
-28927.4364590718
-28926.2496121793
-28926.1371191515
-28927.2675104789
-28926.7097893703
-28926.8226165537
-28927.0819577801
-28926.9880820913
-28927.3032909813
-28926.7473411969
-28926.6302269982
-28927.2214858481
-28927.2162585439
-28927.2093827749
-28927.1532883046
-28926.9268310664
-28926.0816400663
-28926.7813967706
-28926.845427709
-28927.2555699937
-28927.3604354023
-28927.2995373088
-28927.070469956
-28926.8209948921
-28927.3554113671
-28927.0218490884
-28927.4444900995
-28927.0722352936
-28926.8234367044
-28927.1867061798
-28926.8165388942
-28927.5058154115
-28927.4730757796
-28927.0988138632
-28927.194638022
-28926.8907958655
-28926.9699108827
-28927.2703268556
-28927.4127787853
-28927.2515272004
-28926.6926700172
-28927.0689463914
-28926.8570140382
-28926.1035131097
-28926.8751387154
-28926.0909523413
-28926.2546673715
-28926.6825120128
-28926.2166653329
-28927.1117913736
-28927.3738213555
-28926.9603305757
-28927.1002840935
-28926.85494094
-28926.9503351593
-28927.29071375
-28926.6464331378
-28926.6381275474
-28926.0317708771
-28927.0512251228
-28926.1734723172
-28925.8797359193
-28926.9002833818
-28926.9241492498
-28927.2192059434
-28927.1999262797
-28926.8923176614
-28927.0710989468
-28926.5285057273
-28926.9166027206
-28927.0962783077
-28927.2639279659
-28926.2532227199
-28926.8124766449
-28927.1169724185
-28926.8383586033
-28925.9375717812
-28926.8140218425
-28927.1279762883
-28926.6341391769
-28925.8226324513
-28926.2274954581
-28927.1208935769
-28927.2345203664
-28927.1217227073
-28926.5370694175
-28926.7771924778
-28927.0381276102
-28926.6529200562
-28927.1530179596
-28926.5618780235
-28927.3422822893
-28927.0613716984
-28927.1050154704
-28926.9080228396
-28926.1892521906
-28926.8302406353
-28926.8982972239
-28926.8253317042
-28927.2245684881
-28927.4263007953
-28927.2780876744
-28927.2861076814
-28925.8562848886
-28927.1985480238
-28927.0684794443
-28926.4849820935
-28926.0577637219
-28926.3021888998
-28927.4270169986
-28927.1522954978
-28927.1226766019
-28926.9639903689
-28926.7987913667
-28927.1047815887
-28926.8481761935
-28926.924439187
-28926.8318526369
-28927.1784842644
-28926.9565628894
-28927.2676644952
-28927.5457423824
-28927.4100524782
-28926.0508543469
-28927.623161587
-28927.3053744198
-28927.2871961362
-28927.2367375488
-28927.378149596
-28927.3289436839
-28925.9685913824
-28927.3336598225
-28926.9163253007
-28926.9882346111
-28926.9483319943
-28927.0409101088
-28926.9936206936
-28926.0967387031
-28926.8691122133
-28927.4348350973
-28927.2801132888
-28927.2592438007
-28926.941694869
-28927.6074754568
-28926.9106081919
-28926.8703666575
-28926.8894777468
-28927.1947244181
-28926.0701862565
-28927.0514780525
-28926.909943282
-28926.9340619437
-28926.4401361232
-28927.1974616098
-28926.787534295
-28926.8050693018
-28927.4185705894
-28926.6493118286
-28926.8459833652
-28927.1237566212
-28927.2607232829
-28927.1609753805
-28927.0906103154
-28927.2526762005
-28926.9846582207
-28927.0211049935
-28927.0364119333
-28927.6687350533
-28926.6801182286
-28927.237006125
-28926.1801185583
-28927.6408061196
-28927.615435871
-28926.6420844887
-28927.0376986229
-28926.0747573585
-28927.207765059
-28927.0592078503
-28927.2306812502
-28926.9638717273
-28926.9689187562
-28926.9339160908
-28927.0603021555
-28926.2522103209
-28927.3343448687
-28926.8871099494
-28927.0828014686
-28926.1898111122
-28927.3111796935
-28927.2033679737
-28927.0201938208
-28927.0484539169
-28926.9555855931
-28927.0687125097
-28926.5503253003
-28926.9589679664
-28927.2168018189
-28926.696759478
-28927.0593773771
-28926.9360313666
-28926.862247601
-28926.0741736746
-28926.8108888614
-28927.0701040992
-28927.5251386134
-28926.8695126286
-28927.005959009
-28926.9838096341
-28926.7614969597
-28927.0797260396
-28927.1908605397
-28927.285194876
-28927.6630418905
-28926.6432709045
-28926.6755155615
-28927.0655091872
-28927.2604185156
-28926.1181164995
-28926.9180129498
-28927.2683590654
-28927.3550483674
-28927.1922261423
-28926.5383807335
-28927.1427833552
-28926.6678633161
-28927.1785600481
-28926.9453678597
-28927.4073377359
-28927.2094950218
-28926.6358562143
-28927.0436513822
-28927.2197965662
-28927.1101893042
-28926.9485694135
-28927.224123038
-28927.4355902128
-28926.8147881147
-28927.1630594994
-28926.9185944568
-28926.0109141784
-28927.044553167
-28927.0658475606
-28926.199895918
-28926.9036501085
-28926.9851364605
-28927.2780528438
-28927.613621825
-28926.9494324221
-28926.851619112
-28927.4103968381
-28926.6254361644
-28926.6767285083
-28926.9540603958
-28927.2470246711
-28927.1084005648
-28927.6550146724
-28927.2597013599
-28927.4012097353
-28927.1361928975
-28927.0785992167
-28926.7040287233
-28926.7303294647
-28926.8566528073
-28927.0090035531
-28927.3234759673
-28927.2198994252
-28926.3870734077
-28926.9603428208
-28926.618829788
-28926.7660441156
-28925.8373693129
-28926.6422519747
-28927.1437237802
-28926.6440439795
-28927.249288385
-28927.2217093895
-28927.0042208827
-28927.4381676737
-28927.2493429438
-28926.6266794519
-28926.1826180586
-28927.3791468927
-28927.1074998685
-28927.1520133159
-28927.1364212009
-28925.9977995226
-28925.8144517611
-28927.6188206933
-28926.8193676522
-28926.9120188293
-28925.8111956486