0.0873902086128722 0.622531373535952 0.105108699778787 1.83370776979098 0.365520949074413 0.221499908617311 0.700138796787767 -0.368574646720429 0.00196843556267586 -1.40403294491154 0.245476718752804 0.247252835898437 -0.299855779612458 -1.27968520434332 -0.437503058627719 -0.143894285136778 0.0155317690576915 0.0506450496688566 0.378870881117362 -2.1891019200792 -2.01315088018929 -0.328021685963034 -1.18500952157893 0.292884236994647 -1.13975324424003 0.214287967978197 0.280212818725196 -0.592157662042129 0.352678038312759 0.715009021344053 -0.187432552231455 -0.703835269891815 0.958032908949008 -0.107807842482153 -0.334395447404875 0.674119246246649 0.285986484999419 0.502023059333645 -0.317390179887192 1.16758773556444 -0.637788806028156 -0.781776936381807 -0.38710354918383 0.693868393639578 0.251825026286507 -0.920567584381814 0.178864355375894 1.07594055364812 -0.730918742371067 0.12966889291999 -0.073676208550494 -0.236319739577687 0.173002757419012 0.667329223418187 0.423405964392354 1.01411481055208 -0.420548184705945 0.98280110422843 -0.399732287162868 -0.577768233528451 0.484540595315919 0.198872412723317 -0.000315217084618679 0.333786096270662 1.46331201164286 -0.847717470849982 0.752509570006347 -0.026175873532511 0.897359276583943 -0.990997262648882 0.66191371162918 -1.05000636368783 0.0381376676962952 0.292632269015099 0.0806660059913124
0.30403999073406 -0.187959885217224 -0.270141041518208 -0.941856564662003 -0.0675240760865823 0.772183641225777 0.179977128248838 1.12303825411919 -0.276892497819189 0.37795196932256 -0.667748313016824 -0.450587910071776 0.468876414513873 -0.243058597479689 -1.09212178302861 0.152624975628129 -0.744558951810863 -1.31953059787651 0.742998550108945 2.49918708544095 1.26673970661856 -0.230743791034354 -0.191442442648839 0.663050909969529 -0.214105162637932 -0.0676454320930586 -0.378177969173604 -0.402412917933043 0.174265682638953 0.144593624835117 0.854940981447341 -0.234247945721359 -0.371293586907903 -0.816792000902984 0.956107925007295 0.0205976109975299 -0.901893157554715 0.274735600492218 1.68420539733797 1.47863397879105 0.105916025754075 -0.795435914864977 0.272395383604616 -0.294694806904831 0.142306372645257 -0.115379994487948 -0.955211381798433 0.891834235856887 -0.011456058433405 0.349936729539346 0.909743245668563 -1.17768933755268 -0.734690291648613 0.610501959393983 0.0761696631072901 -0.565453427083116 -1.12498509242648 -0.126492039496215 0.0439414158619538 -0.969735021827748 0.851976501034899 -0.295234224069211 0.303303627169339 0.170949218385693 0.310798389009987 0.296769428973173 -0.558605554463431 -0.0876694302718412 -0.0576757276288059 0.299518965272449 0.0484840385789545 0.18034299603955 -0.733627912371578 -0.549272197702629 -0.779595613587431
-0.0684013360317038 0.417595531361932 0.0320143315729033 0.434738352827633 -0.339955969337215 0.962104762920547 0.475801934408888 0.461558801589458 0.289710468893071 0.304529271412714 -0.145991790011427 -0.915280884794596 -0.691951894333911 -0.073406499968304 -1.15075241787786 0.19995227549281 -0.0301507969649782 0.23922277065634 -0.265626958031544 -1.18785753107838 0.0527204430677489 1.08887576696555 1.52070491807013 0.850750599681342 2.14203095906718 1.01818306498105 2.33569071993605 -0.364199659842883 -0.664976408131609 -1.29762635292789 -0.158986395781176 -0.162365080698773 0.281178010352977 -0.743177241686278 -0.193097203787995 0.0631907410587167 -0.457264804419624 -0.732811073319512 -1.67773059159413 -0.624813740632331 -0.601166288641533 -0.245259717758173 0.631121938977452 -0.346310961735681 0.115505207147173 -0.602195757815116 0.701388866498547 -0.276241751945477 -0.0862452969670264 -0.135791457712832 0.262019445050888 0.656807503390577 0.675339234065993 -0.823471209242482 0.774032263443076 0.614177606573191 0.242609940209983 -0.588190194804974 -0.223311506968227 -0.205102449572742 -1.01042322254151 0.0173932467841509 0.807952038583768 -0.291036386107898 -1.02752670614918 -0.505883568734582 -0.706582235089259 0.442274766517962 -0.0341653153656601 0.0841609047117217 0.937344795166988 0.490271067079362 -0.132956046612363 -0.941241814213941 0.106573713602733
1.4669166964115 -0.216969627189104 0.606288180601311 1.43257114680741 -1.41641022913139 -0.639901480403614 -0.17739625622975 0.926896351541593 -0.0447430854132108 -0.169348450385011 1.0881337469768 0.868866840300687 -0.164886817375723 -0.780627396752663 0.376500839448508 0.364714908650041 -0.799639666360504 1.57553135064857 0.0345687212431208 -0.405074265439477 0.774546740919684 -1.40248565582896 -0.852804652935027 0.723963654804982 0.97204412838318 1.13273979266235 0.607286539442726 -0.620290401179071 -0.239227912860005 -0.573789710553419 -0.223119188551184 0.088098547167623 -0.726278932004812 0.117191849949048 -0.214316507208533 -1.14654275284812 0.560160299741317 -1.90468869229086 -1.76594715233584 -1.88615079097104 0.75667064121146 1.69124687392561 0.389530155092991 0.0476736272814683 0.0285621131429074 -0.388669607309778 -0.436156572598234 -0.00452411078380936 0.251015129209387 0.606367884758107 -0.213439504373595 -0.459045549548555 0.146842567607677 0.0872035466198599 0.711576857508347 1.31258759448904 -0.0416451648156819 0.817282310022371 -0.0220579968381776 0.803446696843333 -0.696018863211968 0.392046749566276 -1.12857280792303 0.489623406527849 0.708738618195863 -1.0647297783295 -0.00906313395824506 -0.413641690964488 0.0129133589518541 -1.42904025266135 0.182564170912324 -0.492306608399856 0.0183191005538996 0.312255689528436 -0.313935904575731
0.328763963061969 -0.0681015455580778 -0.460840178627379 -0.206072526294004 0.897746484519861 0.251469185792941 0.378384428650724 0.218346195110025 -1.16546709077331 -0.158014005068266 -1.06793105722068 -0.239781213974278 0.358396683007774 0.211208302203676 -0.365063035838111 -0.740301207176862 -1.57213878178108 1.23665935784378 -0.537929010639654 -2.06960250623582 -1.85877729820513 0.5882434166129 -0.339183610346844 -0.251124915257619 -0.0645930199979584 0.0577945125334501 1.94613459671455 0.239782499525194 -0.14595605169596 -0.332212839059583 0.20419150819362 0.571154588285672 0.108561175318966 -0.714598159271279 0.522654608875359 0.104939521278233 0.840809691557609 -0.393219943332275 -1.03502840996478 -1.58741601175739 -0.324705221709775 -0.107574900656163 -0.349662650084041 0.186482530104484 0.423249898511144 0.203066394031882 0.341902036313951 0.801510142943376 -0.337845351843223 0.387970524721623 0.19307200699004 0.00744616801602086 0.68094912115351 -0.786827351710652 -0.11856378988667 0.474013218864278 0.57152894071243 0.126788230427276 0.295200028414844 0.0712688859050742 0.527169463692572 0.449360980277485 -0.834191161221349 -0.61452007733723 -0.0418300270374117 0.521703558307655 0.338563460584935 0.212388180834439 -0.607366757819888 0.520610068698452 -0.245537910976409 0.426018460963977 0.76729957618547 0.761034829461311 1.38813916471588
-0.00243663320630606 0.134537017128938 -0.0119854483006398 0.60744851885815 -0.0551761024276127 -0.837922858420497 -0.275882311909346 -0.501900674886436 -0.0735543383236512 -0.00213144341883267 0.0584061776593129 0.0297977846834273 0.388871953023967 1.0243346832246 -0.149477946985607 0.173813682936865 -0.129495343546322 -0.409552610610674 0.817774933133406 -0.694768793501188 0.100740911986371 -0.0416559634433768 -0.251763319842536 -1.08442673235524 -0.957264663721569 0.456715874178465 -0.549681002893937 -0.730782731084147 -0.022729568636729 0.159547153090763 0.133785998283774 -0.127417121935414 -0.609879495640425 -0.40236869498153 0.0398315095833 -0.449368950693165 -0.353963846339005 -0.332696463314206 1.39862000422436 1.17322101967863 0.0509029311826189 0.00384045480664699 0.366636550159372 0.179727731371122 0.78632135887009 -0.348582273094182 0.470442986860188 -0.0854875932570988 -0.141025449712492 -0.336532033027372 0.10236147747116 -0.576941367179239 0.0100535223839801 0.250809183952634 -0.971715541569035 0.0606792887890958 0.381611675670409 0.150172144480281 -0.426979281718643 0.325075203263418 0.640492319604637 0.0630269618720102 -0.443424306147106 0.123481022140612 -0.0170518044608446 0.807781317422115 0.581094982189039 -0.132763471085137 0.0831275788853901 -0.167710658517947 0.440692767560655 -0.0785175933003877 -0.184331546311727 0.0399222694779741 0.353645029711822
0.194587157299712 0.363426529521963 -0.0748355183665997 0.0105888257854288 -0.784999041197827 -0.648037989261561 -0.776279663554537 -0.53524837986948 0.814657472161953 0.286325613331077 -1.13712917771016 0.468542685496063 1.64143871790311 -1.26918328179981 0.243275084253954 0.850728745315769 0.297963705774196 1.55503761216506 -2.12450632897941 -0.853863946889863 1.36894023311503 1.03828856708791 0.926569307388546 0.591582763672465 -0.0203638978409896 2.97264674608078 1.39172508044115 -0.206204680928175 0.562753255939017 -0.502702087327509 0.460258338282769 0.64984264563753 -0.78088167872386 -0.572657140196367 -0.599899249658661 -0.225134418167204 1.05162024430785 -1.94977501979866 -1.7241772890813 -0.583432627974808 0.214536593525363 0.021018500367449 0.257417944101931 0.0905359517044787 0.0822598320170475 1.89243584939968 0.737374007740986 0.0232892975055829 -0.937101054713302 -0.0189988998783138 0.285979800134656 0.615867334697264 0.068515235842867 -0.594783785453462 0.62531150594703 -0.915104764319095 -0.588323377879879 -0.468105598184602 0.524452323276381 0.289640534923237 -0.737959961848528 0.0628837514999608 -0.353516474620215 0.0860702049322586 -0.228940420209301 -0.769773747478525 -1.05236869205119 0.463675589727848 -0.257430028280542 -0.228468623023106 0.119164913495021 0.512143173255077 -1.30349103620697 0.238801881286421 -1.12849541775788
0.207254204696049 -0.118694401859742 -0.251658418887785 0.0450027666982555 -0.173148281782711 0.0773492846278696 -0.0749123943113803 0.249929095795497 -0.0499701354379235 -0.588816258101097 -0.288545759763118 0.535267920243404 0.314293801950763 0.140590419282496 0.669726004546095 0.973214751047347 0.295214426585103 0.0222680558578623 0.659701021392452 1.91093646974292 -0.9196029069744 1.5240380944853 1.26526749370949 -0.534379861670587 0.304547012015355 -0.483842541168497 -0.269250668953743 0.0919040349893531 -0.312103737410158 -0.22480994511599 -0.861785254524461 -0.960030140852204 1.31004888853999 0.323587049522983 -0.957703550804313 -0.48020134675384 -0.357017801095205 0.155456015855484 -0.881891527961872 0.859941517400643 0.0745611818011119 0.306253709411521 -0.0509255568787416 0.454029329874077 -0.281008060521873 -1.09787282360671 -0.510594084401221 -0.769768605274861 -0.449723762745998 -0.442481225995082 -0.185244801682498 0.288227971576667 0.130494987938652 0.0476815976971479 0.0533668180683455 0.575146480990232 0.367457760084553 -0.209383848343599 1.07785782428434 1.68263831077129 -0.45493152950697 0.572163231534416 0.56516803477975 -0.675734669527774 -1.35783718696318 -0.0761100135447847 -0.855053595707588 -0.715853885406089 -0.708790554452872 -0.793872427840861 0.792307912376013 0.748758075323091 0.824950107016321 -1.37311955914315 -0.699930794649548
-0.259075533453103 -0.058754561957566 -0.186403597278238 -1.06727336937202 -0.24015993727415 -0.022029457607841 -0.902550845403373 1.09680607345656 -2.09614039090629 -0.526598164865474 0.654374983947202 0.138420409336181 0.401432556804453 -1.3609765023002 -1.00556795384173 -0.29750707808881 0.647629441180436 -0.0109780906028127 0.664468615519763 2.40936641426617 0.1791001254139 0.491454288142507 1.43010751703186 0.29297088312639 2.93657907246953 0.321593417162352 1.56611751840043 0.799929943757351 -0.800484016202174 -0.507349610999261 -0.388557507269898 -0.875108189998173 0.498421459887202 0.125576727243978 -0.655462817132375 -0.592065359486355 -0.251227759330904 0.849509271716791 0.307677328495969 0.639438424963648 0.34505035050739 -0.43693330246172 0.0217535783812539 0.160222581542062 -0.425944413231212 -0.0306634746703042 -0.633201189029093 0.0432582741051579 -0.238893669621828 0.812461751197317 0.216215008801375 0.0101473676008527 0.266535585419018 0.394489296306796 0.627992650937572 -1.76779217501058 0.375533848049445 -0.687379446835657 0.79561460644231 0.575153937185545 -0.235804490770528 -1.26374360165358 0.0669028978839406 -0.729215644517466 -1.73650160860342 0.39668887392418 -0.760505439594076 0.440485279642802 -0.494461705955545 -0.4680382353166 0.114153321803841 1.12107856030275 0.124517433289142 -0.951725996154803 -0.394154538848253
0.164291864411769 -0.0332600304105685 -0.0706837031280823 1.30508691911417 -0.0971282568020505 0.0355431688374966 -0.0664017901368592 -0.224973724302697 -1.05351848879051 -0.339590358656687 -0.893384867371842 0.360081268928183 0.920323329707762 -0.206315238306956 -0.29608088790253 1.40423426218499 -0.322442137877137 0.091961884780576 2.38738220805058 -1.16952326102367 -0.489509249606503 -0.488155307381705 0.527109557019884 0.0841045975815981 -0.557282208350435 0.544784853675019 1.14928251896044 -0.608903762495133 0.250358726911646 0.552155945517542 -0.599805404441788 1.01519647309285 0.398622856722306 -0.478422401396191 -0.561057357170546 -0.868866583190503 0.110319294751774 -1.91686594478817 -1.15679476429354 -0.0259259624344283 0.312561907756642 -0.433208033017152 -0.610709447311836 -0.146408822728598 0.488313173034198 -0.320374457783741 0.0879237122430385 -0.349962183447484 -1.43053843369893 -0.0980204291377983 0.200305801994728 -0.479047693361764 0.132122238288205 -0.35389699769137 -0.200033522310705 0.152811380510958 -0.143329156954077 -0.173875389380836 0.756069260492926 0.427446193811357 -0.430049948636751 -0.0499824767267177 -0.203319904672529 0.510279895757335 0.592552583283543 -0.0251098947129115 -0.0529567273261213 1.19580429262111 0.570117148696409 -0.151189529475253 0.466491717564576 -0.156660062843468 0.211344570600778 -0.314424671034018 1.24300535138584
-0.00336942895100146 0.374822681282679 0.062561078220029 0.536404347253204 -0.331297526807347 0.697336810011116 0.262943499049354 0.62696575286582 0.355072505449018 0.463160083810507 0.102356078157313 -0.744626057568681 -0.581979955439657 -0.237401659228645 -1.1309073683866 0.471482483330916 -0.494846342789631 0.209775941372998 0.0337945624814675 -1.01707543431177 -0.681293648799015 1.75548199654854 1.7409527000952 0.432042295446466 0.986256922200991 0.695487416463268 1.47285285632151 -0.299476027871853 -0.510558860306121 -1.28206038821583 -0.206745897863837 0.347670303274327 0.329339375651999 -0.692482569752062 -0.251681044583908 -0.0360998123841519 -0.282230876553232 -0.01758685075211 -0.555228155096749 0.105314902145724 -0.954867111263111 -0.292175641329713 0.0238773084945901 -0.51187449311362 0.254231320491194 -0.855272910693868 0.718938436274091 -0.506543570574889 -0.630596662873149 -0.0174868348908403 0.393545959044589 0.61204796292564 0.738095201804898 -0.706201197797738 0.646485043754956 0.14483556551752 0.2718978754001 -0.689671841229181 -0.0987591066941681 -0.244368573863158 -1.06491104100866 -0.316528089442881 0.888505430314833 -0.406103477502877 -1.24441585785094 -0.13534151489221 -0.487314814192783 0.711776117900337 -0.344136323806069 0.14652349387031 0.960391637769801 0.371626544595163 0.156383412286331 -1.15791293648034 0.920194517505973
0.0127344102643381 0.0196452748789103 -0.0915805903788716 1.03716011049379 0.262012503075941 -1.08542020610317 -0.635689501382225 -0.513429238391506 0.15519402057879 0.250340986309004 -0.330029459383742 0.548816341347793 -1.56230997369723 0.165565588259404 0.00638070341678774 -0.0400796209101002 0.584779114004293 -0.148622541406058 -0.672656546414353 0.41831492565456 -0.207646811945814 -0.520657891192529 -0.498748246930065 -0.746167176006858 -1.4102624675406 -0.311183025844073 -1.88355423523078 0.723321907787683 0.542970684222271 1.38132600197093 1.08555313206789 -0.406990764745144 -0.594519990405486 0.168642168711726 0.735026077547888 -0.456498873183834 1.16156595796342 0.199513902630433 1.08745060522 0.783858757535279 -0.0450212786314469 0.00547284735986395 -0.0307799455832995 0.178138790438868 0.655225247323086 0.140680664956804 0.359125333266999 0.648485875200717 0.736208013060117 -0.188425254648839 0.0409026306065638 -0.784124866574904 -0.472929242331854 0.911644061253054 -0.285127222767122 -1.7405207549874 0.450107371139351 -0.00436033159710292 -0.599120720023893 -0.0288392779204106 -0.412047864938753 0.286500705365844 0.0970727210024765 0.358671276683445 0.209575138319909 -0.448496575841524 -0.142217926742232 0.416557320442119 0.409737729942587 -0.0932294379838142 -0.418988040114211 -0.443413764629594 0.134806211490761 1.14766015370437 -0.263056370419784
0.30132053632622 -0.155178079747431 -0.361696177988942 -0.738478038867701 0.273309153195754 0.634806070792706 0.180219840261791 1.10436742683466 -0.424058252927164 0.358780548511311 -0.791790606687389 -0.362249736213399 0.672836266432418 -0.173949437113601 -1.10608466574833 0.475103880261466 -1.49456529707345 -0.89948943445186 0.713253473013077 1.58509584946408 -0.656124875854147 0.660218584191259 0.0322950958929715 -0.120208523728681 -0.634008257894197 -0.21491325994377 0.800638025201918 -0.378174626741222 0.105374037487863 -0.2301136139753 0.719219200594159 -0.00282821201533888 0.209995513469462 -1.02221635242511 0.930149823799965 -0.0679958732727775 -0.645176867142771 0.201945136522891 1.44891332716258 1.58503054347755 0.00680416388853893 -0.864289507708952 0.183130070425575 -0.143194688328257 0.319411837257793 -0.655773920454062 -0.768677429657306 1.16662974302179 -0.476248534797129 0.48676871216364 0.761040742995525 -1.11980072269218 -0.50274296784664 0.504941774133474 0.0997993744954464 -0.182383422453525 -0.632119012267951 -0.152372493428215 0.478285104558356 -0.626789375280136 0.680653444442815 0.197726215526555 -0.370061000689581 -0.581955529972252 -0.502014574697599 0.815773844577462 -0.397860267918897 -0.202423104353484 -0.409995354346166 0.318200334074495 0.381306228772752 0.490484211421245 -0.145700484173847 -0.648765353969869 -0.0213594284703889
0.289712268664353 0.288594096477562 -0.0118378670554757 -0.53583741929922 0.151259206334904 -0.35085821243598 -0.657459020594838 0.132065931158081 0.807435247115511 0.773942017768768 -0.81659634005356 1.16351716714382 2.22482558026531 -1.66859752366605 -0.417906891793802 -0.50757201130774 0.629378731935271 -1.37892073620698 0.340816774230611 -0.76279860531815 0.542640811857209 -0.554525472966029 0.624871847533737 0.149167872104652 0.300758750575901 1.40419235322513 -0.47856638309879 0.802049045887389 0.220384821752718 1.49352065839906 0.538117986624316 -0.171417416029323 -1.6531937954796 0.799619097545847 -0.85336592446498 -0.47856715442934 -0.475389529675015 -0.373018796237259 -0.0173420818576916 0.0200083144576065 -0.131361706366262 0.104056347798898 -0.65894460323344 0.294852929667506 0.0676161215321724 -1.83515812833448 0.0324622175120597 0.374287120771047 -1.14850630331732 -0.179787123823444 0.691720752279203 0.947182602107252 0.439390247372499 -0.529981477766369 0.0284705819176837 0.0142277062084371 -0.849659681173971 -0.0810724971909716 0.848894264158546 0.33432217100266 -0.271246615306022 0.42266934371745 0.560315337181794 0.375024512776501 -0.238183788405978 -0.587579558119845 -0.638220751135953 0.0206446621610578 -0.4471277212261 -0.382508218879271 -0.771589716702556 0.727933693143968 0.305913809749314 0.442828324742419 0.185009031644492
0.181525702882328 -0.0279928711972746 -0.0562014578382647 0.665101106570467 -0.876544664591782 0.555365966154951 -0.437271145242461 -0.949423574464134 -1.04181483325067 -0.827852880984791 -0.618302168132288 -0.0704178511986404 1.89164292159465 0.0220322858198563 -0.615134056454742 -2.05667269223224 1.01998463603482 -1.30370135233684 0.257443140899886 0.575767659192873 -0.556763360000712 -0.937063002406187 -0.833560212831746 -1.32752826723552 -0.961466872555996 0.349446163309776 -1.94438444769742 0.128110033879172 0.22063550418135 1.17330098094561 0.903556403329917 -0.473165269480043 -0.301227205329714 0.547047166177107 1.33064084311349 0.837052026229956 -0.429330554344122 0.652175149219635 2.04046395206215 0.982533966748072 -0.112599090746321 -0.0207125392494259 0.750059052850147 -0.011982105868258 -0.154730193808274 1.24350183114962 0.765427814051682 0.503515069726828 0.601507473854656 0.136535020362683 -0.0888562508775507 -0.211577255316586 -0.831323868458162 0.248921480987487 -0.827475443235835 -0.922602611481942 0.501589571564748 -0.508937780600965 -0.109189809716921 -0.155270639413387 -0.805245953905455 -0.353830920374284 0.0395761991713699 0.0430060490154263 0.305222183356472 0.976228082394599 -0.00431585153540714 -0.502055198106546 0.458444425940204 0.457281516581533 0.300402910082334 -0.139187369012705 -0.64510641895257 0.944301682504355 0.441472068525972
-0.148518926002224 0.0192508678578621 0.0515963573467433 0.143219113795662 -1.58138857773234 0.679174289558793 -0.254358332921701 0.696643383846992 -1.3691153251498 -0.221242284213732 0.324699308175561 -0.194840410830177 -0.110471503980236 -0.254112021366183 -0.0477672153881577 -1.31374407609313 0.305688324118636 -1.28754763374596 0.91440568173094 0.626154313127601 -0.0914674618982581 -0.610677565649117 -0.696789679541239 -0.0849373774650238 0.40876636767041 -1.62413520257291 -0.606221589063859 0.22956622639524 0.482257971109357 0.524518914813833 -0.133322685733625 0.682825511270595 -0.224099806789957 0.590348891903228 1.54699263453234 -0.096508621260508 -1.52020638142488 0.71254307757686 1.0493558749243 0.522915061490953 1.00153980860133 -1.05827399873921 -0.396109861791585 0.126946096079768 0.175680817087355 -0.180167646894599 -0.200533087396688 0.581850114797134 1.26862895224481 -0.274096424576751 -0.631420443900162 0.00575901099377961 -0.4299465903431 0.794788511423648 0.394123428516085 0.199586150591915 0.0381266119584171 0.454324235254222 0.0520884662374123 -0.338481699546674 0.345909612739687 0.322896708681057 0.259314645923491 -0.108246729564897 -0.265137163132524 0.493488286801902 -0.219329898670996 -1.0467261519704 0.166020930393874 -0.377225890165168 -0.517210557856015 0.309564774350933 0.31565571459124 -0.210036651098776 0.907201454397323
-0.328695828863418 -0.0280152397832141 0.00402377436727759 -1.74492530953601 0.827511695771668 -0.24251840898476 -0.56597716052632 0.221924654639978 0.672850921712862 0.333068758859498 -0.371367634640668 -1.30141178615533 1.54783672726383 0.35149610280053 0.679976987550783 -0.237545898041428 -1.1526280366644 0.956018964883904 -1.84692169054701 -0.939979917434734 1.27556629920825 -0.344700166437854 -0.118074252097833 1.16556633530403 1.96740095129862 0.757913768947293 0.890353024091399 -0.448482691891631 0.353805209355963 -0.490384452670159 0.0969287392998775 0.132142549992679 -0.668932305410518 0.510973064811276 0.272609813497416 0.917283001791273 -0.523429281857378 -1.59323030144056 -1.48138685752271 -1.29878746251528 0.203138899103547 0.713894448699826 0.539967123061981 0.268051249949056 -0.857069339543975 0.679830948966718 0.11541933234598 -0.174661118100734 0.206856455242619 0.0627130303383076 -0.316110799615526 -0.50908304785448 0.599555750453889 -0.0102160160197705 0.796913784198083 0.00971516538287228 -0.181896969986887 0.522218035784264 -0.260287550856767 0.0868245662098045 0.219675454757234 0.0342118523088216 -0.85494972319357 -0.525154234076552 0.354996143724604 -0.448182387197638 0.432873018448426 0.0545538957842382 0.599750639972764 0.310653893087022 -0.499057036260104 -0.449866201787498 0.208506074178111 0.342880083450892 -0.484522854713277
0.0744825060850488 0.0298291521257792 -0.0362283674757583 0.0585221343519418 1.17555352326074 -0.744711675259691 0.123665113031792 -0.668705534228924 0.252171867923661 -0.0603586723906296 0.768300506128717 0.577878790907232 0.180349680904313 0.995700836340574 0.0457105910326399 1.39560590154656 -1.04928774072575 1.16306671010283 0.331564921397888 1.08156818133828 0.801214723342864 0.435444120280552 -0.894018643973462 0.796483381751386 -0.294966572368487 0.604666329565606 2.10384238355461 -1.05192209166295 0.312273944351444 -1.0305498076834 -1.29450297842223 -1.05984005686516 0.662317631727007 -0.530286410443659 -0.120733542722802 -1.10565966261548 1.79313552576985 -0.981151999513304 -2.08624576261554 -1.38212767152219 -0.599488387585887 0.775165090910311 0.346961193389026 0.58479171240327 -0.411449055322051 2.24471665247937 0.10305130409272 -1.20174893716717 -0.443137114072457 0.196083795676193 0.631523030863264 0.0865438018897363 0.481849423028232 0.128765407736181 -0.457518315060272 -0.437599474946424 0.0840796578938265 -0.373457169099637 -0.427735442767471 -0.174836981466051 -0.211318859582457 0.0608746925283374 -0.341135590857794 -0.674262970839065 0.397097422005305 -0.063986754185943 0.484817502983239 -0.714876609599698 -0.334439413246205 -0.19662295573039 -0.124508177322546 0.418709589785792 -0.585326758694536 0.286304530296053 -0.909937106746705
-0.329567432384509 -0.215334149313689 0.0820114635800641 -1.28460526480927 0.903159425207037 -0.347788831068788 -0.267989029284718 -0.910857818312789 1.84469640191131 0.381248636091712 -0.745320512173539 0.67815844722492 -0.908376447934604 0.447911907284899 0.314152391349996 0.481781288829681 -0.381523229767383 1.85312113128463 0.549112789389037 -0.130725101552627 0.689043206831226 0.473714199721202 0.69273376640106 1.27561257904123 2.02134523883846 1.83771534621672 0.795826722343461 -0.439892640670497 -0.170339867251479 -1.17534089313922 0.165836839502693 -0.712140700140133 -0.836932727104945 -0.935515713323613 -0.631834391295135 -1.11661924128511 0.127068480526978 -1.20393771615686 -1.4574301019815 -0.43661397161417 -0.775503190801235 0.894429248936052 -0.365021898208797 0.440510219330574 0.239996929417993 -0.648286871918911 -0.131034919323399 0.0331499872521535 0.78286965466046 -0.169760598008701 -0.201750761224383 0.694922031170383 0.49802113933194 -0.571437666597389 0.29997122208472 1.25229782762751 -0.445047956954093 -0.21241234919166 -0.423536833475609 0.0991218891626812 -0.454755666141652 -0.0138924345295278 -0.152701337352543 -0.0110454534708144 -0.0656672263434207 -0.811499644891736 0.44837701960633 0.523873311143787 -0.501068409223376 -0.156830012674572 0.0882679827783601 0.328733881170533 0.02466560831632 -0.00308197976616975 -1.51043670868317
0.244876109364819 -0.0150645998547942 -0.169704547988761 0.946869184793916 2.52969577978096 1.10180558096913 1.42467066509765 0.61387344522645 0.222544033071337 -0.247168760868526 0.910463411291741 0.0657032217690705 -1.2509562266915 0.330027659612459 -0.143205486955952 -0.622667899043238 0.0742565062340049 0.375869891058904 -0.688216340482014 -1.87348117247288 0.434392025410846 -1.28629396449261 1.39319600779931 -0.0898412399894382 -0.185645636458127 -0.02705133370635 0.843375651186071 -1.09238454963585 -1.81317315078834 -2.59792870864266 -0.622436242768163 0.0985179373423147 0.664281953526751 0.573093199067096 -0.79227165984018 -0.450573769011699 0.296027923204788 -0.0799126731544994 -0.338911330662822 0.0216247661794643 -0.595175621372678 0.340218993054641 -0.702720697247588 -0.187433066451821 -0.261981392743772 0.426489486819623 1.37098040241882 -1.00973622413197 1.6435326232352 0.0136911172560723 -0.107976249652158 -0.195202164857957 -0.188644055414753 0.457534255891631 -1.08815483001182 -0.779241315754964 0.827961124371924 0.216274915474064 -0.803676553347125 0.411526188377014 -0.191385107077982 -0.477273375987414 -0.946798993713899 0.509732765287458 -0.302748526283783 0.528164480101605 0.707464894348228 0.65841958423932 0.0916723787142785 0.468296116830362 0.0122111910415005 0.129191953530131 0.694280027042901 -0.0701856807031994 -0.377584044650383
0.14624735753354 0.239219171113775 0.139668165055312 0.74413137757618 -0.373863403189113 -0.0140649554624635 0.00922228516165368 0.937677495744065 0.258786284496989 0.373024709771473 0.686166658101443 -0.276211412943858 -0.359304024844331 -0.496734559975144 -0.729606194885766 -0.164385195408275 -0.461337172611529 -0.455920889491972 0.262399196791493 0.0760997291374562 -0.734194840325562 1.52198918343528 0.878162658974739 -0.83489152936042 -1.19967945730249 0.186132088924765 -0.572677194790657 0.230310817485824 0.189922664355869 -0.313834088943179 -0.195128888455741 0.738122969704684 0.0811414027200726 -0.177974239921612 0.406618469199852 0.111664752340526 0.209368421732606 1.06556641486567 1.28002638955644 1.04779573033257 -1.26844871800638 -0.111053344324846 -0.542090081844767 -0.598717314146432 0.362322241285064 -0.310225804631973 0.405425992170112 -0.514479276379747 -0.828852268266939 0.275530070958345 0.248565640493921 0.258420930926644 0.170854858948454 0.183805498876874 -0.0797859178341756 -1.19003396877927 0.317101702261628 -0.562072942394236 0.0551804733007273 -0.195730526284459 -0.839873039160165 -0.811003679348319 0.893827868217518 -0.388697118099382 -1.25053122355865 0.566937467060619 -0.0431384607597808 0.787235642681594 -0.760356829908179 0.30981262856755 0.267250865948715 -0.164943895836396 0.578485056719248 -0.914495927405248 1.23411756657254