-9.12693831963323 0.15516590865985 2.27576666034447 0.15516590865985 -0.755936478086449 -0.31232112384098 2.27576666034447 -0.31232112384098 6.51497885719242
3.45446881008439 -5.68971333425664 4.08569840491833 -5.68971333425664 -2.01258476983014 1.64508808790627 4.08569840491833 1.64508808790627 -2.2265975434211
-3.42609987808905 -0.463897033417503 -1.37873308255928 -0.463897033417503 -1.10661471100153 0.948526895144169 -1.37873308255928 0.948526895144169 -5.13655821359492
4.32294653540859 -4.05370597703332 -1.40659319749325 -4.05370597703332 6.88450624032474 -0.508285913942104 -1.40659319749325 -0.508285913942104 4.1895843896713
7.17417021592829 -1.67878983133393 1.20490358780549 -1.67878983133393 -4.00572004058793 3.55308430125359 1.20490358780549 3.55308430125359 0.280506655362125
-4.08480677594219 -1.47245986951303 4.25236255419712 -1.47245986951303 -0.500128610851841 -1.65524799124569 4.25236255419712 -1.65524799124569 -1.26428450865085
2.75820582920093 2.08245854788097 1.40145253285424 2.08245854788097 0.404922495421299 -0.912390298124615 1.40145253285424 -0.912390298124615 -1.0911872441548
1.77415106867599 -0.756501331853662 -0.938890694053997 -0.756501331853662 -1.99591995226048 0.536805054657804 -0.938890694053997 0.536805054657804 3.78665187204559
-6.50612545787561 1.54754422428282 -0.175079775699096 1.54754422428282 8.22472463542766 -2.10498213081902 -0.175079775699096 -2.10498213081902 -1.78500874764481
-1.39960862016593 0.300875557502081 -3.30157196580408 0.300875557502081 -2.78578529580052 1.58765584360473 -3.30157196580408 1.58765584360473 1.1282833406328
-3.48152944312393 -0.534626553951523 -1.55222492234234 -0.534626553951523 -0.0903957941463928 0.0490720025366132 -1.55222492234234 0.0490720025366132 -5.33335185463717
-9.04765386425491 5.43188436968609 -2.69948192917733 5.43188436968609 -7.59640798972767 -2.41142745502731 -2.69948192917733 -2.41142745502731 -4.78444764683462
3.35350191536137 -4.46129760901826 3.45675277612939 -4.46129760901826 -4.05474734474418 2.61138635359121 3.45675277612939 2.61138635359121 -1.9359536394004
-1.3957412457332 1.43502101812719 3.43305210723494 1.43502101812719 -1.56071628978797 -2.45891375186393 3.43305210723494 -2.45891375186393 1.86971716595404
-4.11405672160461 1.28293610923723 -1.66456900249134 1.28293610923723 -4.71763214852423 -2.87713308885901 -1.66456900249134 -2.87713308885901 -0.251715312571861
-13.1896035077258 -2.97031285428678 4.67851475217332 -2.97031285428678 1.78436376594517 -2.96487272085402 4.67851475217332 -2.96487272085402 -2.83702958518417
5.7653751400315 -3.17710640944087 -1.65921372618247 -3.17710640944087 0.353302607310147 1.82670533261098 -1.65921372618247 1.82670533261098 7.19167085102432
5.97893730244101 2.04439395299907 -4.39466270459262 2.04439395299907 3.2260641150906 1.60257479947369 -4.39466270459262 1.60257479947369 0.711093548869241
6.23091254003898 1.94244076676518 1.81745798284463 1.94244076676518 -5.83252991629224 4.6842505890222 1.81745798284463 4.6842505890222 0.742085279528253
0.0905464895172187 5.04130896047338 3.64849090113499 5.04130896047338 -3.56859693979626 0.636488558665155 3.64849090113499 0.636488558665155 -4.47139870292383
-1.66669957627183 -1.20771615449851 -1.31797474185188 -1.20771615449851 1.77182985723667 -1.84106199348181 -1.31797474185188 -1.84106199348181 -3.47955588461674
-10.3824332138825 5.28325458330143 -2.23089065087923 5.28325458330143 -9.80273133292746 -2.43419841955542 -2.23089065087923 -2.43419841955542 -3.48645349256865
-0.0529310377514154 -1.03845655017063 4.02275886910757 -1.03845655017063 5.43929426035974 -0.862019757665909 4.02275886910757 -0.862019757665909 1.06870285745715
1.36272993504912 -3.4333370931685 0.0742343155279676 -3.4333370931685 2.12893412031993 -1.42105689724966 0.0742343155279676 -1.42105689724966 0.654852711978857
3.86670282487747 -1.59154342791918 0.616856597062635 -1.59154342791918 0.331126485003319 0.440611855044739 0.616856597062635 0.440611855044739 -0.00534074975811805
0.32107961289757 0.707954228438084 -3.54503474240185 0.707954228438084 0.539519021672145 0.1184310047573 -3.54503474240185 0.1184310047573 -4.40036977676013
-1.24672388953137 1.95170248361172 -2.97368487503023 1.95170248361172 -0.513356895689387 -0.167964698589615 -2.97368487503023 -0.167964698589615 -3.42316787125596
-0.403343975445931 2.86662325406215 -2.96540137049789 2.86662325406215 2.55588376277473 0.393054588317208 -2.96540137049789 0.393054588317208 -3.12180005485448
-2.73234620451154 0.569456474745234 1.40013151588737 0.569456474745234 -1.5490260987336 -1.50984331377406 1.40013151588737 -1.50984331377406 -2.66181719158437
-1.7364320446836 -0.371664396215361 -0.779296314645113 -0.371664396215361 8.786066398704 -1.08901664482458 -0.779296314645113 -1.08901664482458 -2.67758220929346
-1.67498706469703 -1.54962975253022 -0.664127036798664 -1.54962975253022 -9.42847018105733 2.06972923917977 -0.664127036798664 2.06972923917977 -0.104019897329911
-8.67867226233589 5.25223031883852 -2.28429462899825 5.25223031883852 -10.7927430127309 -1.3398266573932 -2.28429462899825 -1.3398266573932 -1.64458231102157
4.97708548762766 1.93698547601476 -4.3627918481358 1.93698547601476 2.99827576381771 1.43248048698527 -4.3627918481358 1.43248048698527 0.603837577543061
3.82519776542479 -2.26586835862535 0.578826371612475 -2.26586835862535 4.52143731562058 0.797173686170917 0.578826371612475 0.797173686170917 -3.90347321781366
-0.649591465815003 -0.343431553648096 0.356742854177092 -0.343431553648096 -4.86661147340092 0.614982084439613 0.356742854177092 0.614982084439613 0.0452584217985863
5.86740342210591 -1.30689750874937 3.85985781075255 -1.30689750874937 -2.34318542098402 3.81580508573852 3.85985781075255 3.81580508573852 -1.25235603968439
1.27126118591282 1.45998449598647 2.71813989647751 1.45998449598647 -0.558306458967898 -1.8662638440617 2.71813989647751 -1.8662638440617 1.01176663456154
0.652733537128892 -2.37212919590744 0.902152043186274 -2.37212919590744 -3.39103032703546 0.971140140606401 0.902152043186274 0.971140140606401 -0.0583745439708766
1.75153543408889 -1.91653514889437 3.18830218147195 -1.91653514889437 -0.294461029499002 1.2108440609571 3.18830218147195 1.2108440609571 -1.37838223291343
9.18578838914237 2.39696935090866 1.82885648527122 2.39696935090866 -7.281702346321 0.124517888358891 1.82885648527122 0.124517888358891 -5.40874577558934
7.69331235918631 -1.58579037867334 1.26098993966795 -1.58579037867334 -3.80419860586696 3.64498270439374 1.26098993966795 3.64498270439374 0.163461658845846
5.52280828463328 -5.67767376180902 0.689260433627219 -5.67767376180902 1.73841951139523 -0.754696550743727 0.689260433627219 -0.754696550743727 0.386073090987398
6.2262709771779 2.72189531727313 2.3422761411449 2.72189531727313 -2.55661894127172 -1.61402710938871 2.3422761411449 -1.61402710938871 -5.45928529479638
2.0216615164954 1.48412505620804 2.41498087768127 1.48412505620804 -0.246480133009815 -1.65194131698068 2.41498087768127 -1.65194131698068 0.736818269954873
-5.56689987071867 2.21777255058545 3.9148047049071 2.21777255058545 -1.62566164315859 0.0793005679589555 3.9148047049071 0.0793005679589555 -3.922734761703
-9.51311169026391 2.65006135483362 -1.3886542798815 2.65006135483362 3.89210472468779 -1.65421366408195 -1.3886542798815 -1.65421366408195 0.542183742742578
2.17228949943245 -1.11225399850748 -1.02087162773808 -1.11225399850748 0.229761389363047 2.32894499217998 -1.02087162773808 2.32894499217998 5.14874386163556
1.33866222029196 -1.07857927463524 2.42489099332887 -1.07857927463524 0.956187300208544 2.50138597734555 2.42489099332887 2.50138597734555 -2.79971641501062
-4.24041335661712 -0.552743977475969 -4.80941450990121 -0.552743977475969 -2.16491391178088 0.913111374555891 -4.80941450990121 0.913111374555891 -3.16473022398006
-3.28348655042364 -0.487595159146639 -1.31495077493269 -0.487595159146639 -1.39016492182233 1.03484291755058 -1.31495077493269 1.03484291755058 -5.03934784160595
1.02331388419671 0.770773696837107 -3.72233713660241 0.770773696837107 0.702377396093883 0.228864544794636 -3.72233713660241 0.228864544794636 -4.11430055240012
9.0925100189803 -1.48660008427206 2.68642341469873 -1.48660008427206 -2.44814567069484 4.07813413188959 2.68642341469873 4.07813413188959 -1.24199638246275
4.1728714257244 4.8404244708849 4.73670108936594 4.8404244708849 -0.0904255120934542 1.21010611772123 4.73670108936594 1.21010611772123 -3.64361622258918
-1.44487486681968 2.45734192678091 2.26486772006953 2.45734192678091 -0.593242417946035 -0.656521609193612 2.26486772006953 -0.656521609193612 -2.87129330285881
-6.9502036396211 1.16069799212988 -1.11075401656491 1.16069799212988 -3.92559647940657 -0.283681781209025 -1.11075401656491 -0.283681781209025 -1.4523708094293
-0.393869803745422 -1.04168198095829 -0.722958389769558 -1.04168198095829 -1.04686447837599 -0.878433312300646 -0.722958389769558 -0.878433312300646 -1.6869029094623
-0.312258064126659 -1.01987512880078 3.75716961029819 -1.01987512880078 6.63044744230236 -1.14074921814013 3.75716961029819 -1.14074921814013 1.18859521183696
-4.14941430007914 -3.09358368937198 -0.026395765267679 -3.09358368937198 -1.68668940060469 -1.67613109449762 -0.026395765267679 -1.67613109449762 -1.89785552274612
-1.47842703123284 0.233860275849558 -3.29823630422307 0.233860275849558 -2.85739624400092 1.21499821475862 -3.29823630422307 1.21499821475862 0.876304022148917
-0.142959078060715 -2.10732270622832 1.52224944231317 -2.10732270622832 -4.65146481764216 0.680379315955626 1.52224944231317 0.680379315955626 0.360045085486246
9.19811555023285 -1.45266790414022 1.90940191766903 -1.45266790414022 -2.9455114853964 3.96681948787054 1.90940191766903 3.96681948787054 -0.647039852499139
-9.53568198066169 1.09644423442082 1.70535881832785 1.09644423442082 -5.58171701914776 -0.2109311957325 1.70535881832785 -0.2109311957325 6.67020158580509
-2.68191001230218 -0.144164104756858 -2.40273507928097 -0.144164104756858 4.03659493319203 0.414185761285576 -2.40273507928097 0.414185761285576 -0.794046735724282
-1.26271804483692 -1.35236334213772 -1.24478898537676 -1.35236334213772 2.04903536687533 -2.00037077691204 -1.24478898537676 -2.00037077691204 -2.97110128196922
1.0503224657964 -0.132887513920712 2.44308583285002 -0.132887513920712 2.34853125563721 2.91330318980023 2.44308583285002 2.91330318980023 -3.2404109163743
-9.06491037882457 2.96634609224726 -1.43202914798144 2.96634609224726 4.34584907456915 -1.66701462593206 -1.43202914798144 -1.66701462593206 0.649665733157601
8.61638912768986 -1.47667155692152 1.50633210469326 -1.47667155692152 -3.3707093932025 3.82197344144394 1.50633210469326 3.82197344144394 -0.201268002736793
1.68742609304214 -2.96955204128766 2.05828897063382 -2.96955204128766 -10.8768783956531 3.90995433803799 2.05828897063382 3.90995433803799 -0.858282659569314
1.47672110420549 -1.76801257416026 3.78425614010807 -1.76801257416026 0.577517001301633 0.688967650675633 3.78425614010807 0.688967650675633 -0.433137750976225
-1.64898811335844 -0.412247028339611 0.709691086761862 -0.412247028339611 -3.5249730081444 -1.16629380802409 0.709691086761862 -1.16629380802409 -4.76432325157044
-9.84483408434966 5.50992247832955 -2.45709049232932 5.50992247832955 -8.23056681117688 -2.59984882260991 -2.45709049232932 -2.59984882260991 -4.56826656897876
5.39417131557235 -3.95294701531573 -2.59069390959372 -3.95294701531573 2.68940790276198 -1.2591518239685 -2.59069390959372 -1.2591518239685 3.18955880148117
1.02295113954518 0.199475472211309 2.46275486845501 0.199475472211309 2.70826314194585 2.91029599200603 2.46275486845501 2.91029599200603 -3.40642729468544
-2.31549713180036 -1.51221640388825 4.85203124242218 -1.51221640388825 1.24265911264257 -2.00820181978029 4.85203124242218 -2.00820181978029 -1.40169791447752
-1.84819866196864 -0.148795654989001 1.13554578807395 -0.148795654989001 -3.2813357600206 -1.46968339927732 1.13554578807395 -1.46968339927732 -4.63093845527171
6.66428316040998 -2.07149854274044 -1.90231240677957 -2.07149854274044 3.07217263958218 -0.206324556049844 -1.90231240677957 -0.206324556049844 -0.443597795507166
-3.53616165486866 5.99395822303588 -1.72155238460711 5.99395822303588 -11.2954637381137 1.57649312167519 -1.72155238460711 1.57649312167519 1.36300967811501
5.63276735525812 -0.611715766836385 1.20405592114854 -0.611715766836385 -7.06379473740477 -2.56588468713723 1.20405592114854 -2.56588468713723 -2.43302334411395
1.0145868064086 0.137605902893475 -3.93717187831031 0.137605902893475 2.35162326586609 -0.589446181051152 -3.93717187831031 -0.589446181051152 -8.96286806309139
5.76442044310225 -1.73634584263932 -2.17611000968115 -1.73634584263932 1.86435231379704 -0.239495978295079 -2.17611000968115 -0.239495978295079 0.675130904331818
-6.70660753596237 2.14907865793269 5.1450848657896 2.14907865793269 -1.98498644513488 0.431403720742646 5.1450848657896 0.431403720742646 -4.2002313179054
-4.89553362087107 5.77218205885582 -1.997114722784 5.77218205885582 -11.2895881654223 0.810899805135891 -1.997114722784 0.810899805135891 0.756109277761844
0.0247107587802844 0.142086862986635 0.317121404346983 0.142086862986635 2.11482910561267 1.18817565135201 0.317121404346983 1.18817565135201 -3.50480928700367
3.5601340119118 -2.17768552355848 2.46207492687688 -2.17768552355848 -8.03663387896067 4.8398863268446 2.46207492687688 4.8398863268446 0.350220283716176
3.48272247488783 -1.16228624161934 -2.01848998544568 -1.16228624161934 -0.392943747166679 -0.0330899997614046 -2.01848998544568 -0.0330899997614046 2.76094685509219
4.49288581130693 -2.45965413053667 0.422302426097167 -2.45965413053667 4.82248770484618 0.685983940928568 0.422302426097167 0.685983940928568 -3.76570163368595
-0.311055936736335 6.75045953934818 -0.384727079647572 6.75045953934818 -10.4121881981215 3.27154445742865 -0.384727079647572 3.27154445742865 2.10917753594024
-2.06543617572428 0.317951993111495 2.24819598278837 0.317951993111495 -0.700996520245816 -0.413087235144856 2.24819598278837 -0.413087235144856 1.11658731439155
-3.83696591760928 3.34668693924809 4.04746613114478 3.34668693924809 -7.38882395106286 -0.55422841032134 4.04746613114478 -0.55422841032134 -3.93821918487952
-6.19875225687727 -2.02479958150941 5.85813176652989 -2.02479958150941 1.01104812214222 -2.55195034038035 5.85813176652989 -2.55195034038035 -2.02750291873439
-1.6032317352861 0.180167735724333 0.443891522799082 0.180167735724333 -0.493502928288392 0.167112102700831 0.443891522799082 0.167112102700831 0.347279838425164
-0.585108526382012 -0.970623957315955 -3.31926051882132 -0.970623957315955 1.69244008331993 -1.53932757174333 -3.31926051882132 -1.53932757174333 -0.0929611677429365
-14.4412763646164 -2.63040460357965 1.15814283688242 -2.63040460357965 4.14090693564563 -2.94452353339445 1.15814283688242 -2.94452353339445 -2.66045076208367
-4.86293837136985 2.00783505865523 -2.58811846095314 2.00783505865523 -1.46024367902198 -3.80317196999009 -2.58811846095314 -3.80317196999009 -0.0708327157734544
-2.5778750022814 -0.123848087298217 -2.19715680799429 -0.123848087298217 3.89892126679571 0.509153247781557 -2.19715680799429 0.509153247781557 -1.12151323497829
0.118524843412819 -1.08185442178935 4.11810785730072 -1.08185442178935 4.81160428152466 -0.683409203507958 4.11810785730072 -0.683409203507958 0.998634850882478
-2.2425192554651 -0.0587165162558837 -4.18693927455417 -0.0587165162558837 4.30663063461424 -0.354557425083605 -4.18693927455417 -0.354557425083605 1.47920454413861
4.43962188628636 -4.23254054688051 -2.18950635688867 -4.23254054688051 4.36638580283795 -1.75766600276184 -2.18950635688867 -1.75766600276184 3.2577430223603
3.41624313683157 -1.69506253501811 -1.386869346833 -1.69506253501811 0.321252221582785 2.53084067246926 -1.386869346833 2.53084067246926 6.31534855111525
-2.54942644286025 0.462344754494123 1.58555517501657 0.462344754494123 -2.2202996684746 -1.77101550026562 1.58555517501657 -1.77101550026562 -3.68569744966784
-3.14694446601177 1.08609168284526 4.24540621358192 1.08609168284526 2.0509567313866 0.940124919091567 4.24540621358192 0.940124919091567 -2.42205867313327
-3.18355194101706 -0.667643686415724 -1.56728710942379 -0.667643686415724 0.409866201313128 -0.564532692374686 -1.56728710942379 -0.564532692374686 -5.1426608277968
-2.26727098064019 4.37202312483026 3.72727626547077 4.37202312483026 -5.70414473507714 0.0479563779688877 3.72727626547077 0.0479563779688877 -4.42530798924013
-2.8781732167565 2.56288785193338 -2.67992560099651 2.56288785193338 -1.40684151424861 -1.20142832201537 -2.67992560099651 -1.20142832201537 -3.54934887975117
-2.67131491399678 0.445219152332796 -2.41767491206173 0.445219152332796 -3.92602343420739 -1.28708809492572 -2.41767491206173 -1.28708809492572 -0.0620608515372989
-1.94445251263524 0.172361441563235 -3.0055526372589 0.172361441563235 -3.32603719266554 -0.0673286881106386 -3.0055526372589 -0.0673286881106386 0.239690129673873
-10.8543693918193 -0.213920256762244 -3.33660036846045 -0.213920256762244 1.5363363894743 -1.00014665499231 -3.33660036846045 -1.00014665499231 -1.07793583926949
1.38718637224294 2.3242610373634 1.59250048426371 2.3242610373634 0.0947603593942044 -0.85284323454784 1.59250048426371 -0.85284323454784 -1.83466584716001
0.0559869375420111 0.146632455467172 -0.11463991972888 0.146632455467172 -5.93994746874289 0.863798464933886 -0.11463991972888 0.863798464933886 0.455893634270662
-1.91345380615355 -3.38123566582504 -0.811283064254785 -3.38123566582504 2.06556938070133 -1.22493067925311 -0.811283064254785 -1.22493067925311 -1.95615291479854
-2.3545235959169 -1.40952878177212 0.897214177474534 -1.40952878177212 -3.05265178726543 -0.143341910010724 0.897214177474534 -0.143341910010724 -0.838815621544239
1.81467708769103 -2.76013909976535 -1.25553288700192 -2.76013909976535 3.38790554326631 -2.32044843285982 -1.25553288700192 -2.32044843285982 0.856507252873778
0.538830635769067 1.33915260948489 -4.05179507485171 1.33915260948489 -4.26045987987993 -1.27576076998264 -4.05179507485171 -1.27576076998264 0.079239799377804
-3.37015664933612 -1.57273976969019 4.46545756037036 -1.57273976969019 0.449354219911483 -0.957430866288671 4.46545756037036 -0.957430866288671 -2.07315696913707
0.541908808384979 -1.91583922156306 -3.20492532635763 -1.91583922156306 1.56825124850804 -1.42866867665131 -3.20492532635763 -1.42866867665131 -0.714334338325654
3.75971283415197 -1.98378129947557 2.36264669353987 -1.98378129947557 -7.579938890967 4.9357741615599 2.36264669353987 4.9357741615599 0.5051538587524
1.18448667603976 -0.538214121218064 0.762643175625597 -0.538214121218064 -2.8780948180966 1.44839861964861 0.762643175625597 1.44839861964861 3.25422128890922
0.837188026205407 0.474229926236607 -0.696773578772221 0.474229926236607 -4.17269348504277 -0.61199504447294 -0.696773578772221 -0.61199504447294 -0.627891019654055
-3.95922040344879 -1.12578471535764 3.65310815500323 -1.12578471535764 -0.918336745336685 -1.80125554457223 3.65310815500323 -1.80125554457223 -0.452843739435996
2.12927521891849 0.341735528962226 1.24864904813121 0.341735528962226 -3.35426565350616 0.0841195148214711 1.24864904813121 0.0841195148214711 1.80594083382346
-4.7928745408641 1.25747672362989 -0.562449652741806 1.25747672362989 9.1779730834904 -1.94446879947881 -0.562449652741806 -1.94446879947881 -2.48883971338249
-12.3846534091181 -0.972258283997549 -1.30912523873473 -0.972258283997549 5.80616214668959 -2.97428872231363 -1.30912523873473 -2.97428872231363 -2.12801320187633
4.53889739058162 -2.77507716108099 1.84933878608248 -2.77507716108099 -4.73559007071987 3.08935785651929 1.84933878608248 3.08935785651929 -0.314280695438294
-1.4077883048086 -1.09894991984145 2.38320287066318 -1.09894991984145 0.424652779329833 -0.277954546470436 2.38320287066318 -0.277954546470436 -2.22106271855543
1.70906323713097 -0.600256356455754 2.49481548151923 -0.600256356455754 -3.06380848607624 2.48647858767956 2.49481548151923 2.48647858767956 1.634031192574
5.35750028115752 -0.225413416917586 -2.78359359030787 -0.225413416917586 3.003764834739 1.89504535385366 -2.78359359030787 1.89504535385366 0.18609712326917
6.6728511472485 -1.79530964879749 1.19970929137652 -1.79530964879749 -4.18409251088231 3.46511779370985 1.19970929137652 3.46511779370985 0.338215917249764
5.52792981249324 -0.809100503883723 0.213358694517283 -0.809100503883723 -5.24806970669785 -0.268776537249045 0.213358694517283 -0.268776537249045 -0.942103326439951
8.34810551006637 -1.49028207290141 3.20579039128368 -1.49028207290141 -2.27120671844721 4.06249209138379 3.20579039128368 4.06249209138379 -1.46081321835251
4.00230737881954 -6.12053831549706 3.61638608227031 -6.12053831549706 -0.537688098562972 0.784851176128209 3.61638608227031 0.784851176128209 -1.77133538921753
-3.43856954075959 -0.637799189011859 2.95454802182569 -0.637799189011859 -1.08148558136793 -1.62348884475746 2.95454802182569 -1.62348884475746 0.420997883656049
0.437950776456618 -0.468635225762495 1.92196232470452 -0.468635225762495 -4.80072156867413 3.19397222320272 1.92196232470452 3.19397222320272 -1.37522122798161
3.3465633118668 -3.58428288413831 0.021130628646357 -3.58428288413831 1.62969973435029 -1.01691150360593 0.021130628646357 -1.01691150360593 2.43530495149265
3.15116603610098 -3.12094561204073 -0.728037488724289 -3.12094561204073 -1.68684912481779 -2.90665533234075 -0.728037488724289 -2.90665533234075 -3.0495155188074
4.31534812669263 4.09745493310347 6.53148133953847 4.09745493310347 0.403899578360394 0.852972135879515 6.53148133953847 0.852972135879515 -3.17805194551994
-7.75173242522951 -2.16736095516492 -7.13248643803953 -2.16736095516492 0.119944042563825 1.28870110847644 -7.13248643803953 1.28870110847644 -4.26219760552382
-4.04998028910197 -1.26134470542388 3.87774848193566 -1.26134470542388 -0.805436980571874 -1.78563858900368 3.87774848193566 -1.78563858900368 -0.742116463231318
1.765530592743 -1.89254718214897 2.98997051461656 -1.89254718214897 -0.360727113912958 1.3997228152538 2.98997051461656 1.3997228152538 -1.67915931194694
-0.372280615917473 -1.1621192199586 3.19708555966965 -1.1621192199586 8.14238076841122 -1.24009691653591 3.19708555966965 -1.24009691653591 1.51427655933999
-2.13088252298632 0.13056878204573 1.43625660250303 0.13056878204573 -2.90384971269704 -1.67650316146718 1.43625660250303 -1.67650316146718 -4.36622007160922
-2.92178889245217 -3.32045788968237 -1.43948939939494 -3.32045788968237 1.70972811563822 -0.858877504099953 -1.43948939939494 -0.858877504099953 -2.70506279328677
7.7858528411002 2.81428833591928 2.45215564563555 2.81428833591928 -4.30679235230294 -1.43559745076765 2.45215564563555 -1.43559745076765 -5.51735020267998
2.37860602490699 0.853173293289888 -4.7325419786827 0.853173293289888 2.53690564799933 -0.0472843030016083 -4.7325419786827 -0.0472843030016083 -7.53259505208229
-0.274408321462382 -0.0959097045887939 0.130543764579192 -0.0959097045887939 -5.39758504158045 0.753956844406352 0.130543764579192 0.753956844406352 0.258423370697583
1.42086211185837 -1.48772621123994 0.963957432750975 -1.48772621123994 -4.15114616993917 2.80550616988506 0.963957432750975 2.80550616988506 -1.74961060048443
-3.31928295873184 -3.2523079192094 -1.78957305603944 -3.2523079192094 1.48684587739804 -0.640281377834471 -1.78957305603944 -0.640281377834471 -2.98172875953877
0.759771566378358 1.37507952506506 -1.28144570526491 1.37507952506506 -8.27990492232752 0.989843237887297 -1.28144570526491 0.989843237887297 1.16105936552186
-0.344913372923935 0.613471877032647 -3.30958862416325 0.613471877032647 0.431799947782636 0.0579243832391341 -3.30958862416325 0.0579243832391341 -4.60762139402203
8.57062902037823 2.75502999325753 2.35368633822472 2.75502999325753 -5.43496988331538 -1.05902938650595 2.35368633822472 -1.05902938650595 -5.62140048436288
5.44834242372188 -2.91903511515776 -1.70277048384203 -2.91903511515776 0.353109086511019 2.08465142184654 -1.70277048384203 2.08465142184654 7.28450967357918
0.142557233600097 1.45989167001581 -4.32687603463999 1.45989167001581 -4.47999306332157 -1.5364501843566 -4.32687603463999 -1.5364501843566 0.200636106548285
3.54608512678404 3.73999090525239 7.50388800237073 3.73999090525239 0.177968317224368 0.549842412917077 7.50388800237073 0.549842412917077 -3.09186748133081
8.21174876601969 2.79763643746211 2.42237530570263 2.79763643746211 -4.88098272067858 -1.27071183237178 2.42237530570263 -1.27071183237178 -5.57198080467709
0.399509961817064 -0.273890850111698 0.498357787421286 -0.273890850111698 2.35175451750045 1.19235189635093 0.498357787421286 1.19235189635093 -3.69649681165788
-4.24974311633645 1.15521922350597 -2.1039626129464 1.15521922350597 -0.250907342661931 -0.68999519232031 -2.1039626129464 -0.68999519232031 1.11862856936778
-2.96103339882164 0.930610496772517 -3.04017622699291 0.930610496772517 0.698640138339485 -2.56804832100568 -3.04017622699291 -2.56804832100568 0.387526951735183
3.12045257819555 -2.49003147406306 2.57707706584705 -2.49003147406306 -8.93668075648904 4.65034479742921 2.57707706584705 4.65034479742921 0.0501171589059303
-0.910582267685029 -2.38561904048475 0.13046354127651 -2.38561904048475 -10.9030245209655 2.39360660423638 0.13046354127651 2.39360660423638 -0.899932182682864
4.71887672048597 -1.79924422324962 2.30700639668203 -1.79924422324962 -7.14730450646706 -4.10901019696118 2.30700639668203 -4.10901019696118 -4.37117001476595
-4.34383042209475 -2.07208805227874 -3.92293753647563 -2.07208805227874 -0.402006666392619 0.655621610291319 -3.92293753647563 0.655621610291319 -3.3995194607698
-13.9081115169896 -2.11657064768973 0.0683646850028983 -2.11657064768973 4.88944227140728 -2.97249650392602 0.0683646850028983 -2.97249650392602 -2.50761664590631
3.20703529791514 -1.95028386229963 -4.98724910653746 -1.95028386229963 3.29759207974332 -1.23908181964903 -4.98724910653746 -1.23908181964903 5.258919452022
-1.67866659498318 -1.16709744888571 2.84062264541565 -1.16709744888571 0.593831521349335 -0.287918313381496 2.84062264541565 -0.287918313381496 -2.25450322174618
4.21259873560627 -1.24546397400533 0.293050346824784 -1.24546397400533 2.73949743862097 1.20621615969844 0.293050346824784 1.20621615969844 3.81227102967598
-0.263223296061717 3.05661337671668 -1.46115788834259 3.05661337671668 -9.2128153621601 0.367975424086278 -1.46115788834259 0.367975424086278 1.03677747224309
0.544637322921545 0.630070628477866 -0.630070628477866 0.630070628477866 -6.99218210162513 1.00384134028677 -0.630070628477866 1.00384134028677 0.811616402785048
-7.32410448689528 1.62959310503253 0.0141003111683903 1.62959310503253 7.62222535159839 -2.17547658026593 0.0141003111683903 -2.17547658026593 -1.41405977717285
-0.2140711404394 -0.234956129750561 -0.164469290825393 -0.234956129750561 -0.11747806487528 1.25048873500576 -0.164469290825393 1.25048873500576 2.32606568453055
5.59462732462311 -0.631229019304387 -1.9434520013438 -0.631229019304387 3.33687041740161 1.99321694477443 -1.9434520013438 1.99321694477443 1.39341841605782
-1.73294083358528 -0.287083571828887 0.934326533770377 -0.287083571828887 -3.42412405672272 -1.33102383302484 0.934326533770377 -1.33102383302484 -4.71078042864673
-2.65544909953538 0 -2.38887891965924 0 2.00542796860664 -1.37386169628471 -2.38887891965924 -1.37386169628471 -9.27049064015402
3.2901818276863 -5.25566093917628 4.01078558535661 -5.25566093917628 -2.95361240793609 2.11866134740193 4.01078558535661 2.11866134740193 -2.27831607215523
-4.8762486878001 2.69448193710654 -4.5053483401822 2.69448193710654 -5.2226041594727 -0.370900347617905 -4.5053483401822 -0.370900347617905 -4.10990311661899
1.5281887533582 -1.26389583539728 0.957734732412842 -1.26389583539728 0.91586654738933 0.0287843772036647 0.957734732412842 0.0287843772036647 4.90381117087887
-0.525045817720123 0.97390851679066 -0.166779259746392 0.97390851679066 1.85104388286428 1.11186173164261 -0.166779259746392 1.11186173164261 -3.06791477805092
0.0223343006853592 0.0977125654984467 1.87049768239884 0.0977125654984467 -4.84933503630863 3.66003352481325 1.87049768239884 3.66003352481325 -1.63598752520256
-4.09193817022898 -3.2698617316511 -0.627096770453636 -3.2698617316511 -1.63361343563552 -1.99458930770337 -0.627096770453636 -1.99458930770337 -1.931352658582
2.78988445965969 -1.13741443355357 2.32579791012015 -1.13741443355357 1.38689448619621 -0.718931764604613 2.32579791012015 -0.718931764604613 -0.332640070190194
-2.99851046141292 -0.70623599689965 -0.0159601355231559 -0.70623599689965 7.04839485041374 -0.744141318767145 -0.0159601355231559 -0.744141318767145 -1.33666135006431
-0.37454551827149 0.642876635839124 -0.572998740639219 0.642876635839124 -3.73986495109891 4.44143901890595 -0.572998740639219 4.44143901890595 -3.34854873797944
-2.71149257990721 0.561629002581936 1.49158214174086 0.561629002581936 -1.76586607323436 -1.64309136104204 1.49158214174086 -1.64309136104204 -3.04063329769941
-4.60596252822316 1.23154078294737 4.60103636509137 1.23154078294737 2.41628301614274 0.18226803587621 4.60103636509137 0.18226803587621 -3.66506537005137
3.5725829782374 -2.91527171434307 0.264024608091448 -2.91527171434307 -3.05553478739165 -3.38556554750596 0.264024608091448 -3.38556554750596 -3.46257272486597
-1.9643359035089 -1.24022776652915 3.25335109770689 -1.24022776652915 0.71126934022479 -0.333808715628963 3.25335109770689 -0.333808715628963 -2.26989926627695
5.38688311716251 -1.18661141232401 -0.329922331931209 -1.18661141232401 -4.28899031510571 1.00362927864788 -0.329922331931209 1.00362927864788 -0.493497269611388
5.38294676244473 -3.79988181325483 -0.615344182907703 -3.79988181325483 0.820458910543604 -0.0604825478926374 -0.615344182907703 -0.0604825478926374 4.78075095951369
-1.4535383941236 -0.932359762717117 0.0419038095603199 -0.932359762717117 -1.49020422748887 -1.178544643884 0.0419038095603199 -1.178544643884 5.20654833786974