0.0953681795 0.6447152987 0.876386379 3.1291022663 4.7857903189 4.3532024125 2.2610750904 2.0751742222 2.6246583896 7.2983780731 1.4311724654 0.7043771203 8.1418042545 4.3353328537 2.5629637228 0.9539389366 4.206874481 1.5499601917 4.0816639119 1.5565633002 4.7751458294 9.4028551451 1.8600442071 3.4157444733 6.3149335327 4.6543794673 0.3951687437 1.7857502162 4.1601146512 2.8890736192 3.5997686437 1.5585626577 1.2872143156 8.7359914238 1.6968701227 2.0270414583 6.7478916244 4.6778233177 3.8680678544 4.7863509438 4.7491173337 0.5209080719 0.4960844959 1.4158803963 3.3492966307 5.6084108394 1.4392026433 4.664614765 9.9208821483 4.7458071492 1.7156037612 1.6800478106 5.2086153294 0.6017422796 3.353920618 0.4671585009 3.8912788146 9.1908841542 3.3146577012 3.8944501762 6.9153273874 3.3958727689 1.1678461987 8.6889583402 0.8874305268 4.403732482 7.0321926544 5.7684536679 1.2609161121 1.0839501979 2.7506412141 1.0426461749 3.5707891118 2.8385134048 3.9933787581