0.0341380616862396 0.0816301691783598 -0.25964271851727 -0.00143647459360894 -0.0137142571725615 0.0177683705414581 -0.0423517035991502 0.067643375211593 0.0534202969864537 0.023365659229997 0.0135329944933966 -0.0211907641902014 -0.013036514729613 0.0798375969810014 0.0118864608801029 -0.0513089081619116 0.0871099585131705 0.0229740804209642 0.00228596663894346 -0.0330450862974027 0.0043068526789947 -0.0719108900325561 -0.00203476998994472 -0.0417359247103559 0.0277208486234357 -0.00585902685504932 0.0173148281782711 0.0262393797477645 -0.0629058629757171 0.0439185330556479 -0.0525700336105695 -0.00566850820928876 0.0472378255209229 0.0266145035050717 -0.073631471378615 -0.122985056597195 0.00791513699020069 0.00342470764039218 0.0540116504078427 0.00691523548768678 -0.0266250450225835 0.00940251940008573 0.0556026482215625 -0.0984986540785737 -0.00959766602914411 -0.00847589429978742 0.0209987028833416 0.0416749895969345 0.0489735763677913 0.075996627953988 0.0108004274662128 0.0116746020891357 0.0123464309978703 0.0320739811354087 0.0112549982701327 0.0247031464030691 0.0169841844826596 0.0411114040753325 -0.106977890810743 -0.0316356082730311 0.0369657594812121 -0.0152162948628896 0.0461080833758866 -0.0594035080599947 -0.055531942921179 -0.0828910375168345 -0.0162089972802736 0.0478512904180682 0.0410877499384769 -0.00831468621491311 0.00446600388240331 0.0822462051773372 -0.0357599127219449 -0.0198319368719227 0.0164617365903716