10.260333 0.000000 0.000000 0.000000 6.239928 0.000000 0.000000 0.000000 4.977081
10.199007 0.000000 0.000000 0.000000 6.188523 0.000000 0.000000 0.000000 5.126393
10.260333 0.000000 0.000000 0.000000 6.239928 0.000000 0.000000 0.000000 4.977081
10.199007 0.000000 0.000000 0.000000 6.188523 0.000000 0.000000 0.000000 5.151279
10.051190 0.000000 0.000000 0.000000 6.221448 0.000000 0.000000 0.000000 5.151279
10.267271 0.000000 0.000000 0.000000 6.095415 0.000000 0.000000 0.000000 5.151279
10.267271 0.000000 0.000000 0.000000 6.095415 0.000000 0.000000 0.000000 5.176164
10.193203 0.000000 0.000000 0.000000 6.552682 0.000000 0.000000 0.000000 5.176164
10.107983 0.000000 0.000000 0.000000 6.333671 0.000000 0.000000 0.000000 5.176164
10.107983 0.000000 0.000000 0.000000 6.333671 0.000000 0.000000 0.000000 5.201050
10.245190 0.000000 0.000000 0.000000 6.310693 0.000000 0.000000 0.000000 5.201050
10.032624 0.000000 0.000000 0.000000 6.326389 0.000000 0.000000 0.000000 5.201050
10.032624 0.000000 0.000000 0.000000 6.326389 0.000000 0.000000 0.000000 5.225935
10.260333 0.000000 0.000000 0.000000 6.239928 0.000000 0.000000 0.000000 5.001966
10.052416 0.000000 0.000000 0.000000 6.573394 0.000000 0.000000 0.000000 5.225935
10.034431 0.000000 0.000000 0.000000 6.292738 0.000000 0.000000 0.000000 5.225935
10.034431 0.000000 0.000000 0.000000 6.292738 0.000000 0.000000 0.000000 5.250820
9.970462 0.000000 0.000000 0.000000 6.365410 0.000000 0.000000 0.000000 5.250820
9.975801 0.000000 0.000000 0.000000 6.242453 0.000000 0.000000 0.000000 5.250820
9.975801 0.000000 0.000000 0.000000 6.242453 0.000000 0.000000 0.000000 5.275706
9.914343 0.000000 0.000000 0.000000 8.121772 0.000000 0.000000 0.000000 5.275706
9.387543 0.000000 0.000000 0.000000 8.946426 0.000000 0.000000 0.000000 5.275706
9.387543 0.000000 0.000000 0.000000 8.946426 0.000000 0.000000 0.000000 5.300591
9.666017 0.000000 0.000000 0.000000 8.014101 0.000000 0.000000 0.000000 5.300591
10.243676 0.000000 0.000000 0.000000 6.238590 0.000000 0.000000 0.000000 5.001966
9.277051 0.000000 0.000000 0.000000 8.739938 0.000000 0.000000 0.000000 5.300591
9.277051 0.000000 0.000000 0.000000 8.739938 0.000000 0.000000 0.000000 5.325477
9.150976 0.000000 0.000000 0.000000 8.740186 0.000000 0.000000 0.000000 5.325477
9.175753 0.000000 0.000000 0.000000 8.713211 0.000000 0.000000 0.000000 5.325477
9.175753 0.000000 0.000000 0.000000 8.713211 0.000000 0.000000 0.000000 5.350362
9.120895 0.000000 0.000000 0.000000 8.694145 0.000000 0.000000 0.000000 5.350362
8.867648 0.000000 0.000000 0.000000 8.784483 0.000000 0.000000 0.000000 5.350362
8.867648 0.000000 0.000000 0.000000 8.784483 0.000000 0.000000 0.000000 5.375247
9.270322 0.000000 0.000000 0.000000 8.428449 0.000000 0.000000 0.000000 5.375247
9.003836 0.000000 0.000000 0.000000 8.764290 0.000000 0.000000 0.000000 5.375247
10.175860 0.000000 0.000000 0.000000 6.254841 0.000000 0.000000 0.000000 5.001966
9.003836 0.000000 0.000000 0.000000 8.764290 0.000000 0.000000 0.000000 5.400133
9.048292 0.000000 0.000000 0.000000 8.535457 0.000000 0.000000 0.000000 5.400133
9.078341 0.000000 0.000000 0.000000 8.340982 0.000000 0.000000 0.000000 5.400133
9.078341 0.000000 0.000000 0.000000 8.340982 0.000000 0.000000 0.000000 5.425018
8.774305 0.000000 0.000000 0.000000 8.588443 0.000000 0.000000 0.000000 5.425018
8.700382 0.000000 0.000000 0.000000 8.551619 0.000000 0.000000 0.000000 5.425018
8.700382 0.000000 0.000000 0.000000 8.551619 0.000000 0.000000 0.000000 5.449904
8.888638 0.000000 0.000000 0.000000 8.286604 0.000000 0.000000 0.000000 5.449904
8.908959 0.000000 0.000000 0.000000 8.367063 0.000000 0.000000 0.000000 5.449904
8.908959 0.000000 0.000000 0.000000 8.367063 0.000000 0.000000 0.000000 5.474789
10.175860 0.000000 0.000000 0.000000 6.254841 0.000000 0.000000 0.000000 5.026852
8.712574 0.000000 0.000000 0.000000 8.462930 0.000000 0.000000 0.000000 5.474789
8.780644 0.000000 0.000000 0.000000 8.516234 0.000000 0.000000 0.000000 5.474789
8.780644 0.000000 0.000000 0.000000 8.516234 0.000000 0.000000 0.000000 5.499674
8.656162 0.000000 0.000000 0.000000 8.296775 0.000000 0.000000 0.000000 5.499674
8.651057 0.000000 0.000000 0.000000 8.207661 0.000000 0.000000 0.000000 5.499674
8.651057 0.000000 0.000000 0.000000 8.207661 0.000000 0.000000 0.000000 5.524560
8.833299 0.000000 0.000000 0.000000 8.408716 0.000000 0.000000 0.000000 5.524560
8.841969 0.000000 0.000000 0.000000 8.227163 0.000000 0.000000 0.000000 5.524560
8.841969 0.000000 0.000000 0.000000 8.227163 0.000000 0.000000 0.000000 5.549445
8.832850 0.000000 0.000000 0.000000 8.219338 0.000000 0.000000 0.000000 5.549445
10.219218 0.000000 0.000000 0.000000 6.265589 0.000000 0.000000 0.000000 5.026852
8.912631 0.000000 0.000000 0.000000 8.337997 0.000000 0.000000 0.000000 5.549445
8.912631 0.000000 0.000000 0.000000 8.337997 0.000000 0.000000 0.000000 5.574331
8.628889 0.000000 0.000000 0.000000 8.278108 0.000000 0.000000 0.000000 5.574331
8.652888 0.000000 0.000000 0.000000 8.255007 0.000000 0.000000 0.000000 5.574331
10.289582 0.000000 0.000000 0.000000 6.266517 0.000000 0.000000 0.000000 5.026852
10.289582 0.000000 0.000000 0.000000 6.266517 0.000000 0.000000 0.000000 5.051737
10.315695 0.000000 0.000000 0.000000 6.241661 0.000000 0.000000 0.000000 5.051737
10.260333 0.000000 0.000000 0.000000 6.239928 0.000000 0.000000 0.000000 4.977081
10.224500 0.000000 0.000000 0.000000 6.109554 0.000000 0.000000 0.000000 5.051737
10.224500 0.000000 0.000000 0.000000 6.109554 0.000000 0.000000 0.000000 5.076623
10.431489 0.000000 0.000000 0.000000 6.152198 0.000000 0.000000 0.000000 5.076623
10.303924 0.000000 0.000000 0.000000 6.282784 0.000000 0.000000 0.000000 5.076623
10.303924 0.000000 0.000000 0.000000 6.282784 0.000000 0.000000 0.000000 5.101508
10.213105 0.000000 0.000000 0.000000 6.330093 0.000000 0.000000 0.000000 5.101508
10.316628 0.000000 0.000000 0.000000 6.158091 0.000000 0.000000 0.000000 5.101508
10.316628 0.000000 0.000000 0.000000 6.158091 0.000000 0.000000 0.000000 5.126393
10.279754 0.000000 0.000000 0.000000 6.170732 0.000000 0.000000 0.000000 5.126393