5.20318 -0.010599 2.47346 0.0730118 3.10936 -0.015076 2.95908 4.70549 4.93306 2.31711 1.58552 2.44452 7.44728 1.51324 0.0138719 8.08924 4.63321 2.50241 1.18763 4.70432 2.20487 4.08856 1.58436 4.69341 9.21873 1.51441 2.74206 6.3178 4.63437 0.253515 1.34738 4.66271 3.73815 3.92881 1.54275 1.24961 9.05897 1.55602 1.20878 6.47755 4.67598 3.69732 4.81604 4.67159 0.649269 0.46015 1.55162 3.13781 5.59032 1.54714 4.29766 9.94621 4.66711 1.80912 1.94649 5.90505 1.5393 3.38931 0.348793 3.98073 8.51947 2.74997 3.45474 7.07666 3.43365 0.919089 8.45986 0.313682 3.40763 7.01705 5.86994 0.966202 1.88688 3.46876 1.49219 3.3297 2.78508 4.02784
5.20318 0.0151032 2.54812 0.103675 3.10936 -0.0150755 3.00004 4.83571 -0.0683296 2.30681 1.74145 2.49487 7.40632 1.38302 5.16457 8.09954 4.47728 2.60138 1.21616 4.63947 2.2822 4.09069 1.54521 4.8454 9.1902 1.57926 2.81404 6.31566 4.67352 0.250842 1.30539 4.55318 3.85289 4.00147 1.45892 1.28969 9.10097 1.66555 1.24335 6.40489 4.75981 3.80655 4.81979 4.69883 0.724379 0.487067 1.60457 3.28758 5.58657 1.5199 4.37186 9.91929 4.61416 1.80867 1.91904 5.86262 1.50099 3.44948 0.263716 4.06944 8.54899 2.86075 3.59 7.01854 3.45037 1.03205 8.48732 0.356106 3.59525 6.95687 5.95501 1.0268 1.85737 3.35798 1.50624 3.38781 2.76836 4.06419
5.20318 -0.010599 2.47346 0.0730118 3.10936 -0.015076 2.95908 4.70549 4.93306 2.31711 1.58552 2.44452 7.44728 1.51324 0.0138719 8.08924 4.63321 2.50241 1.18763 4.70432 2.20487 4.08856 1.58436 4.69341 9.21873 1.51441 2.74206 6.3178 4.63437 0.253515 1.34738 4.66271 3.73815 3.92881 1.54275 1.24961 9.05897 1.55602 1.20878 6.47755 4.67598 3.69732 4.81604 4.67159 0.649269 0.46015 1.55162 3.13781 5.59032 1.54714 4.29766 9.94621 4.66711 1.80912 1.94649 5.90505 1.5393 3.38931 0.348793 3.98073 8.51947 2.74997 3.45474 7.07666 3.43365 0.919089 8.45986 0.313682 3.40763 7.01705 5.86994 0.966202 1.88688 3.46876 1.49219 3.3297 2.78508 4.02784
5.20318 0.0151032 2.56056 0.103675 3.10936 -0.0150754 3.00004 4.83571 5.08269 2.30681 1.74145 2.50705 7.40632 1.38302 0.0384371 8.09954 4.47728 2.61408 1.21616 4.63947 2.29336 4.09069 1.54521 4.869 9.1902 1.57926 2.82777 6.31566 4.67352 0.252132 1.30539 4.55318 3.87167 4.00147 1.45892 1.29603 9.10097 1.66555 1.24946 6.40489 4.75981 3.8251 4.81979 4.69883 0.727969 0.487067 1.60457 3.30361 5.58657 1.5199 4.39316 9.91929 4.61416 1.81752 1.91904 5.86262 1.50835 3.44948 0.263716 4.08927 8.54899 2.86075 3.6075 7.01854 3.45037 1.03714 8.48732 0.356106 3.61278 6.95687 5.95501 1.03186 1.85737 3.35798 1.51363 3.38781 2.76836 4.08399
5.20318 -0.0013594 2.56056 0.177583 3.10936 -0.0150754 2.95773 4.75177 5.09006 2.42303 1.64104 2.51443 7.44863 1.46696 0.0310631 7.98332 4.57769 2.6067 1.1497 4.76372 2.23318 4.23106 1.653 4.80882 9.25666 1.45501 2.88795 6.17529 4.56573 0.312313 1.31051 4.7865 3.78585 4.07025 1.67578 1.21021 9.09584 1.43223 1.33528 6.33611 4.54295 3.91092 4.71841 4.54041 0.84612 0.66235 1.42969 3.42176 5.68794 1.67832 4.27501 9.74401 4.78904 1.69937 1.96686 5.9113 1.51041 3.64768 0.341503 4.0622 8.67328 2.7665 3.63457 6.99245 3.41816 1.03508 8.4395 0.307431 3.61072 6.75867 5.87723 1.05893 1.73308 3.45223 1.48656 3.4139 2.80057 4.08605
5.20318 0.061657 2.56056 0.0695427 3.10936 -0.0150754 2.85751 4.75592 5.05805 2.41521 1.70821 2.48241 7.54884 1.46281 0.0630773 7.99115 4.51052 2.63872 1.13393 4.71386 2.22396 4.1388 1.66615 4.7996 9.27243 1.50487 2.89717 6.26756 4.55258 0.321533 1.34828 4.5553 3.74653 3.92444 1.5076 1.17089 9.05808 1.66343 1.3746 6.48191 4.71113 3.95024 4.74127 4.58173 0.50942 0.531452 1.53402 3.08506 5.66509 1.637 4.61171 9.8749 4.68471 2.03607 1.85534 5.83209 1.45756 3.55668 0.351594 4.09213 8.69032 2.81943 3.60464 6.98897 3.43434 1.08793 8.55102 0.386634 3.66357 6.84968 5.86713 1.029 1.71604 3.3993 1.51649 3.41738 2.78439 4.0332
5.20318 0.061657 2.57301 0.0695427 3.10936 -0.0150754 2.85751 4.75592 5.08256 2.41521 1.70821 2.49448 7.54884 1.46281 0.0634549 7.99115 4.51052 2.65154 1.13393 4.71386 2.23477 4.1388 1.66615 4.82285 9.27243 1.50487 2.91124 6.26756 4.55258 0.323159 1.34828 4.5553 3.7647 3.92444 1.5076 1.17662 9.05808 1.66343 1.38131 6.48191 4.71113 3.9694 4.74127 4.58173 0.511954 0.531452 1.53402 3.10004 5.66509 1.637 4.63406 9.8749 4.68471 2.04598 1.85534 5.83209 1.46467 3.55668 0.351594 4.11197 8.69032 2.81943 3.62213 6.98897 3.43434 1.09326 8.55102 0.386634 3.68134 6.84968 5.86713 1.03405 1.71604 3.3993 1.52388 3.41738 2.78439 4.05275
5.20318 -0.166976 2.57301 0.106577 3.10937 -0.0150754 3.01993 4.42525 5.23791 2.28983 1.14891 2.64982 7.38643 1.79348 -0.091893 8.11653 5.06982 2.49619 1.2193 4.82514 2.40179 4.09045 1.5488 4.98987 9.18705 1.39359 2.74423 6.31591 4.66993 0.156145 1.44917 4.65435 3.9134 3.86059 1.37801 1.32532 8.95719 1.56438 1.23261 6.54577 4.84072 3.8207 4.82626 4.87152 0.634933 0.483498 1.59518 3.22301 5.5801 1.34721 4.51108 9.92286 4.62355 1.923 1.68569 6.15762 1.80454 3.37414 0.443454 4.07109 8.47074 2.49894 3.66301 6.78229 3.33745 0.753393 8.72067 0.0611063 3.34148 7.03222 5.77528 1.07493 1.93562 3.7198 1.48301 3.62407 2.88128 4.39262
5.20318 -0.0574705 2.57301 0.149187 3.10937 -0.0150754 2.98095 4.44759 5.14101 2.37142 1.28076 2.55293 7.42541 1.77114 0.00500005 8.03494 4.93797 2.59308 1.24654 4.61424 2.24829 4.10582 1.44741 4.83637 9.15981 1.60449 2.89773 6.30054 4.77132 0.309645 1.41166 4.63143 3.7891 3.94071 1.4646 1.20102 8.9947 1.5873 1.35691 6.46565 4.75413 3.94499 4.79732 4.70827 0.650157 0.555044 1.54143 3.23824 5.60904 1.51046 4.49586 9.85131 4.6773 1.90777 2.03497 5.81237 1.55394 3.60519 0.172331 4.03462 8.65918 2.87956 3.69947 7.08896 3.57319 1.00399 8.37138 0.406355 3.59207 6.80117 6.0464 1.11139 1.74718 3.33917 1.44654 3.31739 2.64554 4.14202
5.20318 -0.0574705 2.58545 0.149187 3.10937 -0.0150753 2.98095 4.44759 5.1658 2.37142 1.28076 2.56528 7.42541 1.77114 0.00509664 8.03494 4.93797 2.60562 1.24654 4.61424 2.25917 4.10582 1.44741 4.85969 9.15981 1.60449 2.91173 6.30054 4.77132 0.311206 1.41166 4.63143 3.80739 3.94071 1.4646 1.20687 8.9947 1.5873 1.36351 6.46565 4.75413 3.96403 4.79732 4.70827 0.653355 0.555044 1.54143 3.25388 5.60904 1.51046 4.51754 9.85131 4.6773 1.91702 2.03497 5.81237 1.56148 3.60519 0.172331 4.05409 8.65918 2.87956 3.71733 7.08896 3.57319 1.00889 8.37138 0.406355 3.60941 6.80117 6.0464 1.11681 1.74718 3.33917 1.45357 3.31739 2.64554 4.16201
5.20318 -0.0459818 2.58545 0.0805833 3.10936 -0.0150753 2.96361 4.54669 5.25624 2.32015 1.39134 2.65572 7.44274 1.67204 -0.0853432 8.08621 4.82739 2.51518 1.20907 4.721 2.29268 4.07469 1.56565 4.89321 9.19728 1.49773 2.87821 6.33167 4.65308 0.27769 1.47671 4.79883 3.83317 3.80705 1.64349 1.23265 8.92964 1.4199 1.33773 6.59931 4.57524 3.93825 4.81831 4.59191 0.664358 0.465448 1.43656 3.26488 5.58804 1.62682 4.50654 9.94091 4.78217 1.90602 1.83766 5.9606 1.51901 3.51153 0.267227 4.15231 8.63413 2.79616 3.61911 6.96026 3.41347 1.05136 8.56869 0.258127 3.65189 6.89483 5.9515 1.01859 1.77223 3.42257 1.55179 3.4461 2.80526 4.11954
5.20318 -0.0538295 2.58545 0.186866 3.10936 -0.0150753 2.99472 4.73932 5.39889 2.39533 1.57612 2.79836 7.41164 1.47941 -0.22799 8.01103 4.64261 2.37254 1.37315 4.67143 2.50714 4.01689 1.50823 5.10766 9.03321 1.5473 2.66376 6.38946 4.7105 0.0632378 1.43817 4.72841 4.04723 3.95187 1.56521 1.44671 8.96819 1.49032 1.12367 6.45448 4.65352 3.72419 4.85204 4.76888 0.516106 0.538002 1.60569 3.11663 5.55431 1.44985 4.65479 9.86835 4.61304 2.05427 2.17124 5.8342 1.76667 3.36283 0.274525 4.43011 8.37914 2.78101 3.34131 7.18755 3.54772 0.803702 8.23511 0.38453 3.40423 7.04353 5.94421 0.740786 2.02721 3.43772 1.82959 3.2188 2.67101 4.3672
5.20318 -0.0538295 2.59789 0.186866 3.10936 -0.0150753 2.99472 4.73932 0.198858 2.39533 1.57612 2.81183 7.41164 1.47941 4.99693 8.01103 4.64261 2.38396 1.37315 4.67143 2.5192 4.01689 1.50823 5.13217 9.03321 1.5473 2.67658 6.38946 4.7105 0.0636126 1.43817 4.72841 4.06667 3.95187 1.56521 1.4537 8.96819 1.49032 1.12912 6.45448 4.65352 3.74208 4.85204 4.76888 0.518648 0.538002 1.60569 3.13162 5.55431 1.44985 4.67714 9.86835 4.61304 2.06417 2.17124 5.8342 1.7752 3.36283 0.274525 4.45138 8.37914 2.78101 3.35737 7.18755 3.54772 0.807619 8.23511 0.38453 3.42059 7.04353 5.94421 0.744403 2.02721 3.43772 1.83841 3.2188 2.67101 4.38817
5.20318 -0.010599 2.48591 0.0730118 3.10936 -0.0150759 2.95908 4.70549 4.9578 2.31711 1.58552 2.45681 7.44728 1.51324 0.0140168 8.08924 4.63321 2.515 1.18763 4.70432 2.21597 4.08856 1.58436 4.71696 9.21873 1.51441 2.75584 6.3178 4.63437 0.254858 1.34738 4.66271 3.75691 3.92881 1.54275 1.25593 9.05897 1.55602 1.2149 6.47755 4.67598 3.71589 4.81604 4.67159 0.652591 0.46015 1.55162 3.15357 5.59032 1.54714 4.31922 9.94621 4.66711 1.81824 1.94649 5.90505 1.54707 3.38931 0.348793 4.00071 8.51947 2.74997 3.47209 7.07666 3.43365 0.92376 8.45986 0.313682 3.42474 7.01705 5.86994 0.971108 1.88688 3.46876 1.49972 3.3297 2.78508 4.04805
5.20318 -0.177331 2.59789 0.17697 3.10937 -0.0150752 3.06069 4.69719 0.0886358 2.31946 1.41049 2.7016 7.34566 1.52154 5.10715 8.0869 4.80824 2.49418 1.33456 4.75324 2.39019 4.04558 1.46654 5.00316 9.07179 1.46549 2.80559 6.36077 4.75219 0.192626 1.32501 4.67766 3.9544 4.05514 1.39096 1.34144 9.08135 1.54107 1.24138 6.35122 4.82777 3.85435 4.87663 4.77045 0.643506 0.503523 1.48375 3.25647 5.52973 1.44829 4.55228 9.90283 4.73498 1.93931 1.93632 6.01285 1.71491 3.32151 0.278459 4.2505 8.34772 2.65358 3.55826 6.96253 3.49258 0.867905 8.47004 0.205878 3.48087 7.08484 5.94027 0.945289 2.05864 3.56516 1.63753 3.44383 2.72616 4.32788
5.20318 -0.0370041 2.59789 0.185963 3.10937 -0.0150755 3.06392 4.5924 -0.328959 2.32522 1.44603 2.28401 7.34244 1.62633 5.52474 8.08113 4.7727 2.91178 1.30852 4.66071 2.27215 4.08062 1.51434 4.88512 9.09784 1.55802 2.92364 6.32573 4.70439 0.310668 1.53957 4.67981 3.80611 3.84957 1.53343 1.19314 8.86679 1.53893 1.38967 6.55678 4.68529 4.00264 4.8111 4.47123 0.513218 0.578042 1.32486 3.12619 5.59526 1.7475 4.68257 9.82831 4.89387 2.0696 2.12665 5.81104 1.5998 3.58581 0.261274 4.15957 8.60302 2.81109 3.64918 7.14387 3.55405 0.983018 8.2797 0.407687 3.59599 6.82055 5.95746 1.03621 1.80333 3.40764 1.5466 3.26249 2.66467 4.21277
5.20318 -0.0370041 2.61034 0.185963 3.10937 -0.0150754 3.06392 4.5924 4.92037 2.32522 1.44603 2.29496 7.34244 1.62633 0.300303 8.08113 4.7727 2.92571 1.30852 4.66071 2.28304 4.08062 1.51434 4.90845 9.09784 1.55802 2.93763 6.32573 4.70439 0.312219 1.53957 4.67981 3.82431 3.84957 1.53343 1.1989 8.86679 1.53893 1.39636 6.55678 4.68529 4.02177 4.8111 4.47123 0.515734 0.578042 1.32486 3.14114 5.59526 1.7475 4.70493 9.82831 4.89387 2.07952 2.12665 5.81104 1.60749 3.58581 0.261274 4.17945 8.60302 2.81109 3.66663 7.14387 3.55405 0.987771 8.2797 0.407687 3.61318 6.82055 5.95746 1.04122 1.80333 3.40764 1.55404 3.26249 2.66467 4.2329
5.20317 -0.0733442 2.61034 0.217946 3.10936 -0.0150779 3.04212 4.59196 5.26929 2.37901 1.40926 2.64388 7.36424 1.62677 -0.0486234 8.02735 4.80948 2.57679 1.25264 4.74704 2.4199 4.16849 1.56433 5.04532 9.15372 1.47169 2.80077 6.23787 4.65439 0.175356 1.3904 4.58699 3.94446 4.03073 1.40428 1.31905 9.01595 1.63174 1.27621 6.37563 4.81445 3.90162 4.74928 5.0516 0.600548 0.671845 1.8689 3.22596 5.65707 1.16713 4.62012 9.73451 4.34984 1.99471 1.71887 6.10891 1.73248 3.22019 0.545308 4.33565 8.20542 2.49071 3.51043 6.70409 3.29253 0.862781 8.68749 0.109827 3.4882 7.18616 5.67341 0.885022 2.20093 3.72802 1.71024 3.70226 2.9262 4.35789
5.20318 -0.0118598 2.61033 0.215276 3.10936 -0.0150676 3.14763 4.67523 5.12734 2.27082 1.554 2.50193 7.25872 1.5435 0.0933279 8.13553 4.66473 2.71874 1.32556 4.72689 2.28401 4.09289 1.60566 4.90941 9.08079 1.49184 2.93667 6.31346 4.61307 0.311253 1.49291 4.72022 3.83157 3.92555 1.59899 1.20615 8.91345 1.49852 1.38911 6.48081 4.61975 4.01451 4.80916 4.31405 0.772058 0.609292 1.19283 3.39748 5.59719 1.90468 4.4486 9.79707 5.02591 1.82321 2.18308 5.8045 1.60105 3.56973 0.291733 4.22015 8.55763 2.80577 3.62593 7.17098 3.53545 0.994215 8.22328 0.414223 3.61963 6.83663 5.92699 1.00052 1.84872 3.41296 1.59475 3.23538 2.68328 4.22645
5.20318 -0.0118598 2.62277 0.215276 3.10936 -0.0150675 3.14763 4.67523 5.15171 2.27082 1.554 2.51386 7.25872 1.5435 0.0938417 8.13553 4.66473 2.7317 1.32556 4.72689 2.29491 4.09289 1.60566 4.93275 9.08079 1.49184 2.95066 6.31346 4.61307 0.3128 1.49291 4.72022 3.8498 3.92555 1.59899 1.21194 8.91345 1.49852 1.39576 6.48081 4.61975 4.03361 4.80916 4.31405 0.775788 0.609292 1.19283 3.41365 5.59719 1.90468 4.46976 9.79707 5.02591 1.83192 2.18308 5.8045 1.60871 3.56973 0.291733 4.24023 8.55763 2.80577 3.64319 7.17098 3.53545 0.998999 8.22328 0.414223 3.63686 6.83663 5.92699 1.00533 1.84872 3.41296 1.60238 3.23538 2.68328 4.24655
5.20317 -0.951515 2.62278 0.245987 3.10938 -0.0150449 3.26204 4.25522 5.1797 2.18714 0.194337 2.54185 7.14431 1.96351 0.065859 8.21922 6.0244 2.70371 1.30594 5.10642 2.47982 4.14324 1.04553 5.11766 9.10041 1.11232 2.76574 6.26312 5.17321 0.127882 1.76663 4.51496 3.87309 3.68253 0.454075 1.23521 8.63972 1.70377 1.37248 6.72379 5.76466 4.01032 4.70666 5.41801 0.228639 0.742525 1.35714 2.8665 5.6997 0.800711 5.0169 9.66383 4.86161 2.37905 1.74992 6.57153 2.31838 3.51316 0.125552 3.94208 8.47032 2.03231 3.94131 6.7071 3.7081 0.289328 8.65644 -0.352789 2.92719 6.89321 6.09319 1.30345 1.93603 4.18643 1.30425 3.69928 2.51064 4.95622
5.20317 -1.36386 2.62288 9.89698 3.1093 -0.0151685 3.32117 4.18788 -0.0392846 2.3914 -0.285355 2.59857 7.08516 2.03088 5.28485 8.01495 6.50408 2.647 1.83877 5.38886 2.62104 3.87381 0.915659 -0.0167915 8.5676 0.829888 2.62448 6.53252 5.3031 5.26235 1.9367 4.96781 4.10263 3.77583 0.494659 1.46482 8.46965 1.25093 1.1429 6.63043 5.72419 3.78078 4.93302 5.18752 0.0714632 0.779572 0.714367 2.70926 5.47332 1.03117 5.17414 9.62681 5.50444 2.53623 2.47117 6.79702 2.4167 3.32423 -0.089198 4.2621 8.01802 1.83472 3.62132 7.16492 3.89494 0.190962 7.93524 -0.57829 2.82885 7.08212 6.30791 0.983477 2.38836 4.38403 1.62423 3.24145 2.32383 5.05451
5.20317 7.58256 2.63532 0.509433 3.1093 5.28542 3.32117 4.18788 5.26119 2.3914 -0.285355 2.6109 7.08516 2.03088 0.00925989 8.01495 6.50408 2.65956 1.83877 5.38886 2.63347 3.87381 0.915659 5.28379 8.5676 0.829888 2.63693 6.53252 5.3031 -0.0133427 1.9367 4.96781 4.12205 3.77583 0.494659 1.4718 8.46965 1.25093 1.14836 6.63043 5.72419 3.79869 4.93302 5.18752 0.0718715 0.779572 0.714367 2.72212 5.47332 1.03117 5.19862 9.62681 5.50444 2.54826 2.47117 6.79702 2.42817 3.32423 -0.089198 4.28227 8.01802 1.83472 3.63847 7.16492 3.89494 0.191934 7.93524 -0.57829 2.84227 7.08212 6.30791 0.988187 2.38836 4.38403 1.63196 3.24145 2.32383 5.07843
5.20316 -0.897557 2.63522 0.375796 3.10352 5.28097 3.35703 4.14502 -0.0585303 2.21657 0.137171 2.59193 7.05038 2.07503 5.3294 8.18927 6.08128 2.67928 1.4544 4.80332 2.44359 4.11814 0.796454 -0.206039 8.95136 1.41565 2.82622 6.28721 5.42289 5.47717 1.93983 4.36751 3.88874 3.63501 0.359756 1.23962 8.46972 1.8517 1.37995 6.77113 5.85807 4.03142 4.69644 5.47164 5.49784 0.876371 1.46297 2.8489 5.70879 0.749918 -0.226493 9.53003 4.75531 2.42516 1.90047 6.30927 2.16292 3.60246 -0.192228 4.05047 8.43433 2.40431 3.86948 6.73225 3.91668 0.457426 8.50375 -0.0900234 3.10621 6.80404 6.41157 1.22024 1.96988 3.81461 1.39912 3.66944 2.30185 4.81475
5.20318 -0.00993013 2.48591 0.0813404 3.10936 -0.0150759 2.96613 4.70204 4.95556 2.31838 1.58274 2.45458 7.44022 1.51669 0.0162561 8.08797 4.63599 2.51724 1.19963 4.69495 2.20733 4.08489 1.57565 4.70831 9.20673 1.52378 2.76449 6.32147 4.64308 0.263502 1.36541 4.65339 3.75767 3.91911 1.53409 1.25669 9.04095 1.56534 1.21414 6.48725 4.68464 3.71513 4.82161 4.67578 0.651848 0.462914 1.55648 3.15283 5.58475 1.54295 4.31997 9.94344 4.66225 1.81898 1.95509 5.8952 1.55281 3.39607 0.330826 4.00415 8.51791 2.76861 3.46864 7.07693 3.44282 0.918017 8.45127 0.323527 3.419 7.01029 5.8879 0.96766 1.88845 3.45012 1.50317 3.32943 2.77591 4.0538
5.18327 -1.24284 2.63177 0.914521 2.47651 5.12302 3.26992 4.11321 5.23128 2.4336 -0.351186 2.56124 7.11356 2.27179 0.0736964 7.93507 6.55426 2.70559 1.72536 5.20705 2.59589 4.0462 0.895803 5.25499 8.65563 0.980592 2.66104 6.34508 5.40297 0.0286947 1.8637 4.64039 4.03148 3.84952 0.337138 1.38479 8.53099 1.45529 1.19931 6.53502 5.89856 3.88179 4.83705 5.09468 0.166981 0.886719 0.658746 2.93029 5.52828 1.30023 5.14779 9.51686 5.60772 2.47957 2.57145 6.5026 2.43543 3.8617 -0.133803 4.15918 8.40568 2.03746 3.71197 7.14573 4.11729 0.240843 7.83038 -0.308747 2.82911 6.57457 6.43334 1.11854 1.92294 4.18356 1.49672 3.20574 2.18901 5.08075
5.18327 -1.24284 2.64419 0.914521 2.47651 5.14714 3.26992 4.11321 5.25591 2.4336 -0.351186 2.57334 7.11356 2.27179 0.0741133 7.93507 6.55426 2.71836 1.72536 5.20705 2.60815 4.0462 0.895803 5.27973 8.65563 0.980592 2.6736 6.34508 5.40297 0.0289003 1.8637 4.64039 4.05048 3.84952 0.337138 1.39136 8.53099 1.45529 1.20501 6.53502 5.89856 3.90009 4.83705 5.09468 0.167836 0.886719 0.658746 2.94412 5.52828 1.30023 5.17203 9.51686 5.60772 2.49128 2.57145 6.5026 2.44694 3.8617 -0.133803 4.17878 8.40568 2.03746 3.72947 7.14573 4.11729 0.242045 7.83038 -0.308747 2.84247 6.57457 6.43334 1.12386 1.92294 4.18356 1.50382 3.20574 2.18901 5.10468
5.47925 -0.883822 2.1435 0.987196 2.43829 4.98021 3.27787 4.32437 0.145839 2.43749 -0.195922 2.36169 6.90686 2.07481 0.149066 8.11791 6.42646 2.65997 1.92194 5.28872 2.72481 3.89621 0.990227 5.02757 8.48432 0.850481 2.86712 6.41195 5.24316 0.0842142 1.94075 4.80709 4.19224 2.95503 0.108179 0.598068 8.26474 1.46924 1.49562 7.20593 5.39134 4.10048 4.85559 5.49826 5.35079 0.928568 0.68525 3.06713 5.31523 0.851553 0.343272 9.6565 5.59972 2.25297 2.65725 6.64357 2.55098 3.75189 0.384078 3.52533 7.86909 1.86646 3.92374 6.46449 3.78581 0.719685 7.78046 -0.513293 3.04199 6.94049 6.37358 1.12971 2.65758 4.17457 1.93146 3.53748 2.50189 4.93985
5.58271 -0.830569 2.39831 0.740692 2.61868 5.32281 3.51923 4.45615 5.03319 2.36832 -0.208286 2.2994 6.82459 1.91197 0.314288 7.94203 6.24218 2.94511 1.94393 5.39066 2.25408 3.89834 1.12404 5.05342 8.50495 0.872309 3.00842 6.44788 5.13077 0.338368 2.27136 4.59502 3.56713 2.74953 0.839795 0.715389 8.28309 1.58796 1.62039 7.66982 5.28234 4.73079 5.13455 5.44048 4.90869 0.859998 0.677693 3.22665 5.23762 0.786152 0.480693 9.62669 5.79522 2.14024 2.77723 6.70035 2.19125 3.97184 0.200976 3.73772 7.91685 1.77674 4.12433 6.29475 3.60592 0.794993 7.75365 -0.532244 3.06242 6.48057 6.06724 1.58762 2.18536 4.42068 1.08709 3.89981 2.58037 4.59983
5.58271 -0.830569 2.40959 0.740692 2.61868 -0.00260596 3.51923 4.45615 5.05678 2.36832 -0.208286 2.31022 6.82459 1.91197 0.315827 7.94203 6.24218 2.95894 1.94393 5.39066 2.26469 3.89834 1.12404 5.0771 8.50495 0.872309 3.02255 6.44788 5.13077 0.340019 2.27136 4.59502 3.58387 2.74953 0.839795 0.718803 8.28309 1.58796 1.62804 7.66982 5.28234 4.75296 5.13455 5.44048 4.9317 0.859998 0.677693 3.2418 5.23762 0.786152 0.48301 9.62669 5.79522 2.15031 2.77723 6.70035 2.20156 3.97184 0.200976 3.75526 7.91685 1.77674 4.14367 6.29475 3.60592 0.798779 7.75365 -0.532244 3.07681 6.48057 6.06724 1.59511 2.18536 4.42068 1.09224 3.89981 2.58037 4.62139
5.00069 7.43129 2.61494 9.37841 3.71576 5.02663 3.5895 4.20271 5.0942 2.34149 -0.195513 2.56868 6.93154 1.88314 0.460352 7.92479 6.49317 2.70381 1.92938 5.26191 2.38925 4.05908 0.851206 5.21492 8.44203 0.949051 2.89296 6.43784 5.26273 0.148497 2.1164 4.48955 3.68346 2.99911 0.508928 0.925234 8.49772 1.677 1.47723 7.55803 5.77244 4.54452 5.0222 5.52585 4.91269 0.838926 0.601488 3.21482 5.56419 0.607164 0.331949 9.53527 5.5621 2.11008 2.74879 6.53139 2.3872 3.84358 -0.0952612 4.02036 7.96778 1.90995 3.9957 6.73905 3.80543 0.479595 7.58247 -0.374709 2.77753 6.57165 6.0749 1.42103 2.41718 4.31629 1.25116 4.07384 2.40856 4.87614
5.34225 7.19517 3.0993 1.08146 2.42324 0.49428 3.86772 4.34753 4.80568 2.37014 -0.19371 2.26309 6.53338 1.99346 0.483738 8.06787 6.31906 3.03742 2.24515 5.44913 2.12336 3.78659 1.0035 4.92963 8.17904 0.944575 3.18806 6.54665 5.30386 0.196221 2.62396 4.86431 3.54441 2.69903 0.677901 0.622183 7.48117 1.76106 2.10524 7.81494 5.54512 4.7589 5.24439 5.77883 4.80235 0.781116 0.738612 2.91009 5.16027 0.715555 0.274561 9.59651 5.73256 2.05525 3.01552 6.80042 1.83922 3.70789 0.123663 3.66774 7.94655 1.71313 4.52163 6.02655 3.80926 0.407447 7.52314 -0.533462 3.22257 6.70559 5.9781 1.58037 2.66487 4.41664 1.03783 3.62582 2.44352 4.41848
5.34225 7.19517 3.11379 1.08146 2.42324 0.49665 3.86772 4.34753 4.8281 2.37014 -0.19371 2.27369 6.53338 1.99346 0.486058 8.06787 6.31906 3.05161 2.24515 5.44913 2.13331 3.78659 1.0035 4.95263 8.17904 0.944575 3.20295 6.54665 5.30386 0.197204 2.62396 4.86431 3.56096 2.69903 0.677901 0.625147 7.48117 1.76106 2.11511 7.81494 5.54512 4.7811 5.24439 5.77883 4.82476 0.781116 0.738612 2.92369 5.16027 0.715555 0.275908 9.59651 5.73256 2.06488 3.01552 6.80042 1.84784 3.70789 0.123663 3.68487 7.94655 1.71313 4.54273 6.02655 3.80926 0.409412 7.52314 -0.533462 3.23762 6.70559 5.9781 1.58779 2.66487 4.41664 1.04273 3.62582 2.44352 4.4391
5.38268 7.1462 3.09601 0.94553 2.41599 -0.0418374 3.45902 4.29253 4.8143 2.39863 -0.121354 2.81569 7.01792 2.03033 0.274456 8.12015 6.30041 2.85243 1.82547 5.29946 2.15945 3.8704 1.0481 5.37102 8.49266 1.02649 2.92788 6.3963 5.34171 0.127045 2.03706 4.70464 3.58641 3.08854 0.87428 1.2599 8.38032 1.55359 1.42119 7.64178 5.74351 4.61812 5.00334 5.55929 4.75187 0.696672 0.591406 3.34931 5.36665 0.898704 0.386094 9.54508 5.41306 1.99106 2.61894 6.63715 2.04991 3.50384 -0.072879 4.36758 8.02809 2.06812 4.0046 6.47142 3.79494 0.290155 7.5472 -0.241042 2.92584 6.46526 5.96584 1.5087 2.30625 4.33495 1.03716 3.55234 2.41196 4.61302
5.26938 -1.06797 2.2252 9.66707 3.00004 0.563785 3.68298 4.3467 4.91517 2.47702 0.0273547 2.30131 6.70193 1.81609 0.506691 7.97511 6.30146 2.96759 2.01678 5.50316 2.20122 3.90642 0.962433 5.03671 8.32199 0.752142 3.21607 6.57935 5.2143 0.288697 2.39309 4.85356 3.54547 2.66445 0.872234 0.571557 7.88742 1.38159 1.87082 7.69544 5.49339 4.68234 5.21287 5.43119 4.89205 0.851978 0.424038 3.19379 5.21434 0.507919 0.376176 9.45982 5.60448 2.10002 2.69689 6.84024 1.89766 3.91757 0.203227 3.68252 7.87664 1.68211 4.33919 6.6174 3.72527 0.865558 7.60018 -0.681197 3.22755 6.68685 6.15763 1.54915 2.38773 4.50063 1.05745 3.93976 2.43808 4.6169
5.20318 -0.0180558 2.48591 0.115248 3.10936 -0.0150759 2.96915 4.68695 4.94813 2.34928 1.55953 2.44715 7.43721 1.53178 0.0236856 8.05708 4.6592 2.52467 1.23347 4.71075 2.2009 4.08496 1.58333 4.70189 9.17289 1.50798 2.77091 6.3214 4.6354 0.269929 1.39139 4.68107 3.72678 3.92703 1.55365 1.2258 9.01496 1.53766 1.24503 6.47932 4.66508 3.74602 4.82879 4.67959 0.59279 0.48964 1.55217 3.09377 5.57757 1.53914 4.37902 9.91672 4.66656 1.87804 1.98578 5.86725 1.51879 3.40559 0.343912 3.98742 8.49352 2.7474 3.48538 7.07371 3.4789 0.952037 8.42058 0.351481 3.45302 7.00077 5.87482 0.984398 1.91284 3.47133 1.48643 3.33265 2.73983 4.01978
5.26938 -1.06797 2.23557 9.66707 3.00004 0.566465 3.68298 4.3467 4.93799 2.47702 0.0273547 2.31203 6.70193 1.81609 0.509106 7.97511 6.30146 2.9814 2.01678 5.50316 2.21149 3.90642 0.962433 5.0601 8.32199 0.752142 3.23103 6.57935 5.2143 0.290103 2.39309 4.85356 3.56195 2.66445 0.872234 0.574273 7.88742 1.38159 1.87955 7.69544 5.49339 4.70409 5.21287 5.43119 4.91477 0.851978 0.424038 3.20864 5.21434 0.507919 0.377987 9.45982 5.60448 2.10981 2.69689 6.84024 1.90651 3.91757 0.203227 3.69964 7.87664 1.68211 4.35934 6.6174 3.72527 0.869636 7.60018 -0.681197 3.24257 6.68685 6.15763 1.55639 2.38773 4.50063 1.06241 3.93976 2.43808 4.63835
5.39446 -0.948965 2.48405 9.44058 3.80042 4.59248 3.65161 4.29214 5.06415 2.39091 0.120066 2.38263 6.73969 1.86031 0.541305 7.97165 6.14245 2.98285 2.01533 5.27986 2.22114 4.037 1.06748 5.12263 8.33491 0.82279 3.31145 6.47816 5.09288 0.206057 2.44781 4.52983 3.52138 2.80451 1.05695 0.775998 7.3853 1.1076 2.13326 7.5643 5.04467 4.47072 5.11745 5.50062 4.88948 0.812241 0.803479 2.91704 5.39507 0.482699 0.333971 9.52337 5.42894 2.17091 2.70936 6.65556 2.11965 3.66997 0.225249 3.87294 8.14994 1.81551 4.49623 6.44399 3.70045 0.873383 7.99733 -0.613142 3.71273 6.78074 6.1704 1.32024 2.4066 4.38827 1.0648 4.28336 2.57535 4.67369
5.2553 -0.739885 1.94095 9.83948 3.59117 0.337812 3.72479 4.38101 5.30674 2.05065 0.339791 2.20871 6.6283 1.68194 0.142769 8.14239 6.00001 3.28964 2.03157 5.32101 2.52678 3.84383 1.14323 4.82767 8.26189 0.940254 2.78025 6.65394 4.93529 0.60103 2.45245 4.92414 3.97773 2.83022 0.798235 0.492691 7.24749 0.548332 1.6218 7.85039 5.03016 4.91006 5.31334 5.48301 5.41403 9.64142 1.52692 2.23301 5.18098 0.401298 5.20936 9.58066 5.03522 2.33905 2.31471 6.78683 2.18159 3.5692 0.633091 3.40361 7.79532 1.94372 3.85296 6.46553 3.42924 0.946479 8.69447 -0.474141 3.36685 6.90268 5.7746 1.96748 2.83732 4.39656 1.52015 4.41055 2.66912 4.76778
5.2553 -0.739885 1.94996 0.761135 3.59117 0.339438 3.72479 4.38101 5.33126 2.05065 0.339791 2.21896 6.6283 1.68194 0.143497 8.14239 6.00001 3.30487 2.03157 5.32101 2.53849 3.84383 1.14323 4.84999 8.26189 0.940254 2.79313 6.65394 4.93529 0.603869 2.45245 4.92414 3.99613 2.83022 0.798235 0.495031 7.24749 0.548332 1.62934 7.85039 5.03016 4.93276 5.31334 5.48301 0.0140335 9.64142 1.52692 2.24337 5.18098 0.401298 5.23344 9.58066 5.03522 2.34989 2.31471 6.78683 2.19171 3.5692 0.633091 3.41937 7.79532 1.94372 3.87079 6.46553 3.42924 0.95091 8.69447 -0.474141 3.38244 6.90268 5.7746 1.97662 2.83732 4.39656 1.52723 4.41055 2.66912 4.78982
5.08833 7.4281 2.04424 9.54106 3.12204 0.417367 3.96787 4.55774 4.46175 2.04287 0.30447 2.18422 6.44696 1.67358 0.814874 8.36625 5.9278 3.30178 2.53717 5.63401 1.83411 3.59524 1.21939 4.97066 7.81424 0.646803 3.46055 6.83503 4.93143 0.516806 3.76743 5.47556 2.76918 2.3911 1.32248 0.496472 6.57248 0.941902 2.59473 8.05789 4.8535 4.99149 5.51084 5.37152 5.30803 9.15963 1.08813 2.82897 4.85497 0.706519 0.385846 1.25969 5.06135 2.603 2.4029 7.13532 1.42232 3.32403 0.321411 3.71618 7.75714 1.38682 4.86286 6.62431 3.54756 1.26089 7.81356 -0.855206 3.77859 7.29303 5.95027 1.6378 2.7666 4.67669 0.604757 3.9518 2.63289 4.32441
5.53375 -1.06046 2.59524 0.894212 3.12811 5.26875 3.80013 4.73181 4.88217 2.20561 0.395909 1.78231 6.37513 1.60355 0.521497 8.42378 5.83057 3.50428 2.40646 5.60602 2.2809 3.56978 1.34614 4.65504 8.04834 0.600936 3.24209 6.73496 4.83137 0.687888 3.66237 5.84608 3.11964 2.26156 1.09125 0.0435696 6.91714 0.58827 2.15618 7.89117 4.77557 5.12102 5.49341 5.569 0.1145 9.28346 1.08446 2.48698 4.67308 0.624703 0.0950382 1.39373 4.86952 3.23795 1.91468 7.0498 1.90449 3.5291 0.701096 3.22445 7.69218 1.49343 4.47289 6.3496 3.38111 1.05117 8.22717 -0.885048 3.77641 7.1935 5.46047 2.05049 2.54664 4.75141 0.943957 3.81875 2.8381 4.4847
5.53375 -1.06046 2.60722 0.894212 3.12811 5.29298 3.80013 4.73181 4.90463 2.20561 0.395909 1.79056 6.37513 1.60355 0.523959 8.42378 5.83057 3.52042 2.40646 5.60602 2.29144 3.56978 1.34614 4.67646 8.04834 0.600936 3.25703 6.73496 4.83137 0.691112 3.66237 5.84608 3.13402 2.26156 1.09125 0.0438386 6.91714 0.58827 2.16614 7.89117 4.77557 5.14458 5.49341 5.569 0.115094 9.28346 1.08446 2.49846 4.67308 0.624703 0.0955433 1.39373 4.86952 3.25287 1.91468 7.0498 1.9133 3.5291 0.701096 3.23931 7.69218 1.49343 4.49348 6.3496 3.38111 1.05606 8.22717 -0.885048 3.7938 7.1935 5.46047 2.05997 2.54664 4.75141 0.948357 3.81875 2.8381 4.50534
5.53434 -1.05548 3.2619 0.949099 3.33482 4.74481 3.80797 4.63185 4.79689 2.06114 0.264509 2.29362 6.65502 1.67336 0.804187 8.39776 5.90645 3.0243 2.01778 5.27509 2.13232 3.69775 1.21909 4.89688 8.10458 0.843525 3.54199 6.8398 5.02454 0.311285 3.28864 5.22744 2.98242 2.95856 0.60868 0.664801 6.88195 1.23272 2.61261 8.02256 4.93452 4.77199 5.56181 5.51063 4.96905 9.43524 1.23549 2.82678 5.24716 1.04517 5.12955 0.871256 4.38499 2.63666 1.24629 6.68353 2.29959 3.45692 0.344837 3.59943 8.13378 1.65908 4.87251 6.47608 3.5723 0.814612 7.94798 -0.676881 3.80626 7.18951 5.96898 1.48273 2.32557 5.05937 0.609165 3.3729 2.67666 4.56749
5.38626 -0.989708 2.98268 0.716043 3.54554 5.18731 3.7735 4.65869 4.95406 2.3155 0.377505 1.93769 6.66361 1.53877 0.420966 8.28434 5.83207 3.41225 2.24533 5.43837 2.31007 3.71401 1.30694 4.63411 8.10551 0.724431 3.17394 6.65918 4.83177 0.765671 3.41569 5.53788 3.31509 2.39106 1.00314 -0.0014145 6.97482 0.651299 2.07524 7.82563 5.13958 5.25532 5.29768 5.51176 5.7299 9.46538 1.11504 2.50076 4.96335 0.781755 5.36941 1.06824 4.82539 3.14331 1.9471 6.81001 1.65229 3.64833 0.447561 3.2672 7.7302 1.84186 4.19739 6.27438 3.39729 1.07268 8.19114 -0.631421 3.89248 6.85618 5.58744 2.14926 2.59806 4.47879 1.14559 3.77631 2.87395 4.32119
5.38626 -0.989708 2.99637 9.625 3.54554 5.21107 3.7735 4.65869 4.97675 2.3155 0.377505 1.9466 6.66361 1.53877 0.422958 8.28434 5.83207 3.4279 2.24533 5.43837 2.32069 3.71401 1.30694 4.65534 8.10551 0.724431 3.1885 6.65918 4.83177 0.769236 3.41569 5.53788 3.33029 2.39106 1.00314 -0.00135205 6.97482 0.651299 2.08478 7.82563 5.13958 5.27938 5.29768 5.51176 0.281339 9.46538 1.11504 2.51224 4.96335 0.781755 5.394 1.06824 4.82539 3.15773 1.9471 6.81001 1.6599 3.64833 0.447561 3.28219 7.7302 1.84186 4.21663 6.27438 3.39729 1.07764 8.19114 -0.631421 3.91032 6.85618 5.58744 2.15915 2.59806 4.47879 1.15089 3.77631 2.87395 4.34099
5.20318 -0.0180558 2.49835 0.115248 3.10936 -0.0150758 2.96915 4.68695 4.97282 2.34928 1.55953 2.4594 7.43721 1.53178 0.0238785 8.05708 4.6592 2.5373 1.23347 4.71075 2.21193 4.08496 1.58333 4.72535 9.17289 1.50798 2.78477 6.3214 4.6354 0.271347 1.39139 4.68107 3.7454 3.92703 1.55365 1.23197 9.01496 1.53766 1.2513 6.47932 4.66508 3.76473 4.82879 4.67959 0.595814 0.48964 1.55217 3.10924 5.57757 1.53914 4.40089 9.91672 4.66656 1.88746 1.98578 5.86725 1.52643 3.40559 0.343912 4.00733 8.49352 2.7474 3.5028 7.07371 3.4789 0.956849 8.42058 0.351481 3.47027 7.00077 5.87482 0.989371 1.91284 3.47133 1.4939 3.33265 2.73983 4.03985