-30089.9200260024
-30088.6663498901
-30089.9200260024
-30088.5651808739
-30088.7532661349
-30088.7800795385
-30088.7690423348
-30088.3556420328
-30088.85130217
-30088.7929354142
-30088.4067766868
-30088.7887421421
-30088.7385066879
-30089.9139895681
-30088.3892122917
-30088.6236243658
-30088.6357142414
-30088.2239859421
-30088.5558481904
-30088.4860564688
-30088.9498092339
-30088.6308922506
-30088.6677345406
-30088.8590697916
-30089.8916535233
-30089.0079993879
-30089.0146678062
-30088.7789113544
-30089.2628904668
-30089.2321282852
-30089.167707816
-30089.2807371798
-30089.2868593299
-30089.0133004349
-30089.1841983143
-30089.7171044222
-30089.1851705766
-30089.2295840221
-30088.869263851
-30088.8434633907
-30089.7557177643
-30089.5993347017
-30089.5482384157
-30089.7092449622
-30089.4182563684
-30089.3720903746
-30089.7312635864
-30089.6671321019
-30089.4641958276
-30089.4108820872
-30089.5431927475
-30089.5855170401
-30089.5676233875
-30089.5917408247
-30089.7142266838
-30089.675549395
-30089.4656668743
-30088.6966219949
-30089.4041242795
-30089.405618864
-30089.5053005067
-30089.5136078658
-30088.7135303238
-30088.7970334465
-30088.9405879809
-30089.9200260024
-30088.9645926269
-30088.9054804157
-30088.4851629835
-30089.2032627361
-30089.1352496858
-30088.3154218594
-30088.9369310449
-30088.9572363052
-30088.8752334814