-1.0284407328505e-05 1.31126193438439e-05 -3.5738315466555e-05 7.45619531316615e-06 2.10830350234353e-05 -3.93378580315318e-05 0.00994682165794686 0.00383119884005134 0.0439342167768239 -0.0100414382053691 0.00365225015253535 0.0441437615761422 -0.0102011036291441 -0.00366073478858137 -0.043522069153134 0.0104168190728595 -0.00381371534759288 -0.0436043444117621 0.093275203596426 -0.0186487158087782 -0.00867824001397576 -0.0930867418321312 -0.0189626473424808 -0.00866152785206694 -0.0934150715360937 0.0186641424197709 0.00862501820605075 0.0929862117504951 0.0190212684642533 0.00883867676830044 -0.0347078178522388 -0.00966477178696261 -0.000727364708308518 0.0347602683296142 -0.00965628715091659 -0.000816324831700087 0.0347453559389878 0.00966477178696261 0.000796527347592715 -0.0347142456068191 0.00967171376190935 0.000681856205879884 -0.0348191465615699 -0.00663524249816824 -0.0136841752811256 0.0350150645211779 -0.00659050532628924 -0.0135599910626339 0.0349186482024731 0.00663164295560326 0.0135990718104822 -0.0352114967011523 0.00658664867354105 0.0135160252213045 -0.0269212359536444 -0.0212807527543258 -0.0224066382466139 0.0339218320221578 0.0281543363923322 -0.010365397036217 0.0339395726247995 -0.0282561520248844 0.0102748942517262 -0.0269441187599503 0.0211604251885823 0.0222436303904571 0.0270431061804872 0.0214512168057958 0.0222366884155104 -0.0339956226447398 -0.0283371417325963 0.010107772632638 -0.033812045973926 0.028053806310696 -0.0104582138123568 0.0269040095713692 -0.021071722175374 -0.0224395483500651
-2.15972553898606e-05 8.22752586280403e-06 1.51695008095449e-05 2.05688146570101e-06 2.03117044737974e-05 3.08532219855151e-06 -0.35810743405166 -0.856155569952837 0.297796069934741 0.357873463784936 -0.855879947836433 0.297766502263672 0.358089179228652 0.856194393590503 -0.297730763948205 -0.357717397903726 0.855943196941504 -0.297781414654298 -0.434712384699129 0.227518086675769 -0.627524196183758 0.434890047835729 0.227479520148287 -0.627784134578986 0.434622910355371 -0.227599590603847 0.62751391177643 -0.434553490605903 -0.227576707797541 0.627618041400631 0.611383590212219 0.555336398483882 -1.78613415837078 -0.611390017966799 0.55530425971098 -1.78595906633602 -0.611316741564584 -0.555334084492233 1.78623571689315 0.611312884911836 -0.555317372330324 1.78603157140768 0.015289314154922 -0.198425555224894 -0.541719071850392 -0.0155176279976148 -0.198448695141383 -0.541690018399689 -0.015724601695101 0.198406271961153 0.541743497317797 0.0154793185803161 0.198423241233245 0.541656851186054 -0.0452261954474673 -1.05675447755643 1.16275226434876 -0.0695837857642986 1.4651063836115 0.552468848610512 -0.0696820018542859 -1.46513826527422 -0.552401999962876 -0.0452305663205819 1.05664417728783 -1.16279751574101 0.0452508780250557 1.05682518285681 -1.16277026206159 0.0696794307524537 -1.46494903217937 -0.552503044264879 0.0696385502333229 1.46508144392373 0.552415369692403 0.0452724752804456 -1.05671179726601 1.16277874669763
-1.0284407328505e-05 1.31126193438439e-05 -3.5738315466555e-05 7.45619531316615e-06 2.10830350234353e-05 -3.93378580315318e-05 0.00994682165794686 0.00383119884005134 0.0439342167768239 -0.0100414382053691 0.00365225015253535 0.0441437615761422 -0.0102011036291441 -0.00366073478858137 -0.043522069153134 0.0104168190728595 -0.00381371534759288 -0.0436043444117621 0.093275203596426 -0.0186487158087782 -0.00867824001397576 -0.0930867418321312 -0.0189626473424808 -0.00866152785206694 -0.0934150715360937 0.0186641424197709 0.00862501820605075 0.0929862117504951 0.0190212684642533 0.00883867676830044 -0.0347078178522388 -0.00966477178696261 -0.000727364708308518 0.0347602683296142 -0.00965628715091659 -0.000816324831700087 0.0347453559389878 0.00966477178696261 0.000796527347592715 -0.0347142456068191 0.00967171376190935 0.000681856205879884 -0.0348191465615699 -0.00663524249816824 -0.0136841752811256 0.0350150645211779 -0.00659050532628924 -0.0135599910626339 0.0349186482024731 0.00663164295560326 0.0135990718104822 -0.0352114967011523 0.00658664867354105 0.0135160252213045 -0.0269212359536444 -0.0212807527543258 -0.0224066382466139 0.0339218320221578 0.0281543363923322 -0.010365397036217 0.0339395726247995 -0.0282561520248844 0.0102748942517262 -0.0269441187599503 0.0211604251885823 0.0222436303904571 0.0270431061804872 0.0214512168057958 0.0222366884155104 -0.0339956226447398 -0.0283371417325963 0.010107772632638 -0.033812045973926 0.028053806310696 -0.0104582138123568 0.0269040095713692 -0.021071722175374 -0.0224395483500651
-1.87690433745217e-05 1.92832637409469e-05 4.06234089475949e-05 -7.71330549637878e-07 2.90534507030267e-05 4.37087311461464e-06 -0.367198593019875 -0.834313802778742 0.283204552817058 0.367518438087792 -0.834548287265832 0.283174470925623 0.367221475826181 0.834271122488328 -0.283105822506705 -0.367366485969513 0.83438090853656 -0.283131790635209 -0.3977821064232 0.217352978472274 -0.509981647944808 0.397934058541479 0.217279702070059 -0.510035126862917 0.397583360251577 -0.217389745228474 0.509899629796364 -0.397569733411867 -0.217337294751098 0.50980732724059 0.598932258259598 0.559431135261726 -2.00533935860292 -0.599059013579922 0.559445533431986 -2.00528947922738 -0.598838670152909 -0.559400539149924 2.0053411583742 0.598902176368162 -0.559412109108169 2.00528896500701 0.0200746488848754 -0.194013030260599 -0.581010907159128 -0.0203073336006828 -0.194008659387484 -0.581090097095558 -0.0205428465285056 0.19401791535408 0.581029676202503 0.0203842095454634 0.194017658243896 0.581098067511237 -0.0549231060073315 -1.07655530409618 1.20066778884676 -0.0584516861617416 1.45628776143749 0.606244728980348 -0.0584874244772081 -1.45617231896523 -0.606221074843493 -0.0548973949890102 1.07650208228826 -1.20063179342111 0.0549704142810426 1.07662163852345 -1.20063616429423 0.0585419318360492 -1.45604942029765 -0.606253470726578 0.0584581139163219 1.45617977516054 0.606287409270762 0.0549225917869651 -1.07663577958353 1.20063770695533
-5.2193367192163e-05 1.87690433745217e-05 5.27075875585883e-05 1.56837211759702e-05 2.13401452066479e-05 2.28828063059237e-05 -0.178698519307722 0.148030930874486 -0.118708028699453 0.178475347668693 0.148039672620715 -0.118505940095447 0.178694662654974 -0.147989536134989 0.118699286953223 -0.178249347817649 -0.148040186841082 0.118637580509252 0.918850859688503 -0.483935872165003 -0.363845104900233 -0.918791210125998 -0.484153644490184 -0.363785969558094 -0.918920793658337 0.483943071250133 0.363806538372751 0.918891997317817 0.484183212161253 0.363612420184425 0.188978555763112 -0.466676836896489 -0.845562373294294 -0.188972642228898 -0.466689949515833 -0.845569572379424 -0.188979841314028 0.466673494464107 0.845609424457822 0.188914535327492 0.466699976812978 0.84569169971645 -0.75333412236391 -0.0377692288037515 -0.86444223115778 0.753351348746185 -0.0378139659756305 -0.864320360930938 0.753379630866338 0.0377558590742245 0.864403407520115 -0.753463705896249 0.0377921116100575 0.864348900161274 0.335644231564739 0.0406239231679613 0.261374612711391 -0.826078049390075 0.318802743233763 1.00364965476478 -0.826201462278017 -0.318762891155365 -1.00365042609533 0.335722650170619 -0.0407306238939946 -0.261310592275771 -0.335687168965336 -0.0406411495502366 -0.261436576265545 0.826089876458503 -0.318951867140026 -1.00369336349592 0.826146954919176 0.318748492985105 1.00358332033751 -0.335727278153917 0.040821898009035 0.261338360175558
-9.25596659565453e-06 -2.82821201533888e-06 1.82548230080964e-05 2.31399164891363e-06 1.92832637409469e-05 1.33697295270565e-05 0.377260600039901 -0.07418888625582 -0.250553102210154 -0.377472715941052 -0.0739731708121046 -0.250550016887956 -0.377130502287196 0.074026906840396 0.250610952001377 0.377438777396868 0.0738847249090794 0.250542817802826 -0.694629182671704 -2.12455183748184 0.845632050153945 0.69389179066625 -2.12410343732231 0.845444102610016 0.69421754926838 2.12443485234848 -0.845677558656373 -0.694057112514056 2.1241679719783 -0.845715353853306 0.767606565744226 0.692547361518231 0.609643211382053 -0.767546401961354 0.692473828005832 0.609651953128282 -0.767546659071537 -0.692503909897268 -0.609750940548819 0.767531746680911 -0.692438089690366 -0.609761739176514 -0.526650615342849 -0.408694891039477 1.06688076212226 0.526567054533305 -0.408740913762272 1.06686225018907 0.526447498298111 0.408740656652089 -1.06687356303713 -0.526153878468883 0.40876636767041 -1.06685068023082 0.653532690986998 0.815237769845464 -0.17258881002404 -0.597849310167906 0.615298092751631 -0.445504327529296 -0.597923615010855 -0.615207075746774 0.445601000958184 0.653438588659942 -0.81516860720618 0.172588552913857 -0.653501580654829 -0.815178891613508 0.172619663246026 0.597902017755465 -0.615038411466587 0.445631854180169 0.597903046196198 0.615318147345922 -0.445540837175312 -0.653269667269571 0.814874987376951 -0.172373865910874
1.10557378781429e-05 4.37087311461464e-06 -2.46825775884121e-05 -6.17064439710302e-06 2.08259248402227e-05 -3.85665274818939e-06 0.351427454381613 -0.0614729879246731 -0.269647904186806 -0.351584805813739 -0.0612760415243323 -0.269656645933036 -0.351364462386726 0.0612122781988955 0.269613451422256 0.351569893423112 0.0611595706113369 0.269549430986636 -0.61292907952351 -2.12745641122159 0.994519157938529 0.612215084544729 -2.12696815898367 0.994590891679645 0.61253930048576 2.12734225430024 -0.994462850808405 -0.612377578180519 2.12704529203863 -0.994188257132734 0.744165573230548 0.706700248663353 0.352145306013142 -0.744077384437706 0.70665756837294 0.352016750921536 -0.744026990841796 -0.706637513778649 -0.352225010169938 0.744100781464378 -0.706552667418189 -0.352541769915656 -0.524827447033689 -0.407047843205817 1.0344889928004 0.524714832773441 -0.407085638402749 1.03444219874705 0.524639756599943 0.407099008132276 -1.03451984602238 -0.524322225523676 0.407123690709865 -1.03448924991058 0.627274542195859 0.768991618301192 -0.121312297745213 -0.578239002273913 0.626981693697179 -0.391828977241095 -0.578275254809746 -0.626908160184781 0.39183900453824 0.627185067852101 -0.768898287304686 0.121319753940526 -0.627275570636591 -0.768976963020749 0.121365005332772 0.57823797383318 -0.626751065862838 0.391876028404623 0.578248001130325 0.62705856964196 -0.39175415817778 -0.627023859767226 0.768634235146527 -0.121110209141208
-5.39931384746514e-06 3.75380867490434e-05 -1.67121619088207e-05 -7.71330549637878e-06 3.41956543672792e-05 -1.00272971452924e-05 0.0290331389985529 1.2719708704062 -0.0168653995780154 -0.0288644747183654 1.27282473332465 -0.0167823529888377 -0.0290015144460178 -1.27285095856334 0.0170669739616541 0.0290228545912244 -1.27281316336641 0.016950760158842 -1.13981443646363 -1.49861786778125 -1.25242406872747 1.14012939643807 -1.49874616576267 -1.25234719278268 1.14011345560671 1.49883666854716 1.25212890623714 -1.14021784234109 1.49890094609297 1.25247754764557 0.0378401912143182 0.0124045378992763 -0.247129680120678 -0.0379224664729463 0.0124153365269713 -0.247273404713094 -0.0379885437900319 -0.0123839690846193 0.247469322672702 0.0380042275112079 -0.0122896096473803 0.247107825755105 -0.198910979250799 0.301366301938832 -0.694719685456195 0.198896323970356 0.301349075556557 -0.694745396474516 0.198971657254037 -0.301246488593455 0.69475773776331 -0.199111525193705 -0.301288140443135 0.69473691183847 0.51019864893944 -0.234784534673724 -0.626264356286016 -0.191334199261706 -0.0163077275906272 0.999872191953016 -0.19124163959575 0.0163288106256507 -1.0000807083116 0.510300978792358 0.23488506475536 0.626290324414521 -0.510306120996023 0.234969654005637 0.626187223231052 0.191276349470483 0.016278417029741 -0.999973236255018 0.191213614585779 -0.0165057024317009 0.999934669727536 -0.510274496443488 -0.234767051181265 -0.626348431315927
4.21660700468706e-05 -1.41410600766944e-05 -2.05688146570101e-05 1.74834924584586e-05 -5.14220366425252e-06 3.34243238176414e-06 -0.0552632627797218 0.324860516260435 -0.245546138502272 0.0551164528651074 0.324853574285489 -0.245709660578795 0.0551827872923763 -0.325028666320256 0.245742313572063 -0.0553463093688995 -0.324699822395927 0.245513485509004 0.223438776508917 0.371052160445866 0.116394551270905 -0.223130501399245 0.370822303942074 0.116479140521182 -0.223152612875001 -0.371189971504068 -0.116876632864429 0.223077536701503 -0.370764968371217 -0.116750648874655 0.560352103937994 -0.301134131443391 -0.0747385878275286 -0.560450062917798 -0.301128217909177 -0.0748283192814698 -0.560399155101522 0.301152129156216 0.0749440188639155 0.560350047056528 0.301098393127924 0.0749915842478098 -0.974783637385311 -0.454739982420476 0.155441874795407 0.974893423433543 -0.4547242986993 0.155448045439804 0.974752269942959 0.454771606973012 -0.15547735600069 -0.974847657820931 0.454680332857971 -0.155443160346323 -0.178983397390721 -0.633265723685079 0.337173265824305 -1.22105122706168 0.548838967043916 0.459747203238542 -1.22109776400484 -0.548509866009404 -0.459532002015193 -0.178899065250628 0.63321378742807 -0.337058594682592 0.179031991215348 0.633345684952058 -0.337093561667509 1.22105945458754 -0.54874486471686 -0.459646416046723 1.22103014402665 0.54863122201588 0.459662871098449 0.179060016225319 -0.63337139597038 0.337180464909435
2.72536794205383e-05 -1.0284407328505e-05 -6.9419749467409e-06 1.97974841073722e-05 -1.28555091606313e-06 -3.08532219855151e-06 -0.0722808715861991 0.31995176864254 -0.257572467322042 0.0718664099708603 0.319949454650891 -0.257720562787573 0.0721361185530504 -0.320136116643903 0.257827263513606 -0.0719931652911841 -0.319755336462565 0.257520531065033 0.280496925477646 0.348481485902362 0.267284290272533 -0.280111260202827 0.348194550937897 0.26759539359422 -0.280096604922384 -0.348539335693585 -0.267335198088809 0.280071151014246 -0.34812358852733 -0.267472494926644 0.538882889419373 -0.301844012659241 -0.334524773827031 -0.538888545843404 -0.301854039956386 -0.334858502844841 -0.539008873409147 0.301893892034784 0.334458696509946 0.538894459377618 0.301827557607515 0.33478394089171 -0.970819255470355 -0.453739823807779 0.120020061964387 0.970961951622038 -0.45371668389129 0.120085110840739 0.97081642725834 0.453772476801047 -0.119984837869286 -0.971026486278025 0.453679145804541 -0.120104651214664 -0.192673229095878 -0.644846994777709 0.393960163549745 -1.19595341652738 0.5772007913541 0.493150958241527 -1.19603492045546 -0.577025185098966 -0.493023431590653 -0.192601238244578 0.644788116545753 -0.393922111242629 0.192687370155954 0.644947524859345 -0.393900513987239 1.1959744995624 -0.577234215677918 -0.493195181193039 1.19594004679785 0.576994331876981 0.493030116455417 0.192712824064092 -0.644853679642472 0.393907713072369
6.68486476352827e-06 -2.05688146570101e-06 -2.10830350234353e-05 3.08532219855151e-06 -5.39931384746514e-06 -3.05961118023025e-05 0.0136001002512151 0.270186550020637 -0.587554618432073 -0.013664120686835 0.270153897027369 -0.587538677600714 -0.0135815883180237 -0.270054138276282 0.587675974438549 0.0135083119158082 -0.270203776402912 0.587660547827557 -0.126686671904907 0.656082452673917 0.148246646318202 0.126705698058464 0.656398441089086 0.148118348336778 0.126974121089738 -0.65617629789079 -0.147720084662982 -0.126972835538822 -0.656470174830202 -0.148138660041252 -0.340385086232997 -0.781360160774819 -0.780010589423136 0.340438050930739 -0.781451177779676 -0.780068696324542 0.34045579153338 0.781298968551214 0.779658348472135 -0.340509527561672 0.781401298404133 0.779958653166127 -0.535626331838802 0.537499893743873 -0.331637426469554 0.535739717429599 0.537444357944299 -0.331654909962012 0.535917380566199 -0.537476239607017 0.331527897531505 -0.535966488611192 -0.537460298775658 0.331490873665122 0.865190421790929 -0.870106882714321 0.466734172467345 -0.36264362901408 0.878995695968348 0.217763326324682 -0.362647228556645 -0.878923448006865 -0.217765897426514 0.865031784807887 0.870211526558888 -0.466723888060017 -0.865069580004819 0.870132850842825 -0.466792279368751 0.36264440034463 -0.878823946365962 -0.217698020338146 0.362628716623454 0.879037604928211 0.21771756071207 -0.865090920150026 -0.870329540132983 0.466802306665897
2.31399164891363e-06 2.44254674051995e-05 1.07986276949303e-05 6.42775458031565e-06 3.03390016190899e-05 7.45619531316615e-06 -0.325491464650039 0.00461692755994912 -0.598890092189551 0.324998841539004 0.00511443576446555 -0.598827100194664 0.325356996024219 -0.0047732505513424 0.598782877243151 -0.325043835821066 -0.0052417053051558 0.598739168512005 -1.30102612088051 0.669227725011029 -0.467346094703391 1.30100066697238 0.669574823758366 -0.466989482879276 1.30073147261055 -0.669171932101272 0.467444825013745 -1.30074355678916 -0.669391504197736 0.467175116431555 0.0653342686561604 -0.171933693277214 -0.147360644626851 -0.0652378523374556 -0.171978430449093 -0.147739367926723 -0.0652985303406938 0.171951690990039 0.147294053089399 0.0652242254977454 0.171986915085139 0.147617240589697 1.71850183889707 -0.579206765003525 0.090941414463405 -1.71835605742319 -0.579299581779665 0.0909974644833454 -1.71840773657001 0.579265643235481 -0.0908971915118925 1.71851572284696 0.579322721696154 -0.0909758672279555 -0.616193093299394 -0.0499253982660445 0.761575789286791 -0.444179181645018 -0.464790676592441 -0.520141356834455 -0.444128530938925 0.464660064619369 0.520171438725891 -0.616237830471273 0.0500526678067347 -0.761580674380272 0.616235516479625 0.0499354255631898 -0.761574503735874 0.444030057738754 0.464623040752986 0.52012335912163 0.444178924534835 -0.464655693746255 -0.520163725420395 0.616227288953762 -0.050017957932001 0.761605614068043
-2.82821201533888e-06 2.57110183212626e-07 7.19908512995352e-06 9.51307677886716e-06 9.25596659565453e-06 -2.82821201533888e-06 -0.351920334602831 0.0216471347654038 -0.602022465551631 0.351869941006922 0.0215293783014924 -0.602196529145666 0.351811834105516 -0.0213337174520676 0.602007553161004 -0.351859142379227 -0.0216167957637847 0.60205923230783 -1.24529903133028 0.661193803116184 -0.299671688721278 1.24530057399138 0.661567898432759 -0.299813870652594 1.24505966174971 -0.661241111389895 0.300217019419872 -1.24510491314195 -0.661438829120786 0.299933169777605 0.0614254225407788 -0.183238313812707 -0.422126584120688 -0.0614732450348563 -0.183250655101501 -0.421933494373095 -0.0614902143069484 0.183193833751011 0.42182987896926 0.0614675886108257 0.183224686972997 0.422117842374458 1.71967708954453 -0.580915262170973 0.06156477626008 -1.71953645027432 -0.581013992481327 0.0615336659279113 -1.71949968351812 0.5809301745616 -0.0615503780898201 1.7196346663643 0.580989309903739 -0.0615501209796369 -0.625337988295901 -0.0764481134357093 0.795767329891138 -0.428957744578464 -0.447194569873735 -0.468651957323928 -0.428855157615362 0.447004822558525 0.468503604748215 -0.625433376173873 0.0767805569026032 -0.795873259286622 0.625444689021934 0.0766355467592713 -0.795892799660546 0.428778281670582 0.446914062663851 0.468498205434367 0.428900151897424 -0.447190713220987 -0.468526487554521 0.625390952993643 -0.0767381337223732 0.795772729204986
-6.9419749467409e-06 4.37087311461464e-06 -7.50761734980867e-05 -3.08532219855151e-06 1.64550517256081e-05 -7.71330549637878e-05 -0.0197046673312324 0.00559651735798923 0.0273272129329372 0.0197139232978281 0.00544405101934414 0.0273179569663415 0.0198931290955273 -0.00537565971060958 -0.0268129925665119 -0.0197514613845771 -0.00558700428121036 -0.0264280986222426 0.152548099683349 -0.0346934196819789 0.165032598849604 -0.152321328501755 -0.0349348461440155 0.164690128085565 -0.152851232589356 0.034703189868941 -0.165069365605804 0.152331098688717 0.0350292055812546 -0.164899672884883 -0.0430806109685579 -0.00593281747763134 -0.279870090850974 0.0430878100536879 -0.00590916334077578 -0.279802470872789 0.0432762718179828 0.0059258755026846 0.279769303659155 -0.0431320330052005 0.0059217617397532 0.279526848756385 -0.0289369797900314 -0.00616884462582053 -0.0471588926946766 0.0290799330518976 -0.00611279460588018 -0.0471203261671947 0.0288616465063501 0.00617090150728623 0.0470483353158952 -0.0292007748380076 0.00610893795313199 0.0469778871256949 -0.0418631942510462 -0.0422791985274842 0.0293768953135082 0.048661187495188 0.0483901933620819 0.0347263297854301 0.0487388347705182 -0.0482703800167048 -0.0348384298253108 -0.0418341408003431 0.0421089915861974 -0.0293830659579053 0.0419709234178123 0.0422504021869644 -0.0295201056855576 -0.048722893939159 -0.0484483002634879 -0.0348209463328523 -0.0486118223400112 0.0482505825325974 0.0346777359608029 0.0418580520473819 -0.0422092645576504 0.0294051774336616
-1.00272971452924e-05 -2.57110183212626e-07 1.74834924584586e-05 -8.74174622922928e-06 -4.37087311461464e-06 -9.25596659565453e-06 -0.639616345210431 -0.1843534006773 -0.404267967904922 0.639895823979583 -0.184065951492468 -0.404839523842204 0.639886053792621 0.184068265484117 0.404676258875864 -0.639898652191599 0.184103746689401 0.404434832413827 -0.369163429039986 0.141229080977596 0.860540069907162 0.369405112612206 0.141475649643297 0.860598948139118 0.369435194503642 -0.140976598777681 -0.860409200823907 -0.369207137771132 -0.141276132141124 -0.860635200674951 1.27783246836309 0.00506738460093764 -0.534034048474166 -1.27797490740459 0.00506609905002158 -0.534184200821162 -1.27804227027259 -0.0050236758697915 0.534127893691039 1.27792914179197 -0.00501596256429512 0.534062073484136 -1.27403058008392 0.60688827576893 0.284761354976411 1.27374287378891 0.606904987930838 0.284645655393965 1.27366651206449 -0.606918871880732 -0.284648226495797 -1.27376215705265 -0.606877991361601 -0.284687564353829 1.13462492452567 0.552012478035309 0.190961132385865 -0.0999523550544579 -0.230895228932267 0.0675464446725218 -0.0998178864286377 0.230616007273298 -0.0677451908441452 1.13469897225843 -0.551934830759979 -0.190969874132094 -1.13477430554212 -0.551845613526404 -0.190924622739849 0.0999852651579091 0.231054637245858 -0.06759992359063 0.0998345985905466 -0.231009642963796 0.0676150930914396 -1.13467763211323 0.5517124304515 0.190966788809895
-3.00818914358772e-05 1.92832637409469e-05 1.4398170259907e-05 -4.85938246271863e-05 6.17064439710302e-06 1.28555091606313e-06 0.635233645027389 0.211318859582457 0.939431244303758 -0.634884746508769 0.211284149707723 0.939353597028428 -0.63499041879407 -0.211200074677813 -0.939526375071547 0.63529458014081 -0.211565428248158 -0.939395248878108 -0.372204014066659 1.81686808123129 0.470097944994316 0.37216493331881 1.81692335992068 0.470014127074589 0.371719875591669 -1.81694032919277 -0.470447614843485 -0.371636571892308 -1.81709536663325 -0.470141139505096 -0.413463513607521 -0.436557664484046 0.119211964658549 0.413364011966618 -0.436501871574289 0.119400940643211 0.413448858327078 0.436471275462487 -0.118832470028127 -0.413430860614253 0.436553807831298 -0.119089837321523 -0.294078770905853 0.555961433339272 0.572758698718736 0.293871282988001 0.555980716603013 0.572701620258063 0.293752240973173 -0.55597891683173 -0.57269416406275 -0.293749155650975 -0.556018511799945 -0.572606489490274 0.20404984048267 -0.00458684566851325 -0.368031372903301 -0.312281143436574 -1.28259209207472 -0.443747493647404 -0.3122271502981 1.28247870648392 0.443681673440501 0.203828725725107 0.00504013092151711 0.367916187541222 -0.203967051003675 0.0047956191372819 0.367896390057114 0.312190126431717 1.28237020598661 0.443700442483876 0.312197325516847 -1.28246867918678 -0.443606854377186 -0.204123888215435 -0.00456576263348981 -0.36806094057437
-1.38839498934818e-05 1.56837211759702e-05 -2.26256961227111e-05 -4.65369431614853e-05 5.39931384746514e-06 -1.2341288794206e-05 0.608169198701695 0.210133581637847 0.892786571975507 -0.607858866710557 0.209949233636484 0.892797370603202 -0.607934457104422 -0.209921465736697 -0.892761632287735 0.608185910863604 -0.210236682821315 -0.892704296716879 -0.30707954732 1.78883921460836 0.621626345691044 0.307032239046289 1.78889655017922 0.621693451448862 0.306513647806749 -1.78879293477539 -0.621594978248692 -0.306433172319403 -1.78897085502217 -0.621508332116949 -0.413433431716086 -0.43735187783999 -0.126732694627702 0.413389980095123 -0.437290942726568 -0.126729866415687 0.413395636519153 0.437277572997041 0.126688214566006 -0.413397179180253 0.437352392060356 0.126673559285563 -0.294147419324771 0.555524088917627 0.539393767353417 0.293960500221575 0.55552511735836 0.539412022176425 0.29377435244893 -0.555558541682178 -0.539310463654056 -0.2937656107027 -0.555577053615369 -0.539285523966284 0.180429642171292 -0.0215368344968056 -0.304707705879863 -0.28856838545924 -1.24431507065912 -0.38959006176568 -0.288422861095542 1.24406284556939 0.389464849106455 0.180201585438783 0.0219209571105253 0.304558324863417 -0.180330397640572 0.0216803019790383 0.304577608127158 0.288402035170702 1.24398468407369 0.389478733056348 0.288473511801635 -1.24415334835388 -0.389520642016212 -0.180496490818928 -0.0214617583233075 -0.304669910682931
1.54266109927576e-06 -1.87690433745217e-05 -1.64550517256081e-05 -8.48463604601665e-06 9.77018696207978e-06 1.54266109927576e-06 -0.993897979735887 0.00243689031648927 -0.333603805150764 0.993823417782756 0.00245745913114628 -0.333428713115996 0.993925233415308 -0.00239009626314457 0.333704078122217 -0.993759911567502 -0.0022929086138902 0.333657541179055 -0.237082842601462 0.317364468868871 -0.612648572313625 0.236704633521956 0.317243369972578 -0.613292119102206 0.236838073707043 -0.317170607790729 0.612713878300161 -0.237099040543004 -0.317072134590558 0.612810551729049 0.492730840202157 0.730418920174901 0.463096834705436 -0.4927807195777 0.730432032794245 0.46341565133262 -0.492659877791591 -0.73046365734678 -0.463141828987499 0.492694330556141 -0.730486283042903 -0.463272955180937 1.65495577156515 -0.494893136842975 0.194478399692213 -1.65496374198083 -0.494889794410594 0.194464772852503 -1.65472925749374 0.494800577177019 -0.19452210842336 1.65499690919447 0.494800320066836 -0.194575587341468 -0.471049252672203 -0.850068229255095 0.959087317810363 -0.243790333061113 -0.826073421406777 -1.03589615683312 -0.243949741374704 0.826290165291225 1.03600234333879 -0.470989088889331 0.849708789218964 -0.959065720554973 0.471042824917623 0.849910877822969 -0.959064949224424 0.244018646903805 0.826403036661656 1.03600722843227 0.244001163411347 -0.826335159573288 -1.03608127616503 0.471026884086263 -0.850122736613936 0.959170107289358
-4.37087311461464e-05 9.77018696207978e-06 1.07986276949303e-05 -1.64550517256081e-05 2.57110183212626e-07 -1.51695008095449e-05 -0.882653345434731 0.135259496743765 -0.190464652622081 0.882961363434219 0.135508122290932 -0.190660313471506 0.882581097473248 -0.135390622937204 0.190619432952375 -0.882502164647002 -0.135361569486501 0.19078706879183 -0.912257783260382 0.113880527899452 0.755608776154792 0.912441874151562 0.114101899767198 0.755521615802683 0.912562458827489 -0.113845818024719 -0.755590264221601 -0.912273209871375 -0.114247167020714 -0.755504903640774 -0.147096335358508 -0.46879131104323 -0.328368784710372 0.146975750682582 -0.468802109670925 -0.328342559471684 0.146988091971376 0.468724462395594 0.328396552610158 -0.147061368373591 0.468746830981534 0.328518422837001 0.913033741793318 1.23213241884796 -0.668054788355213 -0.913054310607975 1.23213216173777 -0.66811212392607 -0.912911871566475 -1.2321761275791 0.668109809934421 0.912713382505035 -1.2321393608229 0.667986139936295 0.94866458520329 1.10829632754433 -0.567261940111833 0.400388175240243 -0.52310609435708 0.120615529148707 0.400418514241862 0.522942572280557 -0.120657438108571 0.948436271360597 -1.10796722650982 0.566982461342681 -0.948660214330175 -1.10815645960466 0.56714804030067 -0.400457852099894 0.523139518680898 -0.120690605322205 -0.400476364033085 -0.523030761073399 0.120619900021822 -0.948700066408573 1.10814000455294 -0.567200490778045
-4.8079604260761e-05 6.9419749467409e-06 2.82821201533888e-05 1.0284407328505e-06 3.08532219855151e-06 3.85665274818939e-06 -0.878647568780278 0.136812956470736 -0.209017466332521 0.878904678963491 0.137061324907719 -0.209286403584161 0.878498959094381 -0.136905516136693 0.209162733586036 -0.878435195768944 -0.136914000772739 0.209240380861366 -0.858731042658078 0.107719910799495 0.894263155757697 0.858916933320541 0.10800761709451 0.894515123737245 0.858995351926421 -0.107680058721097 -0.894594570783858 -0.858744926607972 -0.108097348548451 -0.894361886068051 -0.157575632205888 -0.466133048858994 -0.581925190970632 0.157470731251138 -0.466119679129467 -0.582095397911919 0.157455818860511 0.466069542643741 0.582348651442384 -0.157520867736864 0.466080084161253 0.582180758492746 0.905568547623739 1.23392421971477 -0.708115126001572 -0.905597601074442 1.23391084998524 -0.708129524171832 -0.90546056134679 -1.23396690000518 0.708156263630886 0.905249473886372 -1.23394247453777 0.708119239764504 0.919982401604822 1.08384232090879 -0.505114809286777 0.412897099873904 -0.505728531294105 0.170643771488037 0.412947493469814 0.505464479135946 -0.170826576828301 0.919743803354801 -1.08350962033172 0.504886752554267 -0.919936378882027 -1.08366902864531 0.504975712677659 -0.412972947377952 0.505697420961936 -0.170759728180665 -0.412981689124181 -0.505589434684987 0.170766413045429 -0.919979573392807 1.08365488758523 -0.50506467280105