9.435133744 0.064448581 0.002886625 0.038513822 7.161650869 -0.120015732 0.001372231 -0.095471051 5.260090720
8.577845898 0.271792594 0.125838597 0.162420515 9.160418033 -0.195579897 0.059820585 -0.155581422 5.467860668
9.148990139 0.348759279 0.300960041 0.208415030 9.073333944 0.148958052 0.143069028 0.118494313 5.267168241
10.333775601 0.009698112 0.010402534 0.005795494 6.171789988 0.043579758 0.004945110 0.034667166 4.987038786
8.644953502 0.305565065 0.299914447 0.182602603 9.270510392 -0.234528032 0.142571978 -0.186564189 5.466797506
8.216346771 0.485225472 0.185069596 0.289965852 9.474384227 -0.053415715 0.087977550 -0.042491550 5.301725324
9.644469352 -0.003666294 -0.044160005 -0.002190940 6.778028381 -0.075685649 -0.020992584 -0.060207010 5.221098621
8.646604353 0.326142518 0.457662311 0.194899482 9.241746302 -0.262493973 0.217561447 -0.208810754 5.343010550
10.323909662 0.009070383 0.014427508 0.005420369 6.166607418 0.048074211 0.006858484 0.038242449 4.997019686
8.601672780 0.372130311 -0.217871409 0.222381323 8.969884020 -0.230594925 -0.103570728 -0.183435450 5.188725252
8.493341935 0.470973617 -0.391416295 0.281449087 9.074807057 -0.206595127 -0.186069714 -0.164343903 5.188853335
8.613073913 0.351902131 -0.187775599 0.210293167 8.962004688 -0.232032522 -0.089263918 -0.184579041 5.197051546
8.216360089 0.497253246 0.152596862 0.297153528 9.478583833 -0.079843185 0.072540808 -0.063514280 5.342369864
9.175186030 0.349869456 0.266970375 0.209078461 9.088378157 0.166988162 0.126911174 0.132837046 5.274967338
9.236171499 0.372852972 0.153874815 0.222813179 9.143781266 0.203672548 0.073148316 0.162019028 5.282769811
9.306294187 0.136103741 0.113919365 0.081334224 7.761940978 -0.037437219 0.054154474 -0.029780851 5.235759823
8.555914727 0.423782489 0.291108994 0.253248145 9.340279056 -0.045794691 0.138386082 -0.036429118 5.245395220
8.601042893 0.265926887 -0.004538523 0.158915228 8.980054525 -0.214195282 -0.002157503 -0.170389734 5.289413790
9.333879434 0.109901420 0.084637158 0.065675981 7.472742811 -0.087196317 0.040234431 -0.069363607 5.260949995
9.170275467 0.349386091 0.273615687 0.208789607 9.085328871 0.163648868 0.130070192 0.130180679 5.273660732
8.249886868 0.519478710 -0.083129905 0.310435241 9.477401740 -0.161188535 -0.039517919 -0.128223513 5.284056953
8.653655197 0.319947189 0.411428222 0.191197215 9.261004265 -0.260451633 0.195582894 -0.207186097 5.388164424
8.613454882 0.336534793 0.535930551 0.201109800 9.171118419 -0.247796132 0.254768250 -0.197118801 5.219093615
9.184470381 0.351170580 0.253980818 0.209855999 9.094501863 0.173228558 0.120736257 0.137801205 5.277216127
8.472428558 0.427992608 0.274731236 0.255764069 9.386235269 -0.024183293 0.130600497 -0.019237514 5.236994481
8.566193270 0.414275107 -0.270995683 0.247566629 8.991630384 -0.224167165 -0.128824707 -0.178322245 5.177113737
8.247023375 0.520687555 -0.067984881 0.311157635 9.480646218 -0.160423596 -0.032318346 -0.127615014 5.293962984
8.441992118 0.487526139 -0.406425674 0.291340707 9.203743970 -0.183730060 -0.193204805 -0.146155022 5.228021133
10.010686605 -0.038341689 0.099005689 -0.022912607 6.281409819 0.078737818 0.047064878 0.062634974 5.227331665
8.287519206 0.508143794 -0.170915937 0.303661610 9.438684877 -0.150833683 -0.081249248 -0.119986355 5.255780268
10.405962055 -0.000006033 -0.000043330 -0.000003605 6.218448906 0.000059473 -0.000020598 0.000047310 4.946839913
9.204437449 0.413828867 0.054541623 0.247299960 8.746655437 0.144787755 0.025927751 0.115176893 5.213490606
8.727158489 0.419305460 0.372297281 0.250572717 9.196491840 -0.060550508 0.176981004 -0.048167190 5.192356611
8.565014764 0.261384814 0.101563629 0.156200930 9.110533890 -0.191343457 0.048280860 -0.152211386 5.433712290
8.838895322 0.415431496 0.412909600 0.248257675 9.106971869 -0.034500645 0.196287105 -0.027444842 5.178194680
8.599570589 0.343212371 0.581948600 0.205100254 8.991770164 -0.153120769 0.276644103 -0.121805704 5.056203745
9.819782403 -0.031154098 0.029833140 -0.018617375 6.492104056 0.015628523 0.014181944 0.012432300 5.246919122
9.236151604 0.293942247 0.036075115 0.175656924 8.503349579 0.125987290 0.017149226 0.100221353 5.221134628
9.296202310 0.157527740 0.101940622 0.094136990 7.955811111 0.011406222 0.048460073 0.009073510 5.233616023
8.827659954 0.110158713 0.347164534 0.065829737 7.794071132 -0.131394023 0.165033512 -0.104522343 5.565456908
9.240245785 0.376231780 0.142004411 0.224832320 9.148344288 0.205448713 0.067505417 0.163431945 5.282589306
8.597806672 0.280230094 0.160055866 0.167462680 9.195260335 -0.200396331 0.076086637 -0.159412837 5.491432367
9.263827496 0.402445754 0.071717249 0.240497526 9.157887985 0.214412326 0.034092623 0.170562390 5.269076958
8.854938400 0.092636004 0.394785759 0.055358342 7.827425761 -0.108854350 0.187671475 -0.086592308 5.502207753
8.833930987 0.104183036 0.360587658 0.062258732 7.800245024 -0.126840177 0.171414536 -0.100899814 5.549949988
8.620776334 0.335042076 0.523582078 0.200217768 9.188500931 -0.252841607 0.248898089 -0.201132414 5.244805995
8.613124294 0.284865491 -0.042518039 0.170232746 8.962504407 -0.225991483 -0.020212034 -0.179773468 5.253081695
8.891398127 0.098437303 0.430730927 0.058825140 8.037705516 -0.053086482 0.204758927 -0.042229649 5.352011533
8.251168952 0.459535532 0.221349039 0.274613802 9.467584884 -0.012291494 0.105223909 -0.009777734 5.226212393
8.749025968 0.282978933 0.447877769 0.169105358 8.720973525 -0.040818696 0.212910116 -0.032470774 5.093155565
8.829767351 0.416100319 0.411403458 0.248657357 9.112766726 -0.037439241 0.195571122 -0.029782460 5.177424075
8.839570361 0.192200701 0.429137992 0.114857202 8.468321401 -0.022007268 0.204001685 -0.017506514 5.159363621
8.830034820 0.201862372 0.426970969 0.120630919 8.498678944 -0.023212240 0.202971535 -0.018465054 5.150648783
8.631702831 0.420964107 0.317526733 0.251563908 9.286002091 -0.060801601 0.150944428 -0.048366932 5.232612384
8.887532796 0.090844664 0.420005944 0.054287856 7.942971612 -0.072043487 0.199660533 -0.057309716 5.412704622
8.811332227 0.128674967 0.320725088 0.076894863 7.785658744 -0.136497410 0.152464847 -0.108582025 5.593723997
8.575841237 0.422947339 0.296536253 0.252749067 9.327471934 -0.050532910 0.140966068 -0.040198314 5.244238347
8.889243621 0.092154779 0.422231393 0.055070767 7.964977795 -0.067246911 0.200718457 -0.053494097 5.398661414
10.375040825 0.007731287 -0.002922466 0.004620139 6.198899618 0.021793359 -0.001389269 0.017336352 4.951542398
8.609630007 0.278701091 -0.029770145 0.166548963 8.966925031 -0.222914005 -0.014151997 -0.177325372 5.262975907
8.794190645 0.142656979 0.301420867 0.085250373 7.787312154 -0.137173679 0.143288093 -0.109119988 5.608736795
8.522582627 0.451507364 -0.341187546 0.269816250 9.029794526 -0.214265098 -0.162192198 -0.170445272 5.176910550
8.362134967 0.494092288 -0.293466925 0.295264572 9.380420344 -0.150053051 -0.139506985 -0.119365372 5.267502427
9.253896922 0.389540309 0.101084666 0.232785363 9.158502169 0.210672891 0.048053173 0.167587715 5.278741623
8.802698434 0.417621887 0.405256640 0.249566631 9.131474975 -0.045282882 0.192649075 -0.036021980 5.176796947
9.214412573 0.372077359 0.048338554 0.222349680 8.650944002 0.137171101 0.022978964 0.109117938 5.214905605
9.232643444 0.457141271 0.028643744 0.273183016 9.035740067 0.201625149 0.013616534 0.160390346 5.194287642
9.405589879 0.081038343 0.021563069 0.048427697 7.236324455 -0.113114802 0.010250555 -0.089981445 5.265326434
9.770734191 -0.024902622 0.005509590 -0.014881556 6.565193230 -0.009728481 0.002619124 -0.007738888 5.242744651
8.229509577 0.516528435 0.037720990 0.308672187 9.482839419 -0.133370653 0.017931634 -0.106094728 5.369297495
8.890602162 0.106556050 0.438849236 0.063676822 8.101216808 -0.042645425 0.208618172 -0.033923916 5.311674781
8.592956022 0.344075229 0.593736123 0.205615889 9.029822238 -0.182023762 0.282247603 -0.144797682 5.082354232
8.668570117 0.329572021 0.496785670 0.196948918 8.893655410 -0.088308992 0.236159733 -0.070248726 5.075227117
10.368279178 0.008599535 -0.001437281 0.005138995 6.194138343 0.025901280 -0.000683248 0.020604152 4.955986536
8.640368996 0.335311999 0.520570887 0.200379071 8.930713635 -0.107709172 0.247466643 -0.085681333 5.064559610
8.225149921 0.512841067 0.075644220 0.306468653 9.482688655 -0.119578982 0.035959408 -0.095123622 5.378096978
8.449535245 0.487307496 -0.412050536 0.291210048 9.183181422 -0.188132509 -0.195878727 -0.149657117 5.222781304
8.650420088 0.309547286 0.330180586 0.184982338 9.274594502 -0.244561065 0.156959759 -0.194545344 5.447406874
8.612076330 0.340660872 0.557814623 0.203575504 8.967069252 -0.132762503 0.265171402 -0.105610952 5.052900908
9.229931990 0.311354604 0.040024821 0.186062374 8.538469032 0.128767523 0.019026819 0.102432994 5.217484918
8.602906508 0.342526073 0.574996129 0.204690129 8.983363260 -0.146124972 0.273339068 -0.116240633 5.053454610
8.456916649 0.486381013 -0.415727686 0.290656392 9.162814662 -0.192203126 -0.197626754 -0.152895242 5.217171960
8.316051967 0.503772414 -0.214521648 0.301049318 9.419851745 -0.147905633 -0.101978334 -0.117657127 5.260697723
8.234977847 0.466898905 0.213215369 0.279014080 9.469781148 -0.021319832 0.101357361 -0.016959666 5.244105647
8.218098545 0.501790002 0.135916578 0.299864648 9.480128710 -0.090468028 0.064611411 -0.071966213 5.356274099
8.299135899 0.506426104 -0.188526389 0.302635136 9.430860268 -0.149212943 -0.089620825 -0.118697076 5.257217528
9.210390927 0.388297087 0.049519016 0.232042426 8.683840878 0.139562838 0.023540126 0.111020536 5.215926454
9.211770101 0.450091745 0.054188402 0.268970290 8.884929297 0.168772379 0.025759838 0.134256369 5.186230290
8.672784890 0.419965066 0.339313108 0.250966891 9.249532699 -0.063875375 0.161301136 -0.050812082 5.216476933
8.354342366 0.495903788 -0.279341831 0.296347106 9.389003333 -0.149030419 -0.132792261 -0.118551881 5.267294517
9.883300246 -0.039739651 0.065795459 -0.023748015 6.407213051 0.044780967 0.031277549 0.035622713 5.243973569
8.604757219 0.271220401 -0.015200673 0.162078578 8.973916730 -0.218132979 -0.007226028 -0.173522124 5.277356057
8.599810701 0.264231318 -0.000847965 0.157901973 8.982283918 -0.212845063 -0.000403102 -0.169315652 5.293714014
8.758119463 0.274217990 0.442638840 0.163869907 8.696844495 -0.037606987 0.210419657 -0.029915900 5.097690609
8.567355871 0.254674542 0.089455948 0.152190939 9.076030789 -0.190773092 0.042525166 -0.151757667 5.410370649
9.273925465 0.221463689 0.053268882 0.132344469 8.294969099 0.095540219 0.025322721 0.076001079 5.232021443
10.280147035 0.001439615 0.031909680 0.000860300 6.153228152 0.066126664 0.015169080 0.052602955 5.040992886
9.680079040 -0.011438783 -0.031585820 -0.006835701 6.717349177 -0.057442105 -0.015015125 -0.045694494 5.224132424
8.490035311 0.472858207 -0.396182708 0.282575299 9.081247527 -0.205633387 -0.188335551 -0.163578851 5.190959239
9.218697733 0.354092054 0.047022847 0.211601843 8.617201257 0.134681756 0.022353509 0.107137694 5.214006435
9.373311192 0.096886812 0.043823133 0.057898582 7.325114930 -0.104125044 0.020832444 -0.082830202 5.267999781
9.897873276 -0.041061051 0.073354522 -0.024537670 6.389432226 0.050329400 0.034870942 0.040036424 5.242837901
8.803201162 0.136100286 0.311580546 0.081332159 7.785847203 -0.136890927 0.148117756 -0.108895062 5.601339975
9.272147384 0.225234009 0.050529800 0.134597574 8.308440434 0.098286981 0.024020629 0.078186094 5.231809534
8.619022931 0.336358446 -0.159069130 0.201004417 8.957382013 -0.232452045 -0.075617566 -0.184912767 5.205355963
9.615067781 0.003332249 -0.052124626 0.001991318 6.826431915 -0.089975141 -0.024778770 -0.071574127 5.222483702
9.217061070 0.360893286 0.200181295 0.215666190 9.121736232 0.193749528 0.095161282 0.154125386 5.282213127
9.622493765 0.001538577 -0.050406384 0.000919438 6.814353684 -0.086462048 -0.023961960 -0.068779504 5.221834780
9.247410835 0.270289774 0.033085136 0.161522445 8.447707323 0.120586473 0.015727863 0.095925068 5.226391410
9.868941607 -0.038075426 0.057822197 -0.022753491 6.425415434 0.038829262 0.027487255 0.030888204 5.245056187
8.856190768 0.174415047 0.434997526 0.104228674 8.408220760 -0.020544597 0.206787164 -0.016342977 5.176725915
9.317291489 0.118708009 0.108287674 0.070938710 7.594939104 -0.069161956 0.051477306 -0.055017492 5.248578570
8.221707039 0.508209684 0.105776807 0.303700985 9.481922786 -0.106456499 0.050283702 -0.084684847 5.372365755
8.395261912 0.487812019 -0.350763704 0.291511546 9.327166525 -0.158033081 -0.166744469 -0.125713388 5.259451131
9.277218043 0.214011379 0.058979371 0.127891043 8.267418858 0.089696410 0.028037348 0.071352400 5.232396400
8.436816893 0.487409081 -0.401844659 0.291270755 9.217772753 -0.180603949 -0.191027103 -0.143668238 5.231446183
9.179919205 0.350467234 0.260423854 0.209435687 9.091437210 0.170182858 0.123799118 0.135378388 5.276151430
8.514646799 0.425706818 0.282153902 0.254398104 9.364268644 -0.035164734 0.134129050 -0.027973117 5.243520046
8.591839648 0.277798812 0.149093534 0.166009770 9.185827923 -0.198881208 0.070875413 -0.158207575 5.485718346
8.430748870 0.430690502 0.267637254 0.257376303 9.406272857 -0.014294944 0.127228192 -0.011371453 5.227758158
8.621103056 0.308722325 -0.097671869 0.184489350 8.954702990 -0.231585160 -0.046430813 -0.184223170 5.225946220
8.636082388 0.336100733 0.525074469 0.200850410 8.935973466 -0.110896946 0.249607535 -0.088217168 5.062631699
9.215465180 0.367706602 0.048062991 0.219737760 8.642560919 0.136558350 0.022847968 0.108630502 5.214615912
9.607597321 0.005147145 -0.053615358 0.003075882 6.838496167 -0.093427602 -0.025487427 -0.074320518 5.223312045
8.228864817 0.516133466 0.042857224 0.308436157 9.482815406 -0.131615110 0.020373274 -0.104698214 5.371557708
8.654574163 0.316793203 0.387384980 0.189312426 9.267743191 -0.257419165 0.184153326 -0.204773806 5.407422562
8.718721895 0.308293061 0.466050622 0.184232826 8.799090304 -0.055852548 0.221549045 -0.044430020 5.084169430
9.336702369 0.109007484 0.080938046 0.065141774 7.458458608 -0.089046103 0.038475964 -0.070835089 5.262184883
10.387891401 0.005183822 -0.004087817 0.003097800 6.207595807 0.012830365 -0.001943248 0.010206399 4.945870781
8.411054173 0.432182435 0.264024687 0.258267867 9.415301217 -0.010243791 0.125510866 -0.008148811 5.222963400
8.230871030 0.517260183 0.027593325 0.309109472 9.482944224 -0.136782671 0.013117190 -0.108808946 5.363979162
8.703718795 0.419529046 0.358174408 0.250706330 9.219474671 -0.062966706 0.170267336 -0.050089246 5.202260373
8.546541777 0.432170378 -0.300167356 0.258260662 9.005715851 -0.220000604 -0.142692205 -0.175007797 5.175034984
8.486828411 0.474622380 -0.400468100 0.283629551 9.087799581 -0.204659471 -0.190372721 -0.162804113 5.193137044
8.219478067 0.504505426 0.124284852 0.301487358 9.480961689 -0.097053540 0.059081973 -0.077204907 5.363754040
8.652120551 0.311185901 0.343293827 0.185961558 9.274431391 -0.248273473 0.163193473 -0.197498520 5.438664731
8.576735343 0.249855948 0.069140545 0.149311396 9.039335347 -0.193460352 0.032867721 -0.153895351 5.379371929
9.224540849 0.330264249 0.043868773 0.197362587 8.573819049 0.131427852 0.020854140 0.104549254 5.214823171
9.269955084 0.422282583 0.044376733 0.252351815 9.140481692 0.217571008 0.021095611 0.173075083 5.244166741
9.260166826 0.247800761 0.037626203 0.148083238 8.383307925 0.111830542 0.017886575 0.088959833 5.229919664
8.350304159 0.496837776 -0.272095430 0.296905247 9.393037361 -0.148615434 -0.129347499 -0.118221765 5.266969343
8.885208418 0.126727581 0.447260371 0.075731125 8.213533228 -0.028701692 0.212616620 -0.022831846 5.248389647
8.633517068 0.331617329 0.497778493 0.198171174 9.215032000 -0.259143195 0.236631697 -0.206145251 5.289980706
8.635973701 0.330792930 0.491737230 0.197678521 9.219926846 -0.260050519 0.233759828 -0.206867016 5.299099732
9.942818960 -0.042271603 0.091103226 -0.025261084 6.339836404 0.064252436 0.043308241 0.051112029 5.239040814
8.339454929 0.439644105 0.248213840 0.262726886 9.444907178 -0.001173379 0.117994777 -0.000933409 5.208069462
8.609460625 0.341185854 0.562410145 0.203889228 8.971145620 -0.136029292 0.267356000 -0.108209643 5.052476701
9.410387814 0.078392551 0.018551906 0.046846598 7.223906961 -0.114325431 0.008819121 -0.090944486 5.264604513
8.629730350 0.295703547 0.240456929 0.176709459 9.246279097 -0.215611158 0.114307331 -0.171516046 5.495147235
8.215400875 0.490543927 0.172513372 0.293144107 9.476186191 -0.064770101 0.082008629 -0.051523825 5.320007828
8.767268002 0.265156897 0.437791143 0.158455089 8.672643164 -0.034891905 0.208115181 -0.027756085 5.102973318
9.289981548 0.175597732 0.089570646 0.104935435 8.090839339 0.047477864 0.042579690 0.037768062 5.234104440
8.848056079 0.414673359 0.414169598 0.247804620 9.101401017 -0.031396088 0.196886077 -0.024975205 5.179207488
9.262413484 0.400255436 0.075992221 0.239188614 9.158627645 0.213845907 0.036124839 0.170111810 5.271120464
9.310510720 0.127617263 0.114900904 0.076262790 7.686569995 -0.052966228 0.054621074 -0.042133988 5.240291480
9.784793715 -0.026570510 0.012012873 -0.015878269 6.543518719 -0.002368015 0.005710625 -0.001883727 5.244654768
9.472235765 0.045420793 -0.021480866 0.027143008 7.074911693 -0.125434435 -0.010211477 -0.099781563 5.251937236
9.984167563 -0.040276103 0.098355985 -0.024068593 6.302055386 0.073709449 0.046756025 0.058634968 5.233248571
8.329112027 0.501390654 -0.235575268 0.299626002 9.410779094 -0.147625665 -0.111986709 -0.117434416 5.263560835
9.292720006 0.166493000 0.096046914 0.099494539 8.030280550 0.031555805 0.045658349 0.025102258 5.234137746
10.037889295 -0.036263176 0.097048534 -0.021670508 6.262530319 0.083210903 0.046134495 0.066193258 5.218946861
8.594323460 0.341131248 0.576586567 0.203856596 9.089254028 -0.216030556 0.274095124 -0.171849672 5.132449416
10.338629835 0.009852592 0.008478575 0.005887810 6.174581732 0.041303443 0.004030507 0.032856385 4.982200646
9.243429255 0.277902918 0.033431624 0.166071983 8.466895201 0.122644490 0.015892575 0.097562196 5.224796915
8.231813565 0.468749271 0.211057731 0.280119840 9.470203711 -0.023943162 0.100331673 -0.019046493 5.249190796
8.869068096 0.158267415 0.441168431 0.094579012 8.348310935 -0.020729025 0.209720661 -0.016489686 5.194971186
8.307471381 0.505165527 -0.201205365 0.301881828 9.425461106 -0.148430691 -0.095648100 -0.118074805 5.258823335
9.687078200 -0.012816899 -0.028912893 -0.007659250 6.705241176 -0.053789001 -0.013744481 -0.042788494 5.225303870
9.266397553 0.236539968 0.043187075 0.141353901 8.347156770 0.105692933 0.020530077 0.084077439 5.231026095
8.604240484 0.368077055 -0.212405536 0.219959138 8.968178472 -0.230969331 -0.100972387 -0.183733286 5.190220154
8.818368249 0.120911120 0.330179405 0.072255267 7.787587568 -0.135407057 0.156959198 -0.107714663 5.584313675
9.294076774 0.162667032 0.098613227 0.097208179 8.000401710 0.023510035 0.046878311 0.018701946 5.233983124
9.377667551 0.095019496 0.040457275 0.056782693 7.312350843 -0.105444900 0.019232397 -0.083880132 5.267921499
9.025274781 0.378096131 0.401150377 0.225946437 9.040122587 0.061163962 0.190697059 0.048655185 5.221512815
9.293393881 0.164530960 0.097373993 0.098322043 8.015327101 0.027540526 0.046289210 0.021908153 5.234073178
10.083455139 -0.032892168 0.089318106 -0.019656028 6.234244323 0.088933788 0.042459639 0.070745743 5.198819133
9.415240798 0.075678153 0.015517005 0.045224501 7.211473940 -0.115518615 0.007376404 -0.091893649 5.263813310
8.542515764 0.435600382 -0.306667256 0.260310398 9.009124865 -0.219083993 -0.145782098 -0.174278644 5.174966770
9.252010857 0.387497615 0.106678936 0.231564669 9.157717600 0.209988476 0.050712552 0.167043271 5.279729042
8.598189606 0.343490705 0.584887733 0.205266583 8.996124980 -0.156696519 0.278041295 -0.124650169 5.058232947
9.221244855 0.460319842 0.034569620 0.275082498 8.976390295 0.189869469 0.016433550 0.151038847 5.186543038
8.580697338 0.399257113 -0.251159223 0.238592027 8.982787900 -0.226968792 -0.119394940 -0.180550906 5.180409042
8.253065057 0.517802572 -0.097450660 0.309433598 9.473144900 -0.160954024 -0.046325656 -0.128036963 5.275595903
9.268639740 0.428404934 0.039470167 0.256010471 9.130998618 0.217396361 0.018763150 0.172936154 5.234587401
8.638118880 0.301067178 0.270880765 0.179914711 9.260668972 -0.224531134 0.128770078 -0.178611778 5.483001666
8.592528837 0.343776740 0.592608004 0.205437515 9.040627561 -0.189142475 0.281711323 -0.150460532 5.091445348
8.518715826 0.454364740 -0.348156440 0.271523789 9.034652183 -0.213290912 -0.165505039 -0.169670319 5.177810788
9.216727407 0.457661852 0.043057023 0.273494110 8.935489802 0.180854782 0.020468254 0.143867773 5.184234054
8.226447013 0.472446939 0.206447086 0.282329529 9.471010473 -0.029623261 0.098139885 -0.023564942 5.259956404
9.208475478 0.443343464 0.059169777 0.264937586 8.852279991 0.161310070 0.028127862 0.128320193 5.191101667
8.256753661 0.515892623 -0.110828527 0.308292232 9.468029484 -0.159865473 -0.052685166 -0.127171034 5.268639192
10.356591734 0.009556109 0.001963292 0.005710634 6.186034547 0.032369695 0.000933301 0.025749698 4.965322312
9.445355758 0.058823290 -0.003811086 0.035152205 7.136788461 -0.121992757 -0.001811697 -0.097043751 5.257963850
8.641011350 0.302966448 0.282531415 0.181049696 9.265219981 -0.228441182 0.134308511 -0.181722174 5.476932462
9.239664832 0.285761081 0.034489563 0.170767942 8.485367360 0.124418446 0.016395493 0.098973357 5.223021160
9.125542611 0.350512088 0.328477815 0.209462491 9.062026707 0.132480555 0.156150303 0.105386665 5.258722375
8.801006140 0.137836713 0.309181677 0.082369831 7.786142859 -0.136951874 0.146977392 -0.108943546 5.603141297
8.648743230 0.420491909 0.325927893 0.251281727 9.271489024 -0.062638626 0.154938133 -0.049828263 5.226583328
9.251540934 0.262852763 0.033599880 0.157078162 8.427655859 0.118171086 0.015972560 0.094003657 5.227764671
8.832291198 0.105603558 0.357080826 0.063107622 7.798539760 -0.128131736 0.169747474 -0.101927233 5.554063131
8.603523265 0.269432788 -0.011698335 0.161010319 8.975866673 -0.216849462 -0.005561102 -0.172501102 5.281226713
8.583108762 0.274166017 0.134275274 0.163838849 9.170841224 -0.196827707 0.063831175 -0.156574040 5.475392975
8.825111175 0.206801244 0.426210413 0.123582339 8.513651312 -0.023896126 0.202609986 -0.019009077 5.146348900
8.242574877 0.521276804 -0.042159192 0.311509764 9.483632985 -0.156867057 -0.020041447 -0.124785831 5.312696971
9.203642225 0.421225401 0.057163070 0.251720054 8.769171939 0.147277804 0.027173923 0.117157696 5.210105958
8.607062000 0.341672695 0.566837263 0.204180159 8.975201466 -0.139343122 0.269460544 -0.110845754 5.052408239
9.071508299 0.362877731 0.377506990 0.216852075 9.044090640 0.093744736 0.179457572 0.074572794 5.237264490
9.219800737 0.362229158 0.194536401 0.216464494 9.124639588 0.195309432 0.092477838 0.155366271 5.282387805
8.648428795 0.307973744 0.317798024 0.184042006 9.273723831 -0.240655480 0.151073393 -0.191438499 5.455505045
8.242341101 0.463204012 0.217342709 0.276806049 9.468819993 -0.016511871 0.103319398 -0.013134992 5.234626059
8.889212494 0.112941906 0.443125574 0.067492945 8.141129040 -0.037029341 0.210651039 -0.029456389 5.287533463
9.308759375 0.130930425 0.115062420 0.078242703 7.716662310 -0.047025759 0.054697855 -0.037408417 5.238203678
8.237288572 0.519990703 -0.011910688 0.310741203 9.484022329 -0.149443400 -0.005662049 -0.118880402 5.336156276
9.364924552 0.100183678 0.050808126 0.059868757 7.350811282 -0.101433096 0.024152938 -0.080688790 5.267811632
8.269302549 0.511499093 -0.140848672 0.305666703 9.453449871 -0.155203247 -0.066956007 -0.123462290 5.257954343
8.617843451 0.340150522 -0.166538258 0.203270524 8.958357575 -0.232399226 -0.079168206 -0.184870749 5.203140227
9.257527890 0.393743787 0.090398223 0.235297319 9.159319226 0.211995530 0.042973100 0.168639858 5.276232347
9.440220728 0.061624783 -0.000429960 0.036826349 7.149206805 -0.121034939 -0.000204392 -0.096281818 5.259046692
8.870045254 0.089271706 0.408234639 0.053347872 7.857999751 -0.095373134 0.194064743 -0.075868165 5.471151676
8.500221273 0.466846868 -0.380598293 0.278982983 9.062371187 -0.208495824 -0.180927101 -0.165855885 5.184952036
8.882298955 0.089234878 0.415944716 0.053325864 7.903711630 -0.081494134 0.197729925 -0.064827590 5.438072873
8.852434877 0.093525144 0.391829974 0.055889684 7.823540092 -0.111009368 0.186266368 -0.088306599 5.507374912
8.743120132 0.419139694 0.381166972 0.250473657 9.181313200 -0.058190742 0.181197438 -0.046290025 5.186760082
8.585935662 0.275366991 0.138940224 0.164556538 9.175922179 -0.197484744 0.066048778 -0.157096705 5.479001485
9.665973651 -0.008494783 -0.036815507 -0.005076397 6.741613466 -0.064749654 -0.017501190 -0.051507560 5.222307084
8.398050580 0.487496501 -0.355014395 0.291322996 9.321015020 -0.159065262 -0.168765143 -0.126534476 5.257928120
9.119788443 0.351302252 0.334758100 0.209934685 9.059541544 0.128396218 0.159135797 0.102137625 5.256494236
8.947469262 0.399707431 0.415975094 0.238861132 9.055331593 0.013031707 0.197744366 0.010366564 5.199760044
9.216528059 0.363251496 0.047762819 0.217075433 8.634156434 0.135940218 0.022705274 0.108138786 5.214356459
8.621484406 0.311877723 -0.105104849 0.186374984 8.954511117 -0.231853551 -0.049964269 -0.184436672 5.223157817
8.623777657 0.292227278 0.221524235 0.174632076 9.236083728 -0.211067856 0.105307192 -0.167901905 5.499505042
9.303133864 0.142986687 0.110782639 0.085447403 7.821900275 -0.023522622 0.052663352 -0.018711959 5.233819604
8.829165685 0.108590523 0.350351149 0.064892602 7.795459607 -0.130409851 0.166548350 -0.103739446 5.561824693
8.300929539 0.446018484 0.237855972 0.266536151 9.457165041 -0.001756672 0.113070900 -0.001397411 5.207022167
8.613826708 0.421533818 0.309755774 0.251904361 9.300256434 -0.058137776 0.147250304 -0.046247891 5.237718115
8.891304634 0.097132228 0.429138464 0.058045240 8.025155143 -0.055362960 0.204001909 -0.044040559 5.360080343
10.056193226 -0.034893302 0.094520434 -0.020851886 6.250789264 0.085807519 0.044932698 0.068258835 5.211823592
9.217602709 0.358718912 0.047421644 0.214366807 8.625721104 0.135315935 0.022543088 0.107642175 5.214147208
9.890553011 -0.040449079 0.069639409 -0.024171962 6.398271548 0.047606439 0.033104868 0.037870342 5.243409179
9.314636332 0.121502986 0.111662179 0.072608960 7.626095284 -0.063948036 0.053081463 -0.050869883 5.245493900
8.618266012 0.335584856 0.527934991 0.200542128 9.182804469 -0.251255345 0.250967357 -0.199870563 5.236040423
10.255364859 -0.005231416 0.040423180 -0.003126242 6.153253724 0.074612638 0.019216189 0.059353443 5.064982014
8.680592931 0.419831251 0.343968686 0.250886924 9.242083240 -0.063910090 0.163514284 -0.050839697 5.212922179
9.058720054 0.366959586 0.385632787 0.219291350 9.041867570 0.084580200 0.183320376 0.067282518 5.232560294
10.274113134 -0.000098262 0.034088317 -0.000058720 6.152721006 0.068337396 0.016204751 0.054361565 5.046908025
8.303254011 0.505811717 -0.194768528 0.302267984 9.428187113 -0.148791211 -0.092588185 -0.118361593 5.257971551
9.250219171 0.447439258 0.030686933 0.267385191 9.083499811 0.210855833 0.014587816 0.167733243 5.205690795
9.212365052 0.380429884 0.048878321 0.227341065 8.667466338 0.138370930 0.023235556 0.110072387 5.215484323
10.200778642 -0.019120355 0.056781968 -0.011426131 6.170056495 0.086979051 0.026992756 0.069190774 5.114127128
8.823116284 0.115291435 0.338175544 0.068896999 7.790385041 -0.133804435 0.160760366 -0.106439796 5.575579315
9.284937448 0.192994546 0.076005432 0.115331596 8.180834987 0.069857608 0.036131120 0.055570875 5.233385088
8.226399607 0.514166415 0.064273713 0.307260668 9.482772876 -0.123962013 0.030554148 -0.098610269 5.377401959
9.209447044 0.392018340 0.049912613 0.234266209 8.691943884 0.140161188 0.023727233 0.111496516 5.216045633
8.277446453 0.509794210 -0.155047418 0.304647882 9.446256381 -0.152901961 -0.073705743 -0.121631645 5.255969052
8.664896199 0.420118720 0.334744147 0.251058713 9.256914748 -0.063655986 0.159129164 -0.050637561 5.219961012
9.131540171 0.349839926 0.321714960 0.209060814 9.064743059 0.136720652 0.152935408 0.108759611 5.260987248
8.795573014 0.236507364 0.427401639 0.141334417 8.597296813 -0.028671363 0.203176265 -0.022807720 5.122532453
9.208547753 0.395565457 0.050366569 0.236385930 8.699929720 0.140761943 0.023943033 0.111974409 5.216071807
9.826780368 -0.032150837 0.033683173 -0.019213016 6.482223455 0.019127791 0.016012155 0.015215925 5.246953861
9.254706899 0.444402708 0.031731326 0.265570579 9.093582620 0.212665848 0.015084295 0.169173088 5.209658177
8.653449632 0.312931401 0.357221220 0.187004651 9.273228666 -0.251705050 0.169814214 -0.200228297 5.429175569
9.268928126 0.413593794 0.054015180 0.247159483 9.150460746 0.216729967 0.025677493 0.172406045 5.256391107
8.735703626 0.295076896 0.455901084 0.176334979 8.756194191 -0.046596601 0.216724203 -0.037067028 5.088026293
10.215190097 -0.015934574 0.052565238 -0.009522341 6.163905734 0.084558223 0.024988226 0.067265035 5.101683627
8.565423588 0.262541501 0.103509688 0.156892155 9.116238043 -0.191653581 0.049205969 -0.152458086 5.437440757
8.835634409 0.102809496 0.364157899 0.061437918 7.802074170 -0.125449656 0.173111741 -0.099793671 5.545694055
8.785041434 0.418290227 0.399708019 0.249966024 9.144986997 -0.049730306 0.190011397 -0.039559852 5.177970779
8.620579436 0.305663686 -0.090429634 0.182661538 8.955044855 -0.231254450 -0.042988032 -0.183960094 5.228778907
9.188836100 0.351970579 0.247642740 0.210334071 9.097568402 0.176121808 0.117723290 0.140102750 5.278164966
8.776369605 0.418539944 0.396497245 0.250115252 9.152016770 -0.051727022 0.188485073 -0.041148215 5.179069644
9.629871079 -0.000229220 -0.048487977 -0.000136980 6.802259961 -0.082901750 -0.023049996 -0.065947331 5.221380128
9.234589363 0.456204048 0.028593522 0.272622941 9.042404374 0.202922222 0.013592660 0.161422153 5.195466824