5.1758740413 0.2641251828 2.8146209536 2.6991188276 5.8854745401 4.9207978622 2.0504297973 2.3162235947 2.7095783975 6.9904420829 1.5461010212 -0.1399666950 7.3050902420 4.5466348319 2.8084069537 1.0008295926 5.2813497829 2.1509383423 3.6188873309 1.8404716696 5.1256176001 8.4402788047 1.5429475548 2.7404900081 5.8348453704 5.5777823363 0.2062471401 1.4372576969 5.5614723245 3.6284208112 3.2584297375 1.7168912657 1.3245908679 8.4288873122 1.4754106289 1.1852113157 5.9168327900 5.2966079205 3.9397072552 4.3017892205 5.5869879170 0.5185597703 0.5143354978 1.3531417736 3.0915573513 5.1570547341 1.9806370440 4.8226491986 8.8969283737 5.3159360940 2.1460913547 1.7096983980 6.3095310001 1.2598688718 3.0385503996 0.5938539754 4.2575446110 7.7725221160 2.8064291947 3.4515962362 6.2926643827 4.3498157254 1.0936168248 7.6132355683 0.4556681313 3.4229146849 6.3780610935 6.9443832972 0.7156576718 1.3976688594 3.8183175473 1.7084620215 2.8048709691 2.9992015684 4.3909499620
4.1623941105 0.1577587969 2.9807294745 3.4392159906 6.9918832125 5.1616973835 1.3249007006 2.5900993382 3.0548758189 5.4471750933 2.2751161619 0.1869549096 7.5264569816 6.8797214769 2.5501625245 2.0537056998 5.8372628687 2.3661398149 2.4835560475 0.9958229134 5.3708632077 6.6982303842 3.5554574551 2.8731188371 6.3867598143 8.0618897583 0.0262008122 3.0644403146 6.2557009264 3.3786210396 2.3654225248 1.3618976731 1.4526620911 5.7793776348 2.7673191584 1.9770029434 6.5333158551 7.7858984543 3.9369829877 4.9403066406 7.6529352934 0.4951409686 -0.4582468236 2.6844940372 2.7218818014 3.8404986701 1.7041201787 4.7499034895 9.2859770163 6.8005949006 2.9186729886 2.4659772928 6.0453261758 0.9464973085 2.4912360364 -0.5025021017 4.8177206728 6.7660931596 5.0751456456 2.6442385260 7.4816673430 7.2013324594 0.6651904232 6.1017743436 3.3641978771 4.3146683713 6.4980773905 9.5266886274 0.4818469995 1.7103571158 4.3047828608 2.4814902645 1.2372615478 1.6011241394 4.6988624037
4.7696985838 0.0996485058 2.9522387315 2.9156152366 7.8224598448 5.5343056678 1.8460512700 3.2505786905 2.3780543156 6.6840994462 1.7042381567 0.3765878352 7.5557825215 6.1605066212 3.2456803375 1.5704959877 6.4907503719 2.7571488919 3.4470237219 2.0184310784 4.8769443819 7.8191169123 3.0834095269 3.0789453541 6.1276058159 7.6047678493 0.6707396139 2.5160144115 7.0391119079 3.8196310722 3.1061660104 2.2599476081 1.1547477543 7.2332767948 1.9540729276 2.2248888142 6.4082421845 7.4869210588 4.3857207984 4.5859219559 7.4530581742 1.0946594567 -0.0083177643 3.0446882277 1.9702248977 4.9338467808 1.8982405088 4.5512021732 9.2831879267 6.8060597588 3.6832569225 1.4504151283 7.4691891300 1.4926963750 2.8952423887 0.5584868661 4.6336351273 6.9611905371 4.3929814098 3.1783393415 7.1837897624 6.7187880962 1.4124111413 8.1169544755 2.5706708939 4.5185442148 6.4782764288 9.1053735156 0.9912478620 2.1381111272 5.1515915019 2.2086803691 2.6138065748 2.8845084502 3.9227442474
5.1457503694 0.0409969775 2.5274272930 2.7301187904 4.7169675517 4.9131451194 2.2948193361 1.5545777219 2.6986588306 7.6361706991 1.4434919799 -0.0760429514 8.1096564488 4.6952285253 2.6555353534 1.1693646681 4.4390507575 2.1479909921 4.1570499668 1.8217015903 4.8503461498 9.2679729405 1.5575292665 2.7054266604 6.1295768813 4.6646175713 0.2959561905 1.3908250284 4.7739988458 3.6253711797 4.0418544137 1.7781151490 1.3810844756 9.0504480593 1.6947866436 1.1825029949 6.3334230330 4.4719388470 3.7619810309 4.6219474897 4.9028490943 0.7558455947 0.4063115890 1.2728097591 3.0132090257 5.5667150575 1.6804769936 4.2223268811 10.0003737946 4.2857717490 1.8964966213 1.7955456278 5.5871723141 1.2779968811 3.2081794360 0.5864470889 4.1561198293 8.4479736186 2.6766916670 3.5016041514 6.7950758702 3.5314594985 1.1372129676 8.5032651397 0.2522404728 3.4228416398 6.8788262051 5.9852529285 0.7544807757 2.0535928631 3.2285617835 1.7924603911 3.3439535608 2.9732238905 4.1840006972
4.1279190065 0.0782737072 3.0255050171 3.4960497604 6.9956176219 5.0783869814 1.4042686855 2.4888398883 3.1645498305 5.2463983428 2.4853844354 0.3554889320 7.5526687364 6.9111263858 2.6221343721 2.1340332397 5.7968056585 2.4237159333 2.6415491041 0.9504191017 5.4407665060 6.8426634115 3.5475625343 3.1164530532 6.4967629956 8.4332382141 0.0881090305 3.3096034522 6.3627348131 3.2588519851 2.3675339541 1.1470912471 1.4907073510 5.7973646332 2.9110027829 2.1297829103 6.8610439609 7.9999594583 4.0438950410 5.1876399898 7.6819114071 0.5017862508 -0.5079548374 2.4637797312 2.5880516734 3.8870140438 1.7310752616 4.8643723975 9.5123984039 6.9892181888 2.9421769368 2.5515655728 6.0928489359 0.9460959818 2.9871960207 -0.4750166077 4.8516210985 7.1101104398 5.0755897269 2.7367986989 7.6516626151 7.6759794405 0.8345402365 6.2038117178 3.3906529572 4.5234391177 6.3232399959 9.9633476710 0.4179383726 1.9661799350 4.2776700410 2.6408200139 1.4380535436 1.5450354379 4.7287572757
4.6116354221 0.4740136436 2.9956158996 2.7962090742 7.9004265579 5.1282652280 1.8114003479 3.2227013193 2.4688013814 5.6589268494 2.1266603329 0.3917623458 6.7720480509 6.6971967542 2.8615205845 1.8590374638 6.2881855094 2.5137208114 2.6815149810 1.6800468561 4.9938259768 6.8541139948 3.5107877476 3.1202341675 5.7976905904 8.2225892577 0.2807682336 2.6900709115 6.5839391809 3.8304585036 2.4577034775 1.8767115055 1.2098135390 5.8397446950 2.6178562760 2.2557126800 5.6729611849 7.8110380769 4.0669839282 4.4052803230 8.2132021566 0.8554065511 -0.0023606312 3.1881720289 2.2157039206 4.1293879057 2.0643363256 4.4707914256 8.5897075555 6.6205536184 3.0915486954 1.8974801561 7.4283173023 1.5206830478 2.4933277176 0.2354508244 4.4864024108 6.3051441546 4.9475133785 3.1503315858 6.8112067677 7.2359089367 0.9042645889 6.9951695782 2.8435648671 4.4961288573 6.3290985423 9.6722756850 0.4219989951 2.3178550608 4.9368562763 1.9045103495 1.6795246539 2.5623623181 4.2008868565
5.1278391154 0.1130786997 2.7681502162 2.5925714682 5.5078847684 4.9164844578 2.1797235729 2.0559550259 2.8772811439 7.2223446923 1.4747073052 -0.2499872460 7.3415409744 4.3852267505 2.6633731637 0.9482458614 4.8219789728 2.1576363739 3.7448603533 1.8885855289 5.0815264729 8.5751694434 1.3050030105 2.6048047863 5.8195689483 5.2990709505 0.3323220591 1.3166968151 5.2341388371 3.6097065423 3.5845868179 1.7217248407 1.3466097854 8.4623349551 1.6995892411 1.0991493414 6.1625024382 5.0199079782 4.0846244516 4.2769811268 5.3667953370 0.5985349465 0.4092075267 1.1601823492 3.0996054671 5.2962199677 1.9920620824 4.7407637708 9.0675538213 4.8881823388 1.9718906615 1.5437536100 5.9164511768 1.1987928828 3.2382075532 0.5588949817 4.1587275336 7.8311079020 2.5799806473 3.1440131970 6.4774501754 4.0924863703 1.0644557984 7.7572051962 0.2970178920 3.4067939287 6.4832331513 6.6122446604 0.8951222804 1.6152483935 3.4653578824 1.7005401810 2.9676756697 3.1363670158 4.4676457768
4.1569639819 0.0069951378 2.8691020763 3.5955221152 6.8803842083 4.9694970536 1.4263475391 2.4397147699 3.0221128406 5.2098479067 2.5779725321 0.5175030256 7.6152223321 6.8245592437 2.6581459991 2.1989184057 5.7539422971 2.3574680306 2.7755411568 0.9150443191 5.4569956052 6.8828497838 3.5038777854 3.1645108046 6.4137508304 8.5051516511 0.1231366608 3.4669083676 6.2919696264 3.2229041853 2.4105260001 1.0558202605 1.6606769089 5.6935548441 3.1741178881 2.1574414444 7.0211232726 8.1408876659 3.9195832709 5.1649219434 7.5702499252 0.4557632337 -0.4788149535 2.2856719528 2.5538113519 3.8850404464 1.8712391014 4.9126203510 9.5458948665 6.8773012948 3.0313870536 2.6388528896 5.9842735351 0.8515054422 3.1018022618 -0.4700803384 4.8911688428 7.2330032852 4.9801487601 2.8303542190 7.5790049142 8.1101387970 1.1148263124 6.4037978385 3.4350461799 4.6372325327 6.2190706091 10.0449374760 0.2859889960 2.1570596025 4.2245278657 2.7405495633 1.4776307772 1.4335832334 4.7180111643
5.1388410030 0.0457612382 2.5389108856 2.7314238318 4.7244434629 4.9231302945 2.3024727743 1.5503499493 2.7236633934 7.6328150233 1.4338067621 -0.0777828219 8.0989374727 4.6918456532 2.6718864106 1.1691035362 4.4237849336 2.1534927961 4.1630863087 1.8221710032 4.8590038143 9.2664054458 1.5474868674 2.7075167433 6.1026770851 4.6697174403 0.2955910930 1.3722191298 4.7901038845 3.6349208198 4.0542915949 1.7872393040 1.4003516067 9.0393253186 1.7006161999 1.1892759138 6.3304414654 4.4629879321 3.7716897770 4.6148734101 4.8992850176 0.7630944589 0.4064828135 1.2694275055 3.0241015953 5.5547644915 1.7041866546 4.2366970331 9.9847652215 4.2576001834 1.9021945120 1.7847021140 5.5699419018 1.2766015061 3.1957855677 0.6073761807 4.1659978922 8.4553002392 2.6632528102 3.5059250475 6.7822899542 3.5550328660 1.1532812517 8.4941737181 0.2597823970 3.4196739326 6.8775676990 5.9695803317 0.7616378743 2.0502455158 3.2254260507 1.7868994579 3.3500844013 2.9855822668 4.2116578395
4.4531201407 0.3684426142 2.2616510229 3.0968384564 7.0463881747 4.8027262691 1.0774103655 2.5261173972 2.4786227005 5.9611919805 1.9796044130 -0.2148854689 7.4049379896 6.6007107834 2.2214968583 2.0492365465 5.7901692624 2.3678386275 2.5013334796 1.1533999416 5.1444107523 6.4143719686 3.4963495215 2.4089685662 6.3311553834 7.8475543222 -0.3448450825 3.2997160418 6.2085213296 3.1146733691 2.4808281945 1.5203819012 1.5590373220 5.4695789639 2.7018533420 1.5329741547 6.0527176108 7.6339290673 3.2886704141 4.8610361174 7.8205915012 0.3196106978 -0.7566045692 2.7973652405 2.1520865871 4.0776463641 1.1242844668 4.7210076119 9.3390696003 6.8018791922 2.7593520167 2.1825294013 6.4342051749 0.9353027892 1.8990951606 -0.3208782782 5.0561286206 6.3425141656 5.0570008549 2.3440371571 7.3925992164 6.8534018985 0.2125062567 6.1957685178 3.1769172470 3.9021245648 6.9839289498 9.2481204544 0.0897107291 1.9039420018 4.2606163876 2.3626717476 1.6807144922 2.1885215488 4.3808296290
4.5117692902 0.5276485322 2.0881220069 2.9313688424 7.3305082587 4.8570025915 1.0285487340 2.6865117427 2.5417201704 5.8909556022 2.0212274146 -0.1878620447 7.3423255219 6.6934563082 2.0758805110 1.8765084520 5.8972688327 2.3402199430 2.4643217832 1.2247543888 5.1260531174 6.3451231100 3.5865222981 2.1902612069 6.4185987367 8.0825472190 -0.4565379240 3.0136535794 6.5064394416 3.1515359158 2.6219827832 1.7592565426 1.4528980999 5.2940384441 2.7197795142 1.5449207998 6.2571033725 7.7788167079 3.1706114633 4.9169361894 7.8590826441 0.1002403076 -0.7682852552 2.6465545592 1.8998165680 3.9819747401 1.0383736760 4.6223068113 9.0106014625 6.7395335513 2.6828142070 2.0462697246 6.4117177925 0.9235363510 1.7507956562 -0.1106196522 4.6205569619 6.0658526688 5.1139980019 2.1289867699 7.0546949821 6.8888781262 0.2448618021 6.3210277883 3.1097561068 3.7063679938 6.9663884525 9.4690107154 -0.0269496756 1.8889319042 4.3720197341 2.3573071013 1.8602741170 2.2660554302 4.1916218386
4.4411318724 0.3411087929 2.3104783361 3.1222719154 7.0084424664 4.8147049353 1.1059363919 2.5014357269 2.4813961623 5.9550931876 1.9636625697 -0.2016485238 7.4085419237 6.5847696761 2.2487144872 2.0599652546 5.7933439294 2.3523287068 2.4973042746 1.1417345912 5.1510397854 6.4319696502 3.4978562599 2.4333265126 6.3155446402 7.8098715190 -0.3060776605 3.3314898556 6.1449324710 3.1242617156 2.4155703869 1.5097113568 1.5446179803 5.4953777464 2.7336212946 1.5576727181 6.0523770023 7.6330673953 3.3048745459 4.8367668044 7.7889882921 0.3713489428 -0.7157242763 2.7992350563 2.2060970642 4.0627120519 1.1631397902 4.7270857398 9.3657118763 6.8245984634 2.7696866548 2.1999415819 6.3939234151 0.9650520897 1.9391914436 -0.3442048629 5.1156677402 6.3711102974 5.0372223382 2.3727043217 7.4280709662 6.8675245206 0.2139500302 6.1874614593 3.2118767543 3.9412652759 6.9781068620 9.2037281967 0.1006259132 1.9216174171 4.2586498152 2.3436314881 1.6313165191 2.1695065253 4.4291798311
4.6359451369 0.4803530187 3.0033554351 2.8034540155 7.9086450031 5.1061945724 1.7921329099 3.1925905033 2.4402442734 5.6861644612 2.0900878009 0.3584812396 6.7640709333 6.7260796039 2.8038947742 1.8466313668 6.2665189360 2.5524885518 2.6281235341 1.6561219403 5.0776544451 6.8407780576 3.5018154557 3.1154367694 5.8295045185 8.2703562202 0.2041378443 2.6871969590 6.5974973505 3.8215889467 2.4544485114 1.8857279348 1.2929847355 5.7650537284 2.6384755626 2.2790921105 5.7182309841 7.9030762710 4.0303473490 4.4409437213 8.1755793945 0.8392230805 -0.0511591543 3.1234022740 2.1924943256 4.1006184228 2.0228083592 4.4919414356 8.5862335283 6.6203630039 3.1300360712 1.9287900052 7.4342987104 1.4914846837 2.4272284969 0.2012978287 4.5212964793 6.3154965389 4.9425507004 3.1302733843 6.8231017419 7.2989107366 0.8835477545 6.9788849621 2.8373974514 4.4923182710 6.3337308737 9.7352185466 0.3837506403 2.3686293703 4.9261433437 1.9195319970 1.5989373079 2.5057460659 4.2466133790
4.7678699048 0.1186052572 2.9748694199 2.8867502790 7.8671569179 5.5638177727 1.8194232542 3.2599434934 2.4031532118 6.7234559740 1.6734446624 0.3552607985 7.5724491663 6.2112629494 3.2267480345 1.5636192250 6.5441416061 2.7574673855 3.4394852527 2.0330589717 4.8480209806 7.8651484128 3.0673972245 3.0432907952 6.1420168820 7.5946426697 0.6607630136 2.4792134968 7.0865891864 3.8451270170 3.1079258865 2.2940584942 1.1317581779 7.2227642763 1.9436252841 2.1879995296 6.4524002587 7.5316937270 4.3854647454 4.5755921324 7.3951183830 1.0919523619 -0.0208416891 3.0297287764 1.9621105931 4.9745123713 1.9059818622 4.5496009930 9.3006472792 6.8570993549 3.6636604307 1.4475386042 7.5167310432 1.4820097520 2.9023908168 0.5821603742 4.6404009203 7.0280695439 4.3858437230 3.1673143259 7.2075512213 6.7206412437 1.3782871853 8.1290904070 2.5615458913 4.4801677037 6.4780797767 9.0828586252 1.0062068316 2.0971292322 5.1828826665 2.2408897416 2.6346974519 2.9364932444 3.9181191245
4.7684923063 0.1755608658 3.0371207030 2.8455652225 8.0287989352 5.5802006965 1.7378386053 3.3115159416 2.3909494030 6.8202357186 1.5837202070 0.2669255467 7.5982353189 6.4156884360 3.1374976175 1.4866841619 6.7027538401 2.7652109853 3.5007612217 2.0463115556 4.9098826163 7.9624972584 3.0328151496 2.8731111753 6.1259671541 7.5339435253 0.5619325579 2.4243393884 7.2806984216 3.8992749185 3.0535416997 2.4399242913 0.9705135923 7.1013143317 2.0038929061 2.1062175337 6.5618007396 7.6198554175 4.3152605449 4.6884673396 7.2089874959 0.9694288057 0.0629785195 2.9678546284 1.9598056261 5.0236543951 2.0139392368 4.5630539993 9.3147766491 6.9904910173 3.5220537043 1.4050153402 7.6655746853 1.5760930706 2.9036850241 0.5884796682 4.6303344890 7.2747623575 4.4074034432 3.0969922988 7.1942178076 6.6686496677 1.3156171675 8.1811680560 2.4611487400 4.3319368096 6.4058643169 8.9755825324 1.0957366961 1.9117280770 5.2876633013 2.3257492032 2.7824836896 3.1236890322 3.9857314584
5.2066308867 0.4717493446 2.8183654789 2.7473769222 6.6447532364 5.0323891024 1.9817513944 2.7650390353 2.5399236540 6.7655317571 1.4925602131 0.1085984490 7.4163228044 4.9517411297 2.8944405270 0.9939127711 5.8120608192 2.3315028980 3.5623668961 1.9408794483 5.0524357890 8.3421032332 1.8616043651 2.9900156010 5.8198672582 5.9657367810 0.2928126369 1.6077708364 5.9018746915 3.7357494865 3.2580913268 1.8455004943 1.3491695590 8.0632322987 1.9041549306 1.4614641760 5.9893262622 5.6931591255 3.9880979050 4.2440512177 5.9407585998 0.6265253714 0.5292573263 1.5934862641 3.2351634856 5.1331970612 1.9948040922 4.8935821146 8.7891462761 6.1944217819 2.4657585345 1.6025923562 6.8325544679 1.3012205487 3.2657334201 0.5143078346 4.3395609935 7.8987741250 3.2519414506 3.5782987187 6.6421926225 4.9476456523 1.1199313602 7.4408443466 0.8050291465 3.6493347647 6.3379891095 7.4513735131 0.5366109050 1.3948906670 4.3566575455 1.8679502541 2.8061773134 3.0098257450 4.2335435884
4.6297585180 0.1362222278 2.7669289307 2.9537540507 7.6967585020 5.2176551003 1.9831095774 3.2685955829 2.3070778306 5.8450831740 2.2362779784 0.4388768916 7.0103433092 6.3679787965 3.0593131074 1.7966508764 6.2544299954 2.5106420277 3.0810803849 1.7427812217 4.9681478730 7.1824601611 3.4621095693 3.1147791023 5.8687928786 7.9394957134 0.4441814966 2.7047483948 6.5883627577 3.7210798545 2.7866881197 1.8359821131 1.2925054170 6.5791392802 2.3916591897 2.1788359715 5.8507156575 7.3761279014 4.2013555824 4.3814001270 8.0206259093 1.1014734728 0.0107815999 3.4300639630 2.1725634019 4.5000075126 2.1021361582 4.4107246392 8.8699803367 6.4481028875 3.3642393110 1.6557958939 7.5353342640 1.5725984913 2.9185073085 0.3420729078 4.2812890647 6.1667208235 4.6575015562 3.2299863268 6.4802968314 6.8298403980 1.3510143311 7.3472132106 2.8124641149 4.5249696659 6.5371644817 9.3334868742 0.3765720993 2.4420722625 5.0938643253 1.6758378517 2.2373231070 2.8170658033 4.2192557394
4.3250962930 0.2278404485 2.6596819615 3.2712748102 6.8772360538 4.9464346679 1.2865573641 2.5180518863 2.6601371347 5.8328787590 1.9180400805 -0.0374253790 7.4567674088 6.6251264741 2.4273362618 2.0399598684 5.7587609455 2.4047767355 2.3652986375 1.0944368868 5.2634535359 6.5946278755 3.5554511045 2.7008918897 6.3265033080 7.8494282975 -0.1400850121 3.2293623132 6.0101244526 3.2956616090 2.3335175532 1.5088374697 1.5313816036 5.6345956001 2.8629107023 1.7308327594 6.1575792284 7.6029098624 3.6137705452 4.9567099766 7.4994773106 0.5859115904 -0.5873929619 2.7135087421 2.5259288116 3.8453386068 1.4494468225 4.7268896402 9.3751600917 6.8450341465 2.8332135515 2.3303958420 6.1380852207 0.9424183000 2.1987434304 -0.4662206809 5.0751293838 6.4307203728 5.0877221176 2.4134010205 7.2849111668 6.8219748200 0.4493278691 6.1378182415 3.2802370173 4.1673077413 6.6750957618 9.3492117186 0.2109616994 1.8798835056 4.2395907555 2.2776324904 1.3519905525 1.9395593080 4.4974422454
5.1861267893 0.3966975792 2.8535742716 2.7586830292 6.2922207034 4.9571051368 1.9844466462 2.5591846345 2.5813417221 6.8398436481 1.5364676187 0.0112374862 7.3446094837 4.7647620343 2.9137332036 1.0341681442 5.5647696528 2.2705155631 3.5272373493 1.7886961425 5.0690134500 8.3881710472 1.6983350654 2.8650441136 5.7422241981 5.7919810204 0.2432603754 1.5937101484 5.7067634356 3.7029688743 3.2616160246 1.8201490258 1.3710399627 8.2357564473 1.5888543015 1.3323298449 5.9996186797 5.5133974659 3.9452388685 4.2669658979 5.7795164834 0.5663846775 0.5476035108 1.5763413987 3.2115878389 5.0417832018 2.0137381586 4.9118704366 8.8130432511 5.8032571270 2.2646765851 1.6211206194 6.5770926427 1.2987040816 3.1318386833 0.5138065172 4.3588299945 7.8922139018 3.0286639727 3.6892705805 6.4466451743 4.6821417582 1.0815697749 7.4788191760 0.5858370665 3.5420915045 6.3851053288 7.1304458008 0.5395591508 1.3834459513 4.1141339606 1.8954250443 2.8989499937 3.0457049352 4.4161758327
4.7682395191 0.1148648166 2.9705063866 2.8919372911 7.8580908872 5.5587894210 1.8248688811 3.2579263257 2.3992769590 6.7159470238 1.6790923834 0.3595295024 7.5693785014 6.2006720541 3.2306743605 1.5657145910 6.5334836875 2.7580570059 3.4406819830 2.0311011285 4.8521177135 7.8558965120 3.0702797123 3.0510111621 6.1395441432 7.5965961523 0.6634366083 2.4853730705 7.0766169678 3.8396393999 3.1081394493 2.2867961952 1.1379293665 7.2263278733 1.9451784935 2.1951372902 6.4437553644 7.5232485144 4.3857166035 4.5760259776 7.4064633947 1.0931378053 -0.0196315618 3.0322865052 1.9629461533 4.9660723520 1.9033516832 4.5500317348 9.2969697323 6.8474712792 3.6683490543 1.4483086692 7.5079074021 1.4824876648 2.9013018149 0.5783169352 4.6391867865 7.0147016987 4.3875749027 3.1696683249 7.2041321462 6.7200556346 1.3849184902 8.1267286465 2.5633876491 4.4880791084 6.4789876615 9.0893590417 1.0028739063 2.1057398666 5.1767331129 2.2346648928 2.6297112148 2.9257426965 3.9173847339
4.7324405824 0.5337552577 2.6820797757 2.8181559762 7.8316411179 5.0628331212 1.5318669931 3.0644015318 2.3145762602 5.8171614203 2.1349781946 0.1488434860 6.7736217946 6.7821877187 2.3543247256 1.8382499195 6.2269410690 2.4844364920 2.4326714819 1.5577587231 5.0422428147 6.5789726936 3.5031200430 2.6901778051 6.0460833196 8.3779784037 -0.1364602033 2.7966537425 6.7484592663 3.5584678120 2.4330367791 1.6976284208 1.3745699371 5.5030434734 2.6397378484 1.9054833917 6.1733458426 8.2207593186 3.6272240131 4.5470858643 8.0845290147 0.3520383054 -0.3782982381 2.6253309727 2.0102830439 4.0198858595 1.8108470236 4.7824511911 8.6520910038 6.6991010256 2.9370572285 1.9425894575 7.2115581305 1.2084413962 1.9581148481 0.0959387306 4.6519925960 6.2165440586 4.9899108436 2.8988793262 6.9945987740 7.4334895046 0.6284302042 6.6851278270 2.9096289669 4.1164735285 6.5217213571 9.7984473270 0.3758475353 2.2763534505 4.7592231435 2.1662057469 1.5579560666 2.6132741068 4.2998498917
4.1464415056 0.0250443185 2.9225234462 3.5626904589 6.9153214755 5.0005479765 1.4268502665 2.4520438540 3.0735004008 5.2090046929 2.5580859994 0.4683366009 7.5967463691 6.8506624296 2.6466130300 2.1869085130 5.7833173640 2.3754324819 2.7447617402 0.9140507865 5.4577280680 6.8564819025 3.5202220297 3.1530171576 6.4340139176 8.5181177756 0.1197812925 3.4283239709 6.3070860347 3.2109764229 2.3930942491 1.0590813807 1.6347374370 5.7477118285 3.1169415527 2.1507038523 6.9957767627 8.1166617416 3.9429904658 5.1881464641 7.5953333277 0.4668357595 -0.4823331037 2.3165965790 2.5523062255 3.9318216620 1.8472941123 4.8996774316 9.5393152929 6.9415415048 2.9941720477 2.6157297860 6.0334660533 0.8944113247 3.0827676364 -0.4747093472 4.8869254283 7.2042334360 4.9791851260 2.7986827397 7.6155817693 8.0126576847 1.0219338132 6.3437973752 3.4145655263 4.6313063319 6.2669878317 10.0242217333 0.3042422109 2.1187187447 4.2082479884 2.7276733012 1.4578002820 1.4609733683 4.7235227129
4.1774431191 -0.0376171943 2.7177936139 3.6731074785 6.8146082640 4.8895889159 1.4092831790 2.4048920760 2.8942305281 5.2204936423 2.6019515224 0.5934342692 7.6503011849 6.7676938971 2.6600599774 2.2745502431 5.6683226272 2.3207394837 2.7499687982 0.9435005907 5.4014596359 6.9186584337 3.4955356666 3.1450431548 6.3786389947 8.4515360089 0.1305679115 3.4414433992 6.2455085027 3.1506012123 2.4397104522 1.1129686424 1.7413957751 5.6299851460 3.2865462155 2.2890722965 7.0262027232 8.1287762739 3.8945275111 5.1342865015 7.5460439408 0.4239890939 -0.4862343084 2.2366526446 2.5264850417 3.8154479267 1.9811760470 4.9365235093 9.5361783381 6.6992534386 3.1113647182 2.6420135026 5.7885745166 0.8345177707 3.1316903922 -0.4962799936 4.8652905117 7.2876334840 5.0035568166 2.8737267417 7.4095948545 8.2352269945 1.2828595941 6.4829867866 3.4760294348 4.6295714371 6.0398038335 10.0063319453 0.2739728099 2.1816505861 4.2115349085 2.7364165002 1.5049412842 1.4092504274 4.6701038818
4.7671670941 0.1259430491 2.9833417798 2.8773696959 7.8853609236 5.5724893448 1.8084071976 3.2641848940 2.4091326403 6.7378441953 1.6627911739 0.3467355970 7.5781461150 6.2328704562 3.2187222829 1.5583071530 6.5652243050 2.7555497045 3.4381968618 2.0357694932 4.8426859180 7.8831612573 3.0620192066 3.0270168431 6.1460459229 7.5907561759 0.6544557757 2.4686741458 7.1071826657 3.8564143099 3.1066499751 2.3090355672 1.1170285184 7.2138660363 1.9416183863 2.1744482253 6.4691828352 7.5476495652 4.3844641545 4.5774342887 7.3729097984 1.0883737840 -0.0209580419 3.0251023701 1.9612978418 4.9907064170 1.9127596238 4.5487578306 9.3080855642 6.8754741276 3.6530809642 1.4454052021 7.5332916310 1.4837998381 2.9039921292 0.5883743808 4.6424415850 7.0547572533 4.3823938694 3.1623650777 7.2126045820 6.7216911739 1.3656807743 8.1338365404 2.5574218292 4.4643531026 6.4749795659 9.0675866877 1.0134030492 2.0793474784 5.1950150800 2.2529186746 2.6459150858 2.9583650984 3.9218939874
4.5983313608 0.2122999176 2.8113933978 2.8978762191 7.7533140420 5.2280690179 1.9615330620 3.2858727233 2.3649569987 5.7617548099 2.2465758320 0.4531502111 6.9671518750 6.4563057711 3.0463254397 1.8036856939 6.2695607540 2.4792529810 3.0389026401 1.7161347765 4.9275487949 7.1016142008 3.5072178154 3.1069590703 5.8182416962 7.9872705234 0.4232614647 2.7148978018 6.5766023084 3.7480782887 2.6827129021 1.8700511865 1.2081221128 6.4763781444 2.4310758701 2.1440315463 5.7905736418 7.4265917907 4.2032792645 4.4355660167 8.1039900472 1.0953524383 0.0380024396 3.3914217364 2.1622121041 4.4344460984 2.1736034231 4.4186988266 8.7870278900 6.5332723392 3.2529471661 1.6778351015 7.5212674715 1.5965915021 2.8600805098 0.3111115961 4.2518852940 6.0914638884 4.6977588678 3.2702664418 6.5064654925 6.8923133864 1.2746987962 7.2468219269 2.8444074077 4.5048673702 6.4796777710 9.3586728121 0.4095225626 2.4164042048 5.0748115562 1.6840172840 2.1708532201 2.8242127032 4.2604692730
4.4730987437 0.4288490766 2.1804836818 3.0435142959 7.1301774229 4.7966015892 1.0356926448 2.5835867326 2.4841480632 5.9589662363 1.9944365270 -0.2136759772 7.3983117026 6.6376378428 2.1744389730 1.9808564902 5.7996580742 2.3650763427 2.5224745956 1.1564068569 5.1653322706 6.3924663251 3.5461548471 2.3644943229 6.3717525188 7.9600351447 -0.3911618032 3.2625217734 6.3527178307 3.1494394331 2.5986384058 1.5766553940 1.5369524679 5.3814832743 2.6440816399 1.4983104155 6.0827860608 7.6429758884 3.2625540466 4.9574604622 7.8493861256 0.2141876604 -0.7707420148 2.7522801819 2.0421599759 4.0024647409 1.0630056013 4.7089294459 9.2473498615 6.7537189864 2.7382997884 2.1455801278 6.4621407043 0.9096313181 1.8458661975 -0.2190099830 4.8929566509 6.2548763000 5.0678126672 2.2824028816 7.2602293703 6.8270573566 0.2312084612 6.2207336520 3.1331303324 3.8207865004 6.9459191649 9.3461254592 0.0508332926 1.8744979032 4.2692875208 2.3873274044 1.7707890677 2.2213456194 4.2783242373
4.7310509978 0.5246285958 2.7132549061 2.8261190635 7.8458784010 5.0577978468 1.5550060741 3.0742875325 2.3167530065 5.8100646179 2.1231245807 0.1617663425 6.7664489308 6.7909718067 2.3730475159 1.8289076694 6.2328395477 2.4799876824 2.4349104540 1.5557081585 5.0392267155 6.5966139066 3.5087575623 2.7242204377 6.0119256394 8.3682738390 -0.1261761343 2.7876364012 6.7361063171 3.5918768227 2.4620803631 1.6940192993 1.3613989577 5.5145049653 2.6252129691 1.9245588973 6.1569685185 8.2316655605 3.6571120612 4.5372826462 8.0839062292 0.3908097239 -0.3621286718 2.6359280502 2.0120198046 4.0390921812 1.8322352980 4.8045861895 8.6605286573 6.6865190251 2.9799195679 1.9558559959 7.2384370447 1.2215445554 1.9837643823 0.0938738053 4.6660634993 6.2177314409 4.9822391537 2.9349828313 6.9763001398 7.4590618271 0.6652103981 6.7137576471 2.9081263920 4.1445861661 6.5179713505 9.7923250832 0.3623729243 2.3022394926 4.7753465771 2.1570572681 1.5237167408 2.5996480145 4.3076612995
4.5892043297 0.5941816777 2.1378995845 2.8293737254 7.5243958395 4.9995613420 1.1048136534 2.7982257175 2.6129824182 5.8170982732 2.1072690908 -0.1151398944 7.2130997213 6.6813560746 2.0790016311 1.7990255884 5.9789554147 2.3562617600 2.4674840867 1.2954437821 5.0117520553 6.3875579040 3.5924894046 2.2493574789 6.3206040863 8.1244353420 -0.4376837757 2.8703462510 6.6942653806 3.3195269956 2.4762513002 1.8178738608 1.2554577984 5.1600092212 2.7769949888 1.5075686696 6.4340989079 8.0615847138 3.2591917219 4.8660162828 7.9789187606 0.0494713959 -0.7703637879 2.6519942341 1.8635247809 3.9870315968 1.1270821603 4.6290100635 8.9528687929 6.8072432047 2.7312387530 1.9403655661 6.4986174428 0.8381797558 1.7768161926 -0.0216268619 4.6290734346 6.0708891286 5.0755496071 2.0576141921 7.1299454100 6.9732690376 0.2408197452 6.5275242153 3.0761247299 3.6990247086 7.0415874816 9.4366892603 0.0543619554 1.9552820429 4.4427141408 2.2954576768 1.8442623505 2.4741112348 4.2025292608
5.0325675183 0.1312946916 2.7978556300 2.6844463944 5.0478061284 5.0958377030 2.3531491605 1.6525013452 3.0350988400 7.3765480933 1.3397507686 -0.1299981911 7.7556397234 4.4557841103 2.8554036204 0.9443995863 4.4360596336 2.2616227823 4.1996829895 1.9968068498 5.2503134538 9.0192507459 1.4432998477 2.7880132420 5.9748986156 4.8768612441 0.4651700578 1.2158092953 4.8830819680 3.7402769685 4.1026774385 1.5752681208 1.5650086856 8.7621912950 1.5046597640 1.2790752014 6.1008308746 4.8004317775 4.1264251508 4.5104806943 5.0766531924 0.6861759348 0.4548541307 1.3624363961 3.1497109513 5.5674516808 1.8910025728 4.6370910616 9.4300362298 4.1314015624 2.0986153061 1.4711058903 5.5731964841 1.3443407088 3.3642799786 0.6715552176 4.5585161086 8.3806381731 2.5555517167 3.7432577696 6.5707323180 3.7606056266 1.4352496284 8.1345295173 0.1481062871 3.2552401825 6.6473369068 6.1635964003 0.8678210947 1.7270667410 3.1786688275 1.9177043524 3.3523873240 3.1279905519 4.5691383952
4.7306623800 0.5928527941 2.5138857932 2.7407279537 7.7552373718 5.1219770079 1.3808114549 3.0003653145 2.3636644929 5.8530230850 2.1878453358 0.0724667535 6.8565042946 6.7127042203 2.2937851840 1.8327620599 6.1824216221 2.4673597391 2.4366604102 1.5242545541 5.0903653388 6.5253168479 3.4915157605 2.5681195959 6.2489676947 8.4032585731 -0.1801249793 2.9033943493 6.8280738244 3.4516963990 2.2819867799 1.7354583787 1.3475874300 5.3459130335 2.7717609203 1.8442678960 6.2353661866 8.1481786098 3.4858299143 4.7951782824 8.1238166758 0.1844713587 -0.4196954551 2.6593151145 1.9957029822 3.8936822470 1.6341803083 4.6235864892 8.6320583319 6.7787477456 2.7378870499 1.8744298460 6.9802625628 1.1900484800 1.8926565028 0.1635435091 4.6195638821 6.2267548039 4.9949240636 2.6207712934 7.0845724445 7.2186828876 0.4089405365 6.5761742039 2.9292185989 3.9822386642 6.5339509223 9.7816789488 0.4514363961 2.1646225611 4.7054243117 2.1903254966 1.7704797556 2.6818979451 4.2855851414