-28926.5691484934
-28926.1163296649
-28926.4149574426
-28925.6315588377
-28926.0662104032
-28926.6773867513
-28925.7636108539
-28926.2576863369
-28925.6088389765
-28926.0789234192
-28925.8094647334
-28925.8527706762
-28926.5797681386
-28926.2396798932
-28926.0643915952
-28927.0382631228
-28925.6027196836
-28926.5029840474
-28926.4307341867
-28926.2590226873
-28926.6823981333
-28926.2201153264
-28926.2562165148
-28926.2276097458
-28925.7259465084
-28926.4108617233
-28926.4353790315
-28925.673908573
-28924.767672402
-28926.6097318026
-28927.7357392422
-28926.3344355976
-28925.8265887124
-28926.313461754
-28926.1105184047
-28925.6431035335
-28925.7138622111
-28926.9011817652
-28927.062213074
-28926.069364201
-28926.0187486039
-28926.2161148468
-28926.4092416944
-28926.0779568713
-28926.1994688355
-28926.2097121476
-28926.1873716129
-28926.3614026094
-28925.8692905628
-28925.6030466283
-28926.0603002297
-28925.9744576095
-28925.872938383
-28925.6751373024
-28926.1848986436
-28925.8885670973
-28925.5877668998
-28926.1767135995
-28925.6061432821
-28926.3401320258
-28925.9086369792
-28925.9138002006
-28926.2031044106
-28926.1686033868
-28925.9106044973
-28926.682770793
-28926.3396784123
-28926.4652546667
-28925.6975918527
-28926.1310835336
-28926.5762004559
-28925.9273838443
-28925.4699495594
-28925.5006058887
-28925.4705910674
-28926.2748182073
-28925.7588668237
-28926.0250126613
-28925.7733465379
-28926.8158724878
-28925.6745450469
-28925.808260086
-28926.3999411203
-28926.237905984
-28926.4698061765
-28926.5089603445
-28926.5552395377
-28925.8049820684
-28925.8169030974
-28926.2169445215
-28925.4040955951
-28926.4721990083
-28926.5084351651
-28925.7258050092
-28926.3750246212
-28926.7136908005
-28924.9273737551
-28925.7323617249
-28925.8058771864
-28926.7575813796
-28926.4546482189
-28925.3297617517
-28925.9675259212
-28926.7074071509
-28925.8345303507
-28925.8759780291
-28926.3192357346
-28925.841519319
-28926.9469424457
-28925.4950761302
-28926.2023018112
-28926.7729407013
-28926.3217216293
-28926.1214064902
-28926.7415771484
-28925.6019768132
-28926.2293765801
-28925.6683722837
-28926.1877623681
-28925.7653170068
-28925.9099546898
-28925.5150224725
-28926.7082702956
-28925.9124566392
-28926.1637544567
-28926.1325045113
-28925.6327804922
-28926.4328855176
-28926.0671925976
-28925.7925013014
-28926.0671221202
-28925.8584125456
-28926.1705930822
-28925.8037521144
-28926.3999638418
-28926.0090946902
-28926.6251179275
-28926.778502025
-28926.493072442
-28926.7926115285
-28926.2269727277
-28926.3212134569
-28926.190385
-28926.1997157787
-28925.1680264847
-28925.7261881453
-28925.7611648239
-28926.4776044109
-28925.944372991
-28926.6717591679
-28925.8503981169
-28926.973731223
-28926.1583766737
-28926.3767924079
-28926.9967627904
-28925.7158856486
-28926.4450726739
-28924.8810193225
-28926.318200478
-28926.9950654812
-28924.7714624016
-28926.0948737718
-28925.6160434588
-28926.9576343371
-28926.3164518754
-28926.292396072
-28926.4549932591
-28925.7307799279
-28926.7242928944
-28926.0171400038
-28925.9077539703
-28927.0200222531
-28926.4502039219
-28926.8248401308
-28927.0063575195
-28924.8027832326
-28926.4936282342
-28926.1169096752
-28926.126156779
-28925.6512844958
-28926.1612916917
-28926.4388286169
-28926.9628291237
-28926.4504797092
-28925.9595674118
-28925.9681395376
-28925.8884360745
-28926.0036660219
-28926.449775615
-28925.8150002063
-28927.1651234818
-28925.4895371198
-28926.5818390599
-28926.0109903702
-28926.9401083101
-28926.6115665292
-28925.9760087936
-28925.7351349716
-28926.9099522618
-28926.1724743402
-28926.4873609115
-28926.1303180778
-28925.8403903192
-28926.2310680388
-28926.2632234426
-28925.7364816623
-28926.7920368244
-28926.3069493929
-28926.0535356192
-28926.0606783317
-28926.5353023112
-28927.0235510236
-28926.0843356246
-28926.4663002636
-28926.9984765625
-28925.8293614149
-28926.2574362645
-28926.5796654157
-28926.1106129643
-28925.8200456025
-28926.1903356113
-28926.0936857234
-28925.7952367244
-28926.1477113133
-28925.7350351059
-28926.0796092818
-28926.6493012161
-28926.4568160127
-28926.7292465883
-28925.9037337625
-28926.0285305472
-28927.0465844958
-28926.1046184355
-28925.5034916545
-28925.6250994027
-28926.306700681
-28924.7972278954
-28926.745599261
-28925.3640371933
-28926.8752379008
-28926.2254548775
-28924.6189951911
-28925.8365981427
-28926.8178021821
-28924.8334266365
-28926.4818782286
-28926.3702858972
-28926.6220586892
-28924.4205207652
-28925.9759936913
-28926.8905252485
-28926.2564974722
-28926.5224105165
-28926.7767232178
-28925.7924544979
-28926.5667177017
-28925.9228316543
-28926.4913703708
-28925.7002661862
-28926.3585143946
-28926.023231405
-28926.5031618737
-28925.5218102127
-28924.4451123605
-28926.2992507521
-28926.2184022346
-28925.83141737
-28925.9176797256
-28926.2333200518
-28925.8043344377
-28925.8105246162
-28926.3530473583
-28926.2966927473
-28925.8435573145
-28927.0516432255
-28924.4611718307
-28926.1121576177
-28926.0966412864
-28926.3981142849
-28927.1276674393
-28926.828729588
-28926.1399088612
-28927.0443870416
-28925.5518136052
-28926.1777655911
-28925.5173216972
-28925.7063286073
-28925.416786842
-28926.3747889708
-28925.8228906872
-28927.0777004252
-28926.0023053173
-28925.9414453197
-28925.7022924808
-28926.3303209664
-28925.9043484673
-28926.197820915
-28925.7759645438
-28924.5639811482
-28925.925994976
-28926.3750987722
-28925.9290767997
-28926.0954921502
-28925.9443112212
-28925.8995226669
-28925.6855011608
-28926.9312201243
-28926.2856110529
-28926.1290196873
-28926.0181261438
-28926.1563792231
-28926.4969340075
-28926.1580740833
-28926.7831581625
-28926.0780478934
-28924.4802435996
-28926.5603520099
-28926.1826273105
-28926.4729954851
-28926.2265241482
-28925.8788095082
-28926.8646613856
-28924.4142790211
-28926.8378345123
-28925.301399749
-28926.35609095
-28926.2661341067
-28925.7144826303
-28926.0090902003
-28926.9521781853
-28926.1522071759
-28925.5928514803
-28926.4565379125
-28925.6882527745
-28926.7790383611
-28926.4083586854
-28926.1032365061
-28926.0346222205
-28926.5877934519
-28926.4659059708
-28926.3556437312
-28926.2555424892
-28927.0409877973
-28926.5526769069
-28926.387145926
-28926.0689851466
-28926.7302927294
-28925.7256757552
-28926.0225044533
-28926.2203149218
-28926.2645996576
-28926.324851481
-28925.683189691
-28926.854840394
-28926.3383930832
-28924.7499601131
-28926.5202883018
-28925.6383543331
-28926.7618934293
-28927.1733973709
-28926.8013773992
-28926.3974829812
-28926.1429007513
-28925.5876504352
-28926.135421026
-28925.5079526865
-28925.8101773992
-28926.4522655914
-28925.8607387095
-28925.8971401754
-28926.6484067784
-28927.0651392487
-28926.2730583119
-28926.5082867271
-28925.5575269044
-28926.5740277641
-28926.0392243434
-28926.6573247607
-28926.2070718283
-28925.6221215264
-28925.069211116
-28925.8689266107
-28926.1948339229
-28926.0043355576
-28925.9675551734
-28925.6837239862
-28926.9689247427
-28924.7847718908
-28926.1439026739
-28925.676261268
-28925.6805514126
-28925.9585439922
-28926.360980289
-28926.5018423944
-28925.2328745807
-28926.4811299159
-28925.7123793275
-28925.8198639666
-28926.5038246066
-28924.7897857217
-28926.6034519626
-28925.7146502524
-28925.9503524175
-28926.4668322459
-28926.9613952206
-28926.2685979602
-28926.8537560209
-28925.825666383
-28925.6330070268
-28926.5072868453
-28925.9703729108
-28925.7051806956
-28926.3741990283
-28926.6230996602
-28925.9263938947
-28925.5093523033
-28926.80469637
-28926.4474060489
-28926.3966553473
-28926.1960746253
-28926.7342420516
-28926.5514136191
-28925.8233678386
-28924.5171495643
-28926.7434016708
-28926.8482043572
-28926.3562856474
-28926.2583033548
-28926.2862560985
-28926.2673563054
-28925.8676637311
-28926.5165562624
-28926.2449697835
-28926.7756185722
-28925.1352566483
-28926.3831868077
-28926.4707441524
-28926.7252448842
-28926.765609414
-28924.5710993705
-28925.9654079242
-28926.8108302209
-28926.0646867026
-28926.2402597675
-28926.179471744
-28924.9421391887
-28925.7847644287
-28926.3428829592
-28926.5553711047
-28926.2589971086
-28925.5174955778
-28926.7420864092
-28924.8056636921
-28927.0999578291
-28926.0995994344
-28925.6896232752
-28926.2043702835
-28926.5300611292
-28925.418866471
-28926.8723762171
-28926.0353035932
-28927.3525389349
-28926.6913304015
-28926.4344698997
-28925.5930607358
-28925.7956146903
-28926.165011622
-28925.2778677645
-28924.4766104735
-28926.1988379399
-28926.2090469656
-28925.6545125806
-28926.1190068555
-28926.5789430899
-28925.6905876461
-28926.3076906306
-28926.30562624
-28926.5067609856
-28925.8235874344
-28926.5173090649
-28926.4147016558
-28926.4628563926
-28925.8562269284
-28926.9867611154
-28926.0664777549
-28926.6485010658
-28926.4235752835
-28925.9274081985
-28925.9347475132
-28925.4370487002
-28925.6896142954
-28925.7908618164
-28926.0140713776
-28926.6702927472
-28926.7848900302
-28925.8674834557
-28926.2782197646
-28926.2694285873
-28925.5383090105
-28926.5448777201
-28926.3833635455
-28926.0307210625
-28927.0792325614
-28926.1790305116
-28926.1255068355
-28926.4475457792
-28926.2091298242
-28926.1161272123
-28926.7733541781
-28926.2870778818
-28925.5685071004
-28925.2410452027
-28926.3099524397
-28925.979843692
-28927.0719107981
-28926.0124026403
-28926.5044521008
-28925.7814972955
-28925.8930679939
-28925.5525011005
-28926.4938451088
-28926.914143493
-28925.566627475
-28926.0205655071
-28925.9190069602
-28926.6565187599
-28926.4715747795
-28926.4942343675
-28926.7582417995
-28925.6326885177
-28926.1425358468
-28924.7686762294
-28926.0876471123
-28925.8958136211
-28925.8295316221
-28924.7045793033
-28924.8079222358
-28925.9328039411
-28927.0769688475
-28926.3814399738
-28926.3245763741
-28926.0624952349
-28925.7430053162
-28925.8483759039
-28926.4803322146
-28926.351376172
-28926.2788147412
-28925.8889574444
-28926.4464747397
-28926.692331916
-28926.2027985548
-28926.6819175805
-28926.1911324963
-28924.4149465161
-28926.4458641166
-28926.5708145095
-28925.5363130565
-28926.4862868787
-28926.6819801666
-28926.5644013338
-28925.9392564371
-28926.1520296217
-28927.0718618176
-28926.7068863253
-28926.0698855708
-28926.2941175993
-28926.369751738
-28925.6163831928
-28926.1876912104
-28926.9785529417
-28926.3198328881
-28926.5789535663
-28925.3417125772
-28926.7699264978
-28926.9759077244
-28926.0115543259
-28926.4505865138
-28926.4323738078
-28925.981042761
-28926.4499107194
-28926.7652209717
-28925.6724674588
-28925.7876284254
-28926.1642860308
-28926.2953968058
-28926.3762435545
-28924.740013405
-28927.0431013044
-28927.4724525032
-28926.2394094122
-28924.6783876795
-28926.4747585097
-28926.267422429
-28925.9494827421
-28926.4614216731
-28925.85771471
-28926.0998025673
-28926.1910960331
-28926.3553116164
-28925.7854357332
-28925.692063999
-28926.785241465
-28926.2099469817
-28926.0343468414
-28925.7010109614
-28926.0837801045
-28925.6782615758
-28926.2245056088
-28926.8835599541
-28926.4893107422
-28926.9235359055
-28924.4313644961
-28926.3790823807
-28926.3085717347
-28925.5675834104
-28925.4485725793
-28926.2546846507
-28926.1392353798
-28925.7992932594
-28926.152633578
-28926.2728539545
-28926.412797132
-28926.5909013985
-28925.6519013776
-28926.1847359196
-28926.3638623812
-28926.0194865763
-28926.4508036605
-28925.9574583946
-28926.1941122773
-28925.4325000476
-28925.7647582213
-28925.8828591043
-28926.1632083245
-28926.0357562543
-28925.6279786378
-28926.4621261755
-28926.397937275
-28925.8034521091
-28926.1409237092
-28926.0544537308
-28925.8416089804
-28926.5560002315
-28925.5946172261
-28926.0740874145
-28926.424158015
-28925.5501475891
-28925.7791754854
-28926.086682061
-28926.4116762957
-28926.0196771919
-28925.595176964
-28925.7358864136
-28925.7331994269
-28926.5329538339
-28925.9700213399
-28926.8025595972
-28925.8276681875
-28925.7397289312
-28926.837905534
-28926.0695229793
-28926.9225635072
-28926.3312386698
-28925.5112671674
-28926.2545736283
-28926.9488450646
-28925.7546455239
-28927.039685053
-28926.1815282433
-28926.2150685697
-28925.2043582895
-28926.140210091
-28926.2724717708
-28925.6743757922
-28925.666139999
-28924.5035683695
-28926.2201298845
-28926.1939529548
-28926.2214407922
-28926.0119044002
-28924.7909513208
-28925.8671211364
-28926.2275441664
-28926.1312721084
-28925.9691082624
-28926.7124813912
-28926.0497394971
-28925.8086402289
-28925.7451318847
-28925.5839151304
-28926.438058263
-28926.1660082384
-28926.1812603473
-28925.4874802123
-28926.7465584618
-28926.273304983
-28925.4775547291
-28926.215031018
-28926.0551039465
-28926.4951146553
-28926.7088108495
-28925.8377621091
-28926.5888016332
-28926.2373201232
-28925.6769942063
-28927.1129801023
-28926.2256561055
-28926.4334467522
-28926.3343825355
-28926.2709162329
-28925.8374354366
-28926.7774146587
-28926.3732425486
-28926.4602805643
-28926.1762035224
-28926.2218705958
-28926.2380270746
-28926.358706779
-28925.9924271819
-28925.5596885756
-28924.7613133769
-28926.4366242238
-28926.4747941566
-28926.3691196179
-28925.9459255357
-28926.1555407047
-28926.7905581585
-28926.2487430481
-28926.3405815576
-28925.5440395889
-28925.6297175804
-28926.1670606382
-28925.8504171648
-28926.5335741171
-28924.6133112802
-28927.2263523294
-28925.5409759968
-28926.9773008105
-28926.3744120933
-28926.1949475304
-28925.5295529359
-28926.5264939907
-28925.8260012189
-28925.7696739553
-28925.8101371263
-28925.8915438851
-28926.1955374728
-28926.0580563802
-28926.5378488872
-28926.1955537997
-28926.7695049937
-28925.7219290217
-28925.666192653
-28926.1874691656
-28926.0266965008
-28926.2409773313
-28927.0494539348
-28925.4861269909
-28926.4889055649
-28924.7587129224
-28926.2002759248
-28926.3931065765
-28926.7591363733
-28925.7025319409
-28927.6692420011
-28925.7072377392
-28925.7675427608
-28925.828626844
-28925.9474061064
-28925.9541643222
-28926.0367040264
-28926.9559304972
-28925.829615161
-28926.981179111
-28925.8292000515
-28926.2384601435
-28925.6131429989
-28925.9845897631
-28926.1946607225
-28926.2727924568
-28925.5639887884
-28925.7258724934
-28926.2417954411
-28926.5915004568
-28926.2262365241
-28926.2529180886
-28926.7805283197
-28926.4514986389
-28925.6806646119
-28925.6732044788
-28925.7727448945
-28926.2863216778
-28925.0070240199
-28925.8133747351
-28925.6124341427
-28925.0292076811
-28926.0116880698
-28925.7223971933
-28926.9500136569
-28926.1679500418
-28926.2861720153
-28926.3585184763
-28926.1705442378
-28925.7488949451
-28926.1400764832
-28924.533265226
-28926.2545028788
-28926.2018179931
-28926.7122540402
-28926.2387813738
-28926.0530104398
-28926.1007846256
-28925.7045532014
-28926.788151721
-28926.3643489205
-28926.0359882313
-28926.3235808461
-28926.2671014709
-28927.0123466059
-28927.0580520474
-28925.9150142359
-28925.588212486
-28926.1966324584
-28926.2115301392
-28925.5075295497
-28926.8420877855
-28925.4108583008
-28926.0415623443
-28926.212977648
-28926.613454454
-28925.5299898144
-28925.9461584651
-28925.6070333661
-28926.5849165298
-28925.7938063587
-28926.0688254159
-28926.323336488
-28926.9342249398
-28925.92274485
-28926.2804097356
-28926.325478567
-28926.1823722039
-28926.668425503
-28926.2918557902
-28926.0962552931
-28925.6482357339
-28926.4571769715
-28926.2606545532
-28926.222172642
-28926.1726022337
-28925.7168785915
-28924.6612895513
-28926.1583315028
-28926.2911676147
-28926.8337787937
-28926.7090761603
-28926.3668217538
-28925.7895962156
-28926.829892874
-28926.7280111921
-28925.8176778051
-28926.3412002081
-28925.8231840258
-28926.0044842678
-28925.8923194091
-28925.9289187017
-28926.140631323
-28926.5209194695
-28925.8549173812
-28926.1248034215
-28926.2416679559
-28926.3003930854
-28924.4453161736
-28925.4393198972
-28927.2106406205
-28925.8369011413
-28926.2941550149
-28926.8387228275
-28925.9682268861
-28926.2395314552
-28926.8227447193
-28926.2797588397
-28925.8926632248
-28925.8527966631
-28926.536905469
-28925.7271752378
-28926.763173044
-28926.3236555413
-28925.9635631294
-28925.8509137723
-28926.3075634174
-28926.4186849921
-28927.0356961382
-28926.2438162935
-28924.8292937737
-28926.2612677614
-28925.579723491
-28925.6611876657
-28925.8812390753
-28926.1902683992
-28926.4327423858
-28925.9965980046
-28926.6481644612
-28925.6756563593
-28926.1695246277
-28925.5092234575
-28925.5331823884
-28926.2148896549
-28925.9489606919
-28925.8205139101
-28927.1982001264
-28927.5799093867
-28926.0980108346
-28925.474708964
-28926.0371132854
-28926.6368778652
-28926.0426678062
-28926.6537418396
-28926.2811271634
-28925.9944800076
-28925.8174915433
-28926.9153818825
-28927.7759177822
-28925.7502364656
-28926.5810604066
-28927.2019468599
-28926.0735729836
-28926.0964234593
-28926.2872735316
-28926.2782188122
-28925.2562853385
-28926.1956678153
-28926.1158753711
-28926.137060375
-28926.2228614978
-28926.2861778658
-28926.3803139673
-28926.5076159668
-28925.8625542521
-28925.761222512
-28926.0470752318
-28926.0695395783
-28925.7209725421
-28926.2800302731
-28925.8184662545
-28925.951093247
-28925.1227070366
-28926.877925976
-28925.7030455555
-28926.457252211
-28925.6504159089
-28925.9856359042
-28925.8784867813
-28926.1849685768
-28926.7704753512
-28927.0310757837
-28926.3443061139
-28926.6799925121
-28926.7115870895
-28926.310718984
-28924.4247956714
-28926.1836832477
-28925.7344406735
-28925.814173797
-28926.3717734067
-28927.0348852394
-28926.4277745421
-28926.441234102
-28926.2632223541
-28926.4376208402
-28926.1934466872
-28926.865760997
-28926.242951108
-28926.0158412051
-28926.5125639462
-28926.3469751411
-28926.4202300537
-28926.1950024973
-28926.550728981
-28925.8051427515
-28927.0682299161
-28925.8959758009
-28926.123701225
-28926.2178913411
-28926.6107982162
-28926.3821741366
-28926.2697371642
-28926.6662579813
-28925.9616967015
-28926.04130302
-28925.8075225218
-28926.2558663045
-28926.6518634387
-28925.7779021293
-28926.288521445
-28925.6207712983
-28926.185701379
-28926.7717968714
-28927.7877159519
-28925.7842591135