-0.213948582536356 -0.0845902787176868 -0.0762365117549253 -0.150109409595577 0.700700325427904 -0.0550526895396707 0.0131123622336607 0.54133314946539 0.0806852892550534 0.351253133677395 -0.710606780787086 0.585438601624233 -0.105780014467155 0.477959860176592 -1.02376107040585 0.162980345367201 -1.29507427724933 1.10255711403466 -0.781294340567916 -0.46220877613262 -2.9286888751671 1.14643990877484 -0.142454725220971 -1.07536719793956 -1.00567234057611 -0.173636019800265 1.87701592327168 -0.117417592689908 -0.462441975068794 -0.493090537348472 0.647106479067781 0.0709629247870512 1.01261740084505 -1.08725957235387 1.01906778112149 0.127908459495533 0.961034156117649 -0.220714951227963 -0.727963775035404 -0.600010321257809 0.233630367061282 -0.07777428776072 -0.655081779840854 0.111688663587565 0.49045258686871 -0.87528405336349 -0.110702388924761 0.199254478455571 -0.381285917068278 0.549174238722825 -0.199483820738997 -0.508867332410765 0.0688178545285082 -0.338774805155536 1.20906037944719 0.07999674818441 0.795922110221432 0.270238743387829 0.366828611466232 -0.268535902644412 1.09117767443585 0.685780221496075 -0.249692554426942 -0.880682081660039 -0.779192721930336 0.907892566569798 0.0980196578072486 -0.54698417418222 -0.597558004330327 0.542960142704759 0.235587489775897 0.52505807486803 0.869310869587095 -0.15292116655919 0.407177683848339
0.0994905851654081 -0.0418251419439307 -0.385777117748636 -1.23093094296181 -0.700566885242816 -0.916403942074869 0.519195962690782 -0.208979671135589 -0.801542024606094 0.712542563356494 -0.403958150134151 -0.627143930222787 -0.999787602702739 -1.18266724780986 0.257332583521105 -2.59766979868817 -2.23076508260771 1.41260345575875 0.907684821541762 0.0650756158118485 0.569016717112259 0.652178491652017 1.08072665970862 2.67726571209695 -0.211926668055572 1.41821797082956 -0.769255670459352 2.27473272370835 0.721663289995779 1.64140323669783 0.232178465856681 -0.38935480594804 -0.278810025565588 -1.2424836748241 -0.481978749450388 -1.63588590927627 -0.247793795723916 0.0359900263359202 -0.39666162024476 0.558054310230623 -0.470106943850729 0.437963028745486 -0.55059837202764 -0.55211660765951 -0.464121418785539 -1.41856712645836 -1.053942977703 0.848104164565534 0.791925075313209 0.501682388340888 -0.233922701339595 0.5082955193633 0.811367747367748 -1.96202786268984 0.504248862189717 1.21114374326176 0.878209710138267 -0.0348854809888387 0.53859775422619 -0.562216409876469 0.0320012189535595 -0.309547547968658 0.499788257621161 0.138463603846961 -0.456826431557247 0.649853444265225 -0.23925953741254 1.11944179687641 -0.333885597911565 0.781787992119685 0.065078701134047 0.174763962174019 0.0611228038551375 0.913650806233028 -0.678649784785039
0.11497915971232 -0.070905846326378 -0.0770255829072049 1.08871327332976 0.782453136163656 -1.06790303221071 -0.442622636595849 0.413038767584854 -2.52840765776307 -0.380542868638794 1.05877073561318 -0.110090723798898 -0.40969633520309 1.38764782715576 0.144141110912662 -1.06684605224752 0.260750863406917 -0.755060874354366 -0.500643148980343 -1.81805130229443 2.52980453738846 1.1476840649514 0.336883245537641 -0.742542950864293 -0.138403697174273 -0.277596465500825 -0.965443595759746 0.80840918048952 0.348615183197633 0.657346920554957 -0.450814167033003 0.461069263800622 -1.06608706298668 -1.39749771827464 0.0872855647683047 -0.0311031330835978 0.0452169394808717 -0.440356467441013 0.1810513345943 0.992470503998691 -0.0589602501041361 -0.203278509933032 0.722721041289515 0.514390059146172 1.03240768586729 1.30823986129091 0.94828123392012 -0.0436447107105265 0.321771594519319 -0.711732666279374 -0.347803486349231 0.0144776173065198 -0.483773378529213 1.28706863747463 -0.166333833486843 -0.602977629882266 0.222253241454124 0.0978813325286802 -0.727297088330334 0.0375756248357924 -1.18793440702316 0.229199587273979 0.0579197251926747 -0.00295496733566271 0.174507109100989 -0.337693399724944 -0.662756261699567 -2.16061308333851 0.443269782926995 -0.449876486194826 -0.113435470172311 0.0796702182517299 0.594358010990062 0.462807071528956 1.60357641521304
0.00173137997375382 0.176469888239635 0.139065498785862 1.85972192101825 0.274767996375303 -0.265974313889064 0.380533869782381 0.0014642424933959 -0.265072885586721 -1.49924418818756 0.404817669476631 0.411057219402834 -0.25418941153133 -1.6357169878859 -0.5298431524878 -1.03275632727573 0.715330151962885 0.595240927359214 -0.389303898131764 -1.64739390396669 -0.920453170350284 -0.724552694234722 -0.957503776191957 0.287949007027881 -0.356216131543948 -0.367065152834788 0.494907277903052 -0.342004880387236 0.157801632056932 0.597197535853462 0.0574960076107402 -0.962179067763495 0.210365237912922 -0.0944980196277853 -0.540288510790997 0.6576112298233 0.085842148199749 0.867604943521479 -0.103443911342485 0.879641299638395 -0.530436305680472 -1.02800827352234 -0.159403428498347 0.782285500324201 0.188565636808873 -0.227780853283012 -0.0217710618737123 0.630322840528028 -0.605511964958192 0.276111911302955 0.00297785014196863 -0.416411281858054 0.723437864480312 0.822177945020923 1.0688756800338 0.619031075501695 0.0192914912668097 0.953254773304185 -0.288741934832909 -0.536793097850221 0.552262132023209 0.274228064990556 -0.092389973235625 0.322400486027457 1.35000535367234 -0.996842405554038 0.59857950308823 0.0395564016872625 0.919776970568435 -0.578627495760747 -0.0989249427623403 -1.01532965616776 -0.079838368311551 0.387108691387494 -0.222355571307042
0.360500872747186 -0.0242681159730733 -0.719451885309967 0.697647913332803 -0.514752584504502 0.798597084567577 -0.728885772152404 0.940713195677256 -2.06720983887084 1.71271531711369 -0.445660393410506 0.618284170419463 1.23342028375567 -0.157730155425999 0.175933042177087 -0.30695716287279 0.793354093711505 -0.898599061887395 1.28586330493573 -1.01078394812856 0.412017783047317 -0.631817679133226 0.728266136610862 -1.35208383239343 -0.758183734639666 -0.111589933277211 0.466469348978636 0.431242168556308 0.0446618385953156 1.2693995114639 0.0884222488882877 0.36990004971489 0.92459598673239 -0.525937648804801 0.657787607408983 -0.22062187734164 0.0344201115572239 0.196466632738997 -1.42988743071503 -1.22296129861276 -0.21700048041109 -0.0406087536671518 1.33828035798729 -0.232120616065458 0.671762831417506 -0.157003047827874 0.637847170039745 0.206636368925789 -0.648112036994326 -0.799412123848361 0.467542783993549 0.393946536710034 -0.1363218760208 -0.995556083307425 -1.06064943972192 0.279763390124941 0.517345797812384 -0.512396169675358 -0.665933886453892 0.522124190567391 -0.309731895970021 0.623746219151632 0.7108960297432 0.506922550984945 0.439187644548128 0.145325874636906 0.268200116745136 -1.06393145121062 -0.379495915972752 -0.230567156338487 -0.373240168105005 0.242660333805893 -1.25837874057067 0.0410514974026439 -0.0460772301539011
0.0245961885668526 -0.415656149249959 -0.419315598487624 0.375055880218853 0.265551881858046 1.09108485765971 0.0953472545629366 -0.361282744814336 -0.474276756802071 -0.0683432291302977 -0.374448328855922 -0.0241315904657874 -0.0619650968153421 0.83626886861189 -0.594586324832755 -0.0768633463815977 -0.181994671856508 1.12432714746764 0.610731815897775 0.488524517604799 -1.24309225462776 -0.587549219118225 -0.507512875965601 -1.45161092720485 1.38468077564149 0.0308781616732867 -1.27346776589287 -0.450085259663595 -0.29001128780743 -1.12579010441012 0.231741635655402 0.0643767903338765 0.624563058203698 0.737535472936044 0.364378865640582 -0.0435963739960825 0.883527520057654 0.00140793536327234 -1.04718637919835 -1.92297256874966 -0.337059366013142 1.32834536339777 -0.675511754998929 -0.648059586516951 -0.440745732258396 0.201931766793364 0.290825298647481 1.4768120960328 -0.273542095021745 0.00996327670967246 0.866586787195957 0.483760780130235 0.953610870907934 -1.2600568987365 -0.40745227752401 -1.14494069929653 0.187831844345984 -1.19249554167335 -0.199978500731498 0.556861318980516 -0.486725260542677 -0.196518054775639 1.12121791402205 -0.084611104642527 0.2073591056508 0.10965312226707 0.287465639883441 0.801437894981893 0.0712354615812565 0.630341609571402 0.126952523834349 0.0752854611872218 0.341400414346503 0.215926274065627 0.764052274571495
-0.212800071347945 0.364624920085917 0.0727297859660883 -0.0168772266464432 0.091242490487947 0.0331618143205813 -0.534886111621333 -0.467295443997299 -0.702592399266165 -1.49085725401116 -0.107747164478915 0.148134032057954 1.18232940502912 0.0771207136749935 0.923623853129663 0.734209752716188 0.439186101887029 -0.536479680536885 1.70453149998203 -0.66679083469454 -1.44457896369399 1.64212803030431 1.92865650356994 -0.578367557365519 0.566650789206337 0.763860470374818 0.18379958534266 -0.0062089538144017 -0.570617485112941 -0.208630515506786 -0.477745430283793 -0.382330812852854 1.12822545206551 0.667434381483121 -1.37973628970813 -0.246388174352293 -0.449098213670242 0.113447040130556 -1.63372361263545 1.12721526615566 -0.165800844077044 0.0350397470987663 0.0667231778658749 0.676795763253893 -0.392690039244674 -0.884229687968007 -0.318368227024133 -0.202852992579815 -0.422930567663594 -0.36066285216261 0.0883026926530939 0.0107790873210061 -0.0950991432361364 0.0455000177925888 -0.0538707540274422 2.0162842819921 1.00942512081028 -0.414025556468024 1.5912631514288 2.16930289331073 -0.698848874998589 -0.335620063207517 0.287561284871596 -0.772592960637452 -1.83818482941126 0.0742639624293181 -0.610867570074511 -0.669569938664885 -0.848796048068559 -0.931610466750796 0.931621522488675 0.933857095531708 0.2754480528099 -1.6362790307464 -0.337826839910031
0.192318417043044 -0.144319288269629 -0.132816692893062 1.08574030828127 0.967197344319439 0.202158795085141 -0.398686362937559 -0.394680586283106 -0.0812617302858161 1.06298811394842 -0.630389174955296 -0.98263218283806 0.584084145179069 0.673467214822022 -0.194493569193023 1.66289764801441 -0.534808721456186 0.252895633089404 -2.14374691242994 0.907123807121992 -0.530638908504844 0.374597195652002 0.200036607632904 -0.569041656800031 0.80673410764589 -0.443509923838115 -0.498456169761936 -1.49044562060784 -0.133773142774613 -1.14040630410539 0.0844090160385219 0.891774329184199 0.160445753181091 0.893366869659018 -0.102036233089396 1.85295246700445 -0.571667265990998 -0.589516883350352 1.01631413105928 0.429529557625929 0.851168917949429 -0.146036270073123 -0.49301674672589 0.570662736505187 -0.131365048798644 0.245445094200269 0.336973748322132 0.328699685516166 0.175673103781859 -0.45470424410501 0.300525294529543 -0.646389655876984 -1.00185091192302 1.27724728558609 0.11357225278978 -1.02094699945059 -0.209578480752291 0.17229030510133 0.820597231614531 -0.0525605205337907 -0.88415949688799 -0.875471229576869 -0.298656617717954 -0.284617887494178 -0.0337971335832997 -0.245823046169592 -0.756562654934511 -0.515355507884135 0.391801209341308 -0.633661673367227 0.365876275347613 -0.531014032262151 0.419308142292311 0.290281767720169 -0.0382590237027716
0.0406545192797636 0.165148041321867 0.0949932138406528 1.57192769432067 0.189477606628728 -0.370642583924008 0.176285026017905 0.278593538791323 -0.592592435361941 -1.35027300537306 0.445791005383578 0.440380635798234 -0.220095572796603 -1.74743804735655 -0.646288868685165 -1.47091681664192 0.959482239051778 0.828272227693611 -1.06778321886533 -1.18144134645631 0.233378141971551 -0.834686355434217 -0.702158911497269 0.260883532261454 0.434398967385793 -0.687384846149505 0.524985055575998 -0.151973201313685 -0.034809633484791 0.345643503700061 0.0496790867105268 -1.08315377983815 -0.553399844583924 -0.0903338631004736 -0.637446078153933 0.511064338926317 -0.0815741191584194 0.976392632911856 0.100804161091441 0.467412172020477 -0.334859531285574 -1.01552480279682 0.0999179022899074 0.728662086293009 0.131977999475423 0.426302567716427 -0.282135231565077 0.339663377948719 -0.397666149730571 0.386851066983915 0.08812631506741 -0.381592649516851 0.877452777758889 0.788925113695484 1.26710377463799 0.331982211225242 0.250276451653017 0.738774229798762 -0.0609034888688572 -0.361973856986811 0.510931670071779 0.0621011081022616 -0.128320607119223 0.231802313658641 1.00283744369601 -0.923107575881772 0.543133949188611 0.446717373373693 0.768129270746697 -0.366430604902619 -0.481223102621927 -0.795036879860631 -0.144998316263493 0.381464608645611 -0.320615627135595
0.00775212913404388 0.121896709191656 0.300729182904831 -0.282993208246458 -0.174692485543086 0.431012054942333 0.979774660261834 0.544331568422015 0.457503145559462 -0.24160206829179 -1.49451181815534 1.64361875514657 0.824249995987433 -0.0742565062340049 -0.249970490534994 -2.61214304512157 0.167963140717862 -1.6297453467706 0.806873461365191 -1.39298234923706 1.49221582421925 1.30470716737357 2.39769206928722 0.429669168455413 0.685250574518657 1.68368963431045 0.696434610378223 1.12049851972942 0.541580232351457 1.45625562266459 -0.000222657418662134 0.676432466565013 -1.19716826214306 -1.08739558364079 -0.398030731970367 -0.269421133005213 0.66204895158555 -0.0988421532833458 0.253545607632566 1.66058956989971 -0.884703284925485 -0.384618836373263 1.42174886497562 -0.990976179613859 -0.108082950378191 -2.6147509137099 0.171148992998049 -0.113287631816964 -0.47399496404127 -0.374862533361077 -0.344636660222601 0.0868019405136818 -1.05439343474399 0.211443043800949 0.637600601374044 1.33813894738652 -1.22643074342503 -0.538534762231303 -0.724776122983934 -0.334354566885745 -1.24154599398592 -0.333270076132954 0.348786675689836 0.267021009444923 0.395211775921624 -0.410103083512932 -1.12264281865741 0.195374685790893 -0.596823440536888 0.0124747289792934 -0.153805111369075 -0.355382580329972 -0.261566416908067 -0.083357178278999 -0.501187451238204
-0.012319434428633 -0.128329863085819 0.548591369937482 -0.426608785944633 -0.769843424338176 0.0695084524806173 1.1078710673013 0.0135792743263748 -0.156681145878492 -0.464798647008121 1.78632801944893 -0.784307157694802 -2.01806425579048 -1.36168046998184 -0.210271135585866 -0.585436287632584 -0.739430632096504 0.475413698032237 0.631257693154189 -0.46096590550697 -1.44810651540766 1.4776744435873 0.858030674519007 2.44882331431253 -2.28010426965603 -0.901926067658166 -0.335530845973942 0.953956684104355 0.450057234653625 1.23854706080893 -0.970747778839422 -0.789547320338859 -1.06075176957483 -1.39320937752884 -0.898101810793061 -1.72941102397078 -0.325771971859924 0.958878287231411 0.978982246677173 0.329900647181952 0.709748289885339 -0.200017838589529 -0.218901038885398 0.610729759016309 0.630359093063861 -0.522607814822014 0.701350557081248 0.417308596397466 1.50502916730984 0.471421033997128 -0.157785948335756 0.0268507877634442 0.99630633082204 -1.65177583281918 0.52323336389777 0.0410265577148723 1.54782927106851 1.04834106103116 -0.855856550809761 -0.0739703426000892 1.78565799031147 -0.0343154677126563 -0.525133665261895 0.329023387236831 0.027763528913849 -0.0663172008865822 0.510975635913108 -1.27018781128563 0.34431244428157 0.0395898260110801 -0.659338753144305 -0.279068164189534 -1.05079234951791 1.24430478625179 -0.0205467031812538
-0.0179056673792937 0.150070843068095 0.258498321091791 -0.535569510488312 -0.316992944654129 0.154957222100051 0.684922244814694 1.12617859789695 0.776790284378398 0.0233623167976152 -1.10012947968476 1.37622673570728 1.02106964100798 0.162773114559532 -0.217705219423276 -2.57447357506891 -0.58397538757157 0.348599499476457 0.644414021229179 -1.19276756424719 1.49014994389714 2.35584018788424 1.91796406238068 1.46188710700749 0.649670381814778 2.12997197725414 -0.385811313403004 0.698930378926668 0.779705142525479 1.57413935611666 0.628152830581713 0.565533645460278 -0.716588706309711 -1.50727990985368 -1.08758096008289 -0.986385220182414 0.571580876969439 -0.321211094319915 1.04303482107002 2.13935855582287 -0.849709817659697 -0.60114366294541 0.519031412173526 -0.85974199989847 -0.0443160253988946 -2.52376244808297 -0.0395193778208799 -0.0552856313656613 -0.287745375762777 -0.684445819645201 -0.32439514682882 0.418442709415617 -0.0805155965341331 -1.76755126276891 0.568863993663431 0.977215385498136 -1.56304942258415 -0.496168917572076 0.138616070185606 -0.556787785468117 -1.29890753297084 -0.983542352886632 0.634016228309877 0.172002084585949 -0.169754684474487 -0.362429199121281 -1.38226214014801 0.895089764996725 -0.432264438644762 -0.292099279605299 -0.435500170300492 -0.200346425403675 -0.179467535865711 -0.137730582714622 -0.904239545086713
-0.0352894010866657 -0.319488456092391 -0.470009499091291 0.282556120934996 -0.181607206810406 2.00203292164681 -0.543580035356485 0.372239752382125 0.95044610166277 -0.225043144052164 0.806019855556925 0.22460502829997 -0.112469250103798 0.211472868582202 -0.450342626956991 0.281953711775729 1.04844904730811 -1.60980568073192 0.787545974672731 0.619210281299395 -2.16137567214192 -1.36166915713378 -0.647446121619805 -1.60007200341585 0.432027897276206 -0.176940656985097 0.0433246085324267 -0.0178958971923316 -0.318802229013396 -0.493303681690355 0.667896665592537 -0.881068261155225 -1.61591436157486 0.954805919039507 0.119049728132942 -0.481999832485412 0.753295298726245 -0.205310965931328 -1.09992122043636 -1.08266475626968 -0.00667303769510049 0.381312142306966 0.243461489136784 -0.62634226067153 -0.444800616957843 -0.766048735144141 0.110836600440398 2.24321692878069 0.0140405299950583 0.0304732131347268 0.439920151460101 0.0753343121220322 -0.747761259142776 0.184705641628301 -0.191658929423104 -0.202137197829751 0.810402298629784 -1.05701390173129 0.709765516267614 0.610763697560493 -0.192815925247561 -0.1381674129159 0.675926216614268 -0.140509429574784 0.126841966455567 0.32419665776738 0.294296286120851 -0.176386327430091 0.107064022722119 -0.10720337644142 0.269316232050462 0.555955776915241 1.04664747625434 0.204456845902695 0.87367300095548
0.19334325823333 -0.106596596409039 -0.17856790733465 1.68246296162634 0.652479310566376 -1.49349186205854 -0.357523022605218 0.587280538976768 -3.13794571108019 -0.545874486631474 0.859827103369114 -0.260442845407428 -0.450415132028657 0.728410375423644 0.148979410340357 -1.44765374437503 -0.120942059081387 -0.389564350747358 1.20918173545367 -1.22025264283262 3.59005725609768 -0.110768980462213 0.326054793061458 -0.883267838772609 -0.808459316975246 -0.209960546484545 -0.8990492618182 0.991764736545772 0.474446963743358 0.522014661629342 -0.441499836425759 0.254042601616716 -1.37767658003041 -0.890873415102222 0.541448849047835 0.390395845079868 -0.229817165934056 -0.530636080292828 -0.0160223352872612 1.63530921113533 0.197840629558085 -0.543241678355377 1.26459746457203 0.376514466288218 0.701184978123259 -0.246008422611688 0.969100216785396 0.132298101653522 0.246717532496988 -0.605681657679113 -0.565271907293767 -0.408131819738241 -0.63668708889309 1.85684151563572 -0.319485884990559 -0.748165179240603 -0.0702599855461478 0.111723116352115 -0.0803122223792119 -0.0346507393915656 -0.93680075001931 -0.156664690826766 0.447962043770625 0.184005530599414 -0.243336019367376 0.0612886399233097 -0.681595496154106 -1.55655096270345 0.467319098134154 -0.372190387226948 -0.0713071953223729 -0.0507188402914386 0.727992828486107 0.319647350185616 1.58183106435765
0.36417137772273 -0.112788838061531 -0.397090994250725 0.670769357669572 -0.660147364670509 -0.326664915526221 3.64053209882525 0.95976968823661 0.149439894678491 -0.818020216248191 -0.309388653875432 -0.477212955094359 -0.554343181846132 -1.04359583548979 -0.0602676553857723 0.587414750492405 -1.05900804831229 1.69149112859967 -0.636946770178135 1.22442194156359 -1.40326110014153 -0.691163851622364 1.15074136213999 1.56504896847899 1.75437488009963 0.451250740124098 0.388216836277141 -0.150975870913004 -0.531146958226872 -0.86193720664274 -0.365248155170024 -0.0209706778733714 3.07123153207073 0.150253391298176 0.464213978451495 -0.2722884257684 -0.789528294185301 -0.284366176624813 -0.0167702688102267 -1.6075683079176 -0.0448055631877315 -0.597318891859939 -1.58574608111743 -1.1016528575203 -0.109090050965835 0.0220405133457191 -0.25690166685404 0.508864761308933 -1.00274282714858 -0.0334274091398399 0.602327141118738 0.673589342159048 0.776457326691137 -0.85186131567282 0.744448908652448 1.0586570929122 0.0242521751417141 0.00930250353881602 0.833471509818537 -0.147359873296301 -0.496222653600368 -0.392757916333042 -0.0715486217844095 0.000845635392586326 -0.453665518964831 -0.426977224837177 -0.058333672587647 0.821431811269239 -0.445417938507736 0.321899378280375 -0.279247369987233 -0.279821239916164 -0.182802769162345 -1.15654459608528 -1.25598427343441
-0.117716611832985 -0.339191066542157 -0.109050970217986 -0.167755395689826 -0.219490592535504 0.090859139204777 -0.453773762351963 -1.05125720472916 0.193942839180581 1.13315553982861 -0.498368752299644 1.05357196770862 -0.47708337156202 0.00996661914205423 -0.0427291413481063 1.35545840354809 0.0450163935379658 -0.811100866997573 1.01893948314006 -2.20183633034354 -0.502537022589887 0.446551280195337 1.21161656888869 -1.0771476859583 -1.08002474890845 1.5819405932957 -0.284779352689236 0.20061973352843 0.46649685976824 0.397922488583234 -0.57890620319935 0.718751002950529 -0.266837175663926 -0.0925797205508359 -0.165380983147857 -0.335607721918723 0.441906841845785 -0.351285529560479 -0.126226958897323 1.86307258092588 -0.331406284414846 -0.0332397187060947 0.343947347821408 -0.113844532473803 -0.719352640779247 -1.47769218418994 1.42658536463203 -0.490605824537905 -0.264856655922639 -0.356911100369172 0.296306630643391 -0.38772138495409 -0.387864852436323 0.907956844115601 -0.00917446266757613 1.25383920317587 0.400436254844504 -0.476846058862915 0.523517213540037 0.275658111829585 -0.643324645382907 0.0325087544552212 -0.17621663470917 0.012518951930806 -0.430256408113871 -0.0527104157706036 -0.665867809136807 -1.31695255406944 0.965357206738186 -0.689739461207366 0.472173852613575 -0.63129703101222 0.766892570765444 0.0216337650358768 1.07742767894782
0.0251816284540278 0.30705717873406 0.434614939939691 -0.242913330226174 0.944153587038824 0.597536407074937 -1.07909632403687 0.203276453051566 0.866074880821181 0.591205325923509 -1.10604352811902 -0.526219184455419 0.188027248085225 -0.033392442154923 0.320010132654129 -1.35891833528358 1.88344882005566 -0.558294451141743 -0.232457430405466 -0.377031514866659 -2.18836864183668 0.849584347890289 -0.471653975823119 -0.0362106268731166 -1.32508237806262 0.408040802733384 -0.258841306076196 0.0517256837688993 -0.0327226701276541 0.267353452911817 0.283277057888724 0.0557047209642979 -1.04678940107547 -1.07747498722153 -0.519785002120523 -0.798623309806264 0.237771897892471 0.227494689649096 0.577374597837952 0.853332500141163 0.145500452451307 -1.47329611427737 -0.218355965296987 -0.218616160802398 0.717498876358284 2.03679627529862 0.396077980128867 1.87064061916874 1.01997512295804 -0.0771284269804899 -0.292330164549824 0.704026302757942 -0.972235932579857 -0.449292074748384 -1.11229361956274 -1.03376831295685 1.77550470917641 1.09935274982128 -0.0328052024964654 -0.152797239450882 0.839232577693782 0.590314439138677 -0.920877402152585 0.209188958824724 0.375327388572326 -0.310752623397375 -0.617695645210089 -0.286654971475772 0.768108959042223 -0.760209762883382 -0.590760268196368 1.02189007960261 -0.964180156319439 0.216201896182031 -0.203914857636483
0.0158991795095024 0.016132121335493 -0.151233495316583 0.535418329700583 0.22184957846648 0.989379268265925 -1.02772365254952 0.97957745675131 0.645096648765608 -1.84036718064637 3.53191898724928 0.105915768643892 0.458995413062829 0.0660863159420573 -0.239585038904487 -1.98447409590467 -0.210485565478665 -1.52208791374563 3.03788125598585 -0.954134090130772 -0.0310113447481909 -0.73797538845952 0.492645222511147 0.338453674536704 -1.09286971655157 -0.281906146391835 0.634666717073405 1.40407202565939 0.832103683643846 1.12616805637944 0.278145652852167 -0.661819609302124 -0.873678914489694 -0.521268013657293 -1.28445819778448 -0.993432353194089 0.424404323233768 0.170549154940614 -0.540183609836246 -0.681611179875282 0.700778744033783 -0.776537030847933 0.686352805874089 -0.00989231429910578 -0.336995602687705 -0.794029007942438 -0.505045389537309 0.431895228421668 -0.220573283517012 -0.773641713074776 0.0861108283412062 0.361481233875776 0.55507774563957 -0.727730061878864 -0.386560018256519 1.30226899150616 -0.358565347287962 0.66901329511823 -1.00936007193393 0.513364960845703 1.21842073277723 0.466989482879276 0.18522731819004 0.171105284266903 -0.379989824634703 0.0438568266116769 0.978674485787868 -2.3784190899536 0.69306903807997 -0.566917412466328 -0.77426391971815 0.673653362594668 -0.385495324987835 -0.112561809769755 0.0841827590772947
-0.00968559771180283 -0.226859627496561 -0.251276096045348 -0.860207883550452 -0.545597836074337 1.23582477818907 1.16234911558149 -0.110298211716751 1.14984764714314 -0.242265926784845 -0.617169340665053 -0.237117552476195 0.204994977516159 -0.315495020726732 -1.30447602531886 -1.3208387744887 0.116152096368136 0.258432757995072 0.938332612490891 3.19182777795569 1.82931735630244 -0.816049723804049 0.0576032225571399 1.49456632551418 2.41707971976255 -1.21429488566722 -0.507934279555886 -0.612500476848095 0.19168746865344 -0.291099635212969 -0.341508914843819 -0.426993936999086 -0.32630624682064 -0.0963098750888847 1.0411895412851 0.315663427896736 -0.624694184397137 -0.163731107102182 0.433608353572414 -1.44684436151827 -0.111371132511297 0.304155690316506 -0.422358240395762 -1.03827519735839 -0.437020977034195 1.96120870964612 -0.486967458335263 -0.346107330470577 0.420000282905519 -0.219634831348286 0.789540121253729 0.687431897313033 0.416855311144462 -0.61464091912334 -0.241808013548543 -0.880641715361275 -1.10315798053283 -0.598189209830114 -0.163070591041509 -1.50915784263187 0.155154425610575 -0.20104550799183 0.432788172087966 0.661291247875622 1.19850934885869 -0.0558836696518139 -0.0107238086316154 1.82812822170508 0.963173312841978 0.141091527029577 -0.545377749757507 -1.09164072987582 -1.10494901006908 -0.775128581264295 -1.13109917258327
0.176572475202737 -0.0993664009469164 -0.159439938144363 1.58063087402241 0.691075148609156 -1.43204869891512 -0.423136255810164 0.565424373632413 -3.10461291848777 -0.49922878586249 0.936885082159403 -0.234524339168313 -0.439192272531426 0.858851113113639 0.155401508496642 -1.45563881533506 -0.0459998399887541 -0.52897797672129 0.914838912389654 -1.37658360464157 3.46871307668975 0.150100667849348 0.3375730721592 -0.888220552231834 -0.691297548917635 -0.193155053579218 -0.920645488767328 1.00766005940253 0.484166499999345 0.603946421052611 -0.446479289344038 0.299193978000868 -1.38272879513054 -1.00771790919375 0.451546931055159 0.314811107639387 -0.18213094025361 -0.509305962383326 0.0474031473687286 1.57532077740852 0.154834837652842 -0.482128130466835 1.17961149328238 0.414933412524948 0.785103427932211 0.0341907692737982 0.985775354827834 0.097114372852157 0.291893077238363 -0.628758839283545 -0.545412973852608 -0.343567081860436 -0.641343868531437 1.80289182878203 -0.302727700358943 -0.72720478577456 -0.0180784454224126 0.114498106559529 -0.21962788937334 -0.0177385457602055 -1.00974110922545 -0.0579089265649797 0.3617841096716 0.149386415760383 -0.158930088651053 -0.0112547411599495 -0.708691309922152 -1.78752563868233 0.467524529170541 -0.392103570916766 -0.0828298452932299 -0.0278452899521106 0.726949218252447 0.348280682849273 1.6489635616352
-0.219905054150843 0.151229638663834 -0.156865493879855 -1.91965661871676 -0.107969307677211 -0.202323088492214 -0.841499518179168 -0.370336108585619 0.950507293886375 -0.0921086946951904 0.0294424584102274 -0.348046455472367 0.818365772334429 -0.776613135462164 1.0360771624021 -0.391956503891969 0.353280447472026 -1.69542542862319 0.94150098127862 -0.44759669020028 0.927805750259616 -0.096711738305246 -0.62419744752317 0.469792240986476 0.265749599588937 1.14759664748911 1.36144958503731 0.657809975994923 0.216859069810323 0.188808091711642 -0.31177823591821 0.377277826422176 -1.40321199209654 -0.333742130429332 1.12030877241421 1.03932909199937 -0.528914470506037 -0.476360891947192 -0.795167748943887 3.17452426262548 0.637053985124534 0.252041513060772 0.968218843077343 0.971241944611557 -0.246613402872787 -2.08004735031865 -0.699735390910307 -0.977335198843513 -0.650472051366035 0.301839384675943 -0.149090739049689 -0.304086013456855 -1.39100954280127 1.51718405122122 0.699864460222279 1.11804594569175 -0.146760549459233 0.0321732256661287 0.33137543119286 -0.947214740880154 -0.305228096890686 -0.76248570222518 -0.546560199490102 0.0792567850771241 -0.148249988750583 0.261870064034441 -0.75060026978581 -0.820494130431063 -0.1946838307286 0.198174872796261 0.508831594095298 -0.550800717741828 0.991067710839083 -0.639334809559813 0.355235256194992