9.549570428 0.086861629 -0.065441307 0.051907634 8.062643752 0.144499998 -0.031109194 0.114947986 5.224063266
8.551474681 -0.342942870 -0.192208125 -0.204939203 8.901744314 0.053639320 -0.091371032 0.042669425 5.289679811
8.546728115 -0.321970818 -0.170305487 -0.192406516 8.889594479 0.058339269 -0.080959055 0.046408177 5.325448981
10.391812231 0.005886761 -0.003690530 0.003517869 6.202175222 0.002337208 -0.001754388 0.001859220 4.955857237
9.232184901 -0.078668146 -0.009639317 -0.047011291 8.731432783 0.304440724 -0.004582295 0.242178883 5.084706634
9.499782443 0.229685610 0.032242100 0.137257806 7.304409225 -0.136116865 0.015327104 -0.108279306 5.321370514
9.482851910 0.067905110 -0.077218684 0.040579410 8.228274355 0.205575878 -0.036707870 0.163533104 5.157414037
9.109660864 0.111545308 0.127478635 0.066658352 8.924590065 0.127457386 0.060600219 0.101390796 5.316045496
9.559610931 0.164511757 -0.041756593 0.098310568 6.807271181 -0.220760557 -0.019850061 -0.175612331 5.247890747
9.899916244 0.054740175 0.084242059 0.032712177 6.372509216 -0.102605636 0.040046610 -0.081621532 5.285103704
9.198378752 -0.133038538 -0.006606126 -0.079502490 8.838673100 0.335869735 -0.003140390 0.267180278 5.173721064
9.186553250 -0.156547661 -0.003487388 -0.093551304 8.894255435 0.349234762 -0.001657819 0.277811993 5.255964352
10.370563151 0.013074736 -0.002514239 0.007813331 6.177530785 0.006596248 -0.001195208 0.005247235 4.980208202
9.504789020 0.192656332 -0.051211479 0.115129482 6.913762879 -0.222982004 -0.024344682 -0.177379465 5.260867516
8.633390094 -0.397838308 -0.245323290 -0.237744163 8.975533920 0.029993471 -0.116620680 0.023859440 5.155917274
8.590769961 0.342501556 0.204465523 0.204675478 9.383836000 -0.069383038 0.097197899 -0.055193361 5.315393548
8.468680403 0.007301847 0.226092887 0.004363510 9.016494275 -0.044512616 0.107479018 -0.035409243 5.481136905
8.983021244 0.210007311 -0.295891597 0.125498253 9.323040621 -0.184785002 -0.140659614 -0.146994216 5.244756371
8.834968678 -0.284774695 -0.156537388 -0.170178487 8.944916750 0.211414174 -0.074414038 0.168177397 5.008011756
10.401501100 0.001274707 -0.001181863 0.000761752 6.213437436 0.000232026 -0.000561829 0.000184574 4.948740576
9.560189529 0.174900056 0.044544318 0.104518511 7.535893307 -0.079278096 0.021175277 -0.063064758 5.358067541
9.480454396 0.213528358 -0.049328355 0.127602395 6.991892695 -0.213783622 -0.023449491 -0.170062264 5.270587540
9.193430761 -0.142993806 -0.005080228 -0.085451657 8.860481872 0.341439930 -0.002415016 0.271611299 5.203513548
8.554711129 0.308249433 0.261440982 0.184206755 9.334273960 -0.042942602 0.124282636 -0.034160316 5.352074908
9.573917799 0.159972545 0.040922202 0.095597980 7.595383168 -0.060026288 0.019453412 -0.047750180 5.366876151
8.623099621 0.360440358 0.153611966 0.215395525 9.422355572 -0.089129082 0.073023364 -0.070901097 5.309343007
8.974987339 0.067266647 -0.149101792 0.040197870 9.145867295 -0.083218351 -0.070879338 -0.066199183 5.355298106
10.402383531 0.000937495 -0.000923529 0.000560238 6.214429003 0.000123642 -0.000439023 0.000098356 4.948319735
10.393344347 0.005165679 -0.003421337 0.003086958 6.203983463 0.001960345 -0.001626420 0.001559431 4.954480076
9.508354011 0.076041652 -0.079694832 0.045441725 8.171061165 0.187348743 -0.037884970 0.149033640 5.177443856
8.465586911 0.087890149 0.275535395 0.052522267 9.059203636 -0.030680135 0.130982775 -0.024405673 5.476561947
9.560102608 0.088756421 -0.057301424 0.053039943 8.029376099 0.130551483 -0.027239693 0.103852112 5.241007132
8.975651567 0.071108015 -0.151921972 0.042493433 9.148333156 -0.087061906 -0.072219983 -0.069256685 5.352794432
8.698124450 -0.391406229 -0.212990947 -0.233900418 8.977336987 0.064897497 -0.101250677 0.051625167 5.065848809
8.995038892 -0.053415405 -0.071526382 -0.031920508 8.968940775 0.206682986 -0.034001889 0.164413794 5.174043004
8.540951865 -0.261742797 -0.090507740 -0.156414858 8.887565494 0.045481647 -0.043025161 0.036180096 5.413756524
9.009817920 -0.030148100 -0.049085047 -0.018016201 8.967884234 0.196086353 -0.023333828 0.155984302 5.190288500
8.797192669 -0.330157336 -0.162987213 -0.197298697 8.948058409 0.170315027 -0.077480127 0.135483527 5.010777631
8.991401835 -0.059280740 -0.076532572 -0.035425573 8.968930124 0.209232861 -0.036381709 0.166442189 5.170113564
9.046915369 -0.098961366 -0.118043290 -0.059138315 9.106908188 0.247277217 -0.056114887 0.196706010 5.501102590
8.800474370 0.374968513 -0.120106604 0.224077404 9.592848576 -0.162897656 -0.057095736 -0.129583099 5.370016691
9.591786507 0.152082698 -0.030088967 0.090883088 6.757529306 -0.213927196 -0.014303557 -0.170176475 5.243742544
8.727408719 0.387552630 -0.002820247 0.231597546 9.536440990 -0.129490744 -0.001340676 -0.103008308 5.348814856
8.983378034 -0.032312949 -0.102519663 -0.019309892 9.134904616 0.084264907 -0.048735335 0.067031706 5.445475147
9.185681689 -0.158084790 -0.003550159 -0.094469877 8.898626372 0.350240761 -0.001687659 0.278612253 5.263131013
9.188346518 -0.153203715 -0.003626639 -0.091552996 8.885248174 0.347182562 -0.001724015 0.276179494 5.241388963
8.972366910 0.052632969 -0.138609109 0.031452932 9.137279712 -0.067183565 -0.065891374 -0.053443707 5.364997458
8.474020620 0.135027760 0.310442376 0.080691228 9.101343748 -0.017402426 0.147576698 -0.013843417 5.487243984
9.177670701 -0.168457371 -0.009086182 -0.100668427 8.935996202 0.359128211 -0.004319348 0.285682111 5.324303265
10.083780491 0.018947389 0.098124035 0.011322769 6.204472984 -0.025126093 0.046645762 -0.019987501 5.281982204
8.984463354 0.205276579 -0.294154364 0.122671215 9.316563498 -0.183028965 -0.139833776 -0.145597309 5.248311158
10.225197971 0.013564249 0.054957578 0.008105859 6.126141696 0.012809412 0.026125486 0.010189731 5.181221813
9.044253938 -0.096169529 -0.118678329 -0.057469941 9.109552164 0.242327081 -0.056416769 0.192768237 5.500572964
8.994438692 -0.048626710 -0.111359524 -0.029058832 9.135706608 0.127483727 -0.052937589 0.101411750 5.463285007
9.464129221 0.061864651 -0.073554474 0.036969692 8.267458944 0.216040038 -0.034965995 0.171857215 5.144358852
9.683232269 0.121358835 0.014081248 0.072522817 6.624959590 -0.185824687 0.006693880 -0.147821272 5.247698719
9.596129378 0.133277536 0.027927789 0.079645312 7.707456746 -0.017596675 0.013276186 -0.013997941 5.371227695
8.495363419 -0.073858508 0.161780871 -0.044137100 8.984639800 -0.033943952 0.076906661 -0.027002000 5.490032127
8.875593687 0.320863968 -0.244639136 0.191745074 9.518960952 -0.191136529 -0.116295450 -0.152046777 5.237475654
8.914322092 -0.174847862 -0.138417224 -0.104487320 8.957941583 0.239995079 -0.065800156 0.190913158 5.068903809
10.172872694 0.014458918 0.073707891 0.008640504 6.151939559 0.003412098 0.035038925 0.002714283 5.232035481
9.428039138 0.050256663 -0.067663419 0.030032875 8.339344484 0.232569745 -0.032165531 0.185006396 5.120639377
9.161687678 0.184782610 0.199509579 0.110424225 8.895503074 0.090144657 0.094841965 0.071708975 5.361449697
8.643069149 0.367865578 0.122350571 0.219832762 9.445100078 -0.098726116 0.058162463 -0.078535421 5.313167150
9.525611248 0.209666935 0.045395849 0.125294847 7.398845838 -0.115586271 0.021580074 -0.091947468 5.334690338
8.986780246 0.195856944 -0.289805186 0.117042136 9.303594969 -0.179149440 -0.137766283 -0.142511194 5.255556338
9.508202562 0.223946645 0.038362659 0.133828258 7.335039138 -0.129550487 0.018236668 -0.103055832 5.325530163
9.170322276 0.196479739 0.209182189 0.117414312 8.889153022 0.084119947 0.099440087 0.066916392 5.367927253
8.698473557 0.382349828 0.038594030 0.228488403 9.506514324 -0.118874190 0.018346656 -0.094562968 5.336038647
9.603799306 0.118500575 0.013755549 0.070814750 7.773786530 0.012305421 0.006539051 0.009788813 5.360805216
10.323275187 0.018887257 0.013917223 0.011286834 6.133678023 0.012330139 0.006615907 0.009808475 5.049416362
8.851937840 -0.260972214 -0.154696031 -0.155954365 8.946492631 0.224199125 -0.073538702 0.178347670 5.011913919
10.114398509 0.017197390 0.091312554 0.010276987 6.184835683 -0.013933411 0.043407750 -0.011083858 5.269962849
8.548682620 -0.332995999 -0.181582748 -0.198995053 8.894901251 0.056535932 -0.086319989 0.044973644 5.308050894
9.537029680 0.174471233 -0.047416588 0.104262250 6.845692395 -0.223669165 -0.022540684 -0.177926092 5.252363016
8.937687066 -0.143116079 -0.127029980 -0.085524727 8.962338102 0.236699668 -0.060386940 0.188291699 5.102265377
8.578477948 0.332929243 0.223803816 0.198955160 9.368150092 -0.060736636 0.106390850 -0.048315253 5.323391045
9.006086743 -0.035922820 -0.055051511 -0.021467115 8.968329916 0.198779744 -0.026170139 0.158126862 5.186104395
8.713124879 0.385280643 0.017483936 0.230239829 9.521985558 -0.124032472 0.008311435 -0.098666319 5.342648033
8.681848290 -0.397715971 -0.223534939 -0.237671056 8.980286144 0.051764205 -0.106263032 0.041177794 5.087672316
8.483830080 -0.045020961 0.187442662 -0.026904073 8.995802137 -0.041788587 0.089105648 -0.033242311 5.486007526
8.480689578 0.159298493 0.329538321 0.095195174 9.129865571 -0.007191612 0.156654442 -0.005720840 5.496315532
9.601639667 0.102784158 -0.010945973 0.061422777 7.855346526 0.053077545 -0.005203447 0.042222540 5.331720984
10.363790432 0.014597496 -0.000942078 0.008723316 6.170119885 0.007616579 -0.000447841 0.006058895 4.989395232
9.180457054 -0.165682571 -0.006210681 -0.099010235 8.923883107 0.356253327 -0.002952406 0.283395176 5.304732319
9.395361495 0.038985170 -0.064464257 0.023297145 8.401829772 0.246011099 -0.030644728 0.195698828 5.100580136
10.356391394 0.015968693 0.001175900 0.009542730 6.162379918 0.008620679 0.000558994 0.006857645 4.999918071
9.571998808 0.159547021 -0.037717238 0.095343692 6.787671771 -0.218438412 -0.017929851 -0.173765093 5.245959555
8.838827837 0.348463047 -0.194351528 0.208238005 9.569159155 -0.175662465 -0.092389953 -0.139737349 5.298123176
9.551697840 0.183913592 0.045953694 0.109904909 7.500676987 -0.089676083 0.021845260 -0.071336230 5.351949064
10.379342932 0.010640255 -0.003865254 0.006358509 6.187520972 0.005068102 -0.001837447 0.004031613 4.969173219
9.092031121 -0.139203094 -0.088519550 -0.083186366 9.059352740 0.309389783 -0.042080025 0.246115798 5.487643023
9.044539806 0.020339709 0.012759000 0.012154805 8.957852294 0.171722073 0.006065316 0.136602815 5.233672102
9.778610532 0.092206352 0.052523821 0.055101587 6.500036410 -0.151240568 0.024968538 -0.120310027 5.265969628
8.689816884 -0.394826155 -0.218415161 -0.235944131 8.979045019 0.057942078 -0.103829215 0.046092217 5.076491808
10.060254376 0.020627764 0.101644303 0.012326944 6.221431135 -0.034416697 0.048319211 -0.027378063 5.287965296
9.508790220 0.189998418 -0.051035602 0.113541140 6.903912678 -0.223531627 -0.024261075 -0.177816683 5.259643266
8.913177250 0.292087057 -0.282688341 0.174548282 9.463810641 -0.195550194 -0.134383110 -0.155557794 5.210069878
9.143922823 -0.167505203 -0.043862397 -0.100099421 9.009026494 0.353757930 -0.020851109 0.281410118 5.433588856
8.545244415 -0.310158296 -0.158003003 -0.185347472 8.885856249 0.058863406 -0.075110756 0.046825122 5.342177758
9.438696944 0.053712391 -0.069075841 0.032097984 8.318460471 0.227983228 -0.032836962 0.181357877 5.127507064
8.688560833 0.380133940 0.053119247 0.227164211 9.495769563 -0.115521763 0.025251588 -0.091896153 5.331485637
9.602386014 0.122413112 0.018211824 0.073152842 7.755769662 0.003796588 0.008657455 0.003020139 5.364845128
9.475627664 0.241046124 0.000959803 0.144046734 7.204745045 -0.159910071 0.000456267 -0.127206511 5.306582284
9.569566863 0.090215211 -0.049084234 0.053911701 7.996962691 0.117041752 -0.023333442 0.093105286 5.258286597
8.591993750 -0.379417404 -0.238623676 -0.226736017 8.952574859 0.032814825 -0.113435848 0.026103793 5.194286947
8.576661721 -0.371369113 -0.229328081 -0.221926439 8.939149229 0.037504733 -0.109016950 0.029834558 5.214918480
9.080799086 0.070472159 0.079174660 0.042113452 8.939685271 0.147616809 0.037637693 0.117427371 5.282341562
8.652713555 -0.402169746 -0.239736474 -0.240332587 8.980404408 0.034906153 -0.113964845 0.027767419 5.131687836
9.908285776 0.052099022 0.086163438 0.031133851 6.364154017 -0.099080851 0.040959987 -0.078817609 5.286044290
9.482800441 0.211014595 -0.049877997 0.126100195 6.982234451 -0.215348771 -0.023710777 -0.171307320 5.269356616
9.187443584 -0.154915140 -0.003515970 -0.092575726 8.889781637 0.348213143 -0.001671406 0.276999308 5.248686209
8.479701993 -0.033551811 0.196787668 -0.020050224 9.000180120 -0.043727213 0.093548035 -0.034784465 5.484764955
8.643038382 -0.400723924 -0.243292605 -0.239468578 8.978536818 0.031760131 -0.115655342 0.025264797 5.144823879
9.028859226 -0.001812402 -0.016171546 -0.001083073 8.963630257 0.182486209 -0.007687557 0.145165553 5.213096568
8.992917875 -0.046930969 -0.110551153 -0.028045474 9.135850323 0.122571650 -0.052553309 0.097504253 5.461246419
8.981531279 -0.028198936 -0.100339338 -0.016851400 9.134116291 0.074933511 -0.047698862 0.059608694 5.441495408
10.091444214 0.018476454 0.096633802 0.011041343 6.199323523 -0.022217537 0.045937341 -0.017673780 5.279445013
9.163676308 -0.172661073 -0.025790647 -0.103180517 8.977725914 0.363947858 -0.012260242 0.289516082 5.388873430
8.823030418 0.357958366 -0.168909196 0.213912312 9.586816735 -0.169212596 -0.080295292 -0.134606556 5.337023912
9.522163987 0.182055765 -0.049822193 0.108794690 6.874320266 -0.224283878 -0.023684250 -0.178415089 5.255938938
8.989540049 0.165583236 -0.265638756 0.098950873 9.259789142 -0.162898311 -0.126278155 -0.129583619 5.280306380
8.529774103 0.272182314 0.302788033 0.162653408 9.287075995 -0.022011235 0.143938011 -0.017509669 5.407261846
8.467628196 0.013266430 0.229929025 0.007927885 9.019040178 -0.043964531 0.109302624 -0.034973248 5.480630795
9.160116124 -0.172273872 -0.029417747 -0.102949129 8.984824724 0.362991515 -0.013984476 0.288755323 5.399379537
8.538066648 -0.220643670 -0.014506269 -0.131854433 8.909033540 0.021973101 -0.006895925 0.017479334 5.473343066
9.175654038 -0.169935208 -0.011517567 -0.101551568 8.943903281 0.360864928 -0.005475169 0.287063649 5.336865640
9.230651372 0.280415251 0.253852465 0.167573328 8.827404660 0.040481127 0.120675241 0.032202243 5.402839397
8.514621164 -0.121215411 0.114067589 -0.072437108 8.964230233 -0.016779000 0.054224937 -0.013347490 5.498432659
8.961426043 0.250667825 -0.301134310 0.149796566 9.381843515 -0.194748734 -0.143151871 -0.154920243 5.217523453
9.304689857 -0.007450317 -0.040270298 -0.004452235 8.571360666 0.278784910 -0.019143513 0.221769996 5.063126999
10.367257114 0.013852311 -0.001795868 0.008278001 6.173877234 0.007108488 -0.000853711 0.005654715 4.984630285
8.539468704 -0.237295582 -0.044185642 -0.141805448 8.899056301 0.031057253 -0.021004771 0.024705666 5.453274300
9.251860570 -0.054514609 -0.014485342 -0.032577381 8.682506276 0.294265402 -0.006885976 0.234084538 5.068430904
8.708274811 0.384365355 0.024430462 0.229692862 9.516927982 -0.122285361 0.011613643 -0.097276513 5.340486277
9.168334970 -0.172517888 -0.020594346 -0.103094951 8.966769202 0.364102215 -0.009790047 0.289638871 5.372336593
9.153068205 0.172991756 0.189111799 0.103378130 8.901232332 0.096214281 0.089899115 0.076537287 5.354794141
8.973493417 -0.088452764 -0.098075167 -0.052858481 8.967711586 0.220986851 -0.046622531 0.175792345 5.150106867
8.972793442 0.233531538 -0.300871252 0.139556094 9.355828633 -0.191683990 -0.143026820 -0.152482276 5.228081214
9.590640673 0.140596642 0.032712079 0.084019137 7.675897516 -0.030470523 0.015550520 -0.024238929 5.372287081
9.289727109 -0.018713999 -0.032585228 -0.011183297 8.601042394 0.282933719 -0.015490219 0.225070322 5.061398267
9.026405183 -0.078001976 -0.119439340 -0.046613195 9.124101283 0.206080992 -0.056778535 0.163934915 5.492730750
9.422677639 0.048492231 -0.067052019 0.028978469 8.349757619 0.234824941 -0.031874886 0.186800376 5.117232242
9.466265508 0.239026479 -0.027950569 0.142839815 7.121365186 -0.183560883 -0.013287015 -0.146020444 5.291140104
8.536403887 -0.206407894 0.008270577 -0.123347277 8.917808491 0.015245652 0.003931630 0.012127730 5.485292838
8.722698346 0.386883433 0.003859087 0.231197640 9.531751770 -0.127633348 0.001834515 -0.101530772 5.346816501
9.586336390 0.145841232 0.035474879 0.087153250 7.653688486 -0.039062084 0.016863888 -0.031073411 5.371815636
9.064569878 0.047958800 0.049952647 0.028659695 8.948319594 0.158434747 0.023746264 0.126032909 5.260914870
8.586504061 0.339387799 0.211175873 0.202814728 9.378484523 -0.066438134 0.100387835 -0.052850725 5.317733827
8.881564530 0.315876204 -0.252092156 0.188764436 9.510387941 -0.192513006 -0.119838433 -0.153141748 5.231107473
8.978171760 -0.019471457 -0.096578366 -0.011635947 9.131958989 0.056661784 -0.045910988 0.045073758 5.433149687
9.184814508 -0.159546226 -0.003713146 -0.095343217 8.902952273 0.351246576 -0.001765139 0.279412367 5.270260575
8.773185015 0.387015113 -0.070163877 0.231276331 9.576929104 -0.150646136 -0.033354187 -0.119837164 5.366277302
8.544808366 -0.306138230 -0.153634699 -0.182945121 8.884968814 0.058727614 -0.073034171 0.046717101 5.347654426
8.784143428 -0.341984868 -0.167013325 -0.204366711 8.951211061 0.154522962 -0.079394042 0.122921131 5.013539738
8.546195989 -0.318094887 -0.166330151 -0.190090299 8.888170251 0.058664793 -0.079069278 0.046667127 5.331088854
9.494117213 0.200618673 -0.051166100 0.119887697 6.943245350 -0.220481207 -0.024323110 -0.175390111 5.264508483
8.466129623 0.092997351 0.278911452 0.055574280 9.062908193 -0.029511910 0.132587669 -0.023476364 5.476870757
8.841084610 0.347067667 -0.197597018 0.207404140 9.566304341 -0.176760762 -0.093932780 -0.140611030 5.293109195
9.473869797 0.241433977 -0.002582597 0.144278512 7.195157677 -0.162506072 -0.001227703 -0.129271598 5.304944715
8.933745323 0.277538209 -0.294043202 0.165854037 9.431577617 -0.196116629 -0.139780932 -0.156008386 5.207383316
8.541667330 -0.272053426 -0.108313118 -0.162576386 8.884792145 0.050592452 -0.051489402 0.040245679 5.396627277
9.141166117 -0.166396136 -0.046177046 -0.099436654 9.012320850 0.351764761 -0.021951436 0.279824577 5.438018123
10.285249624 0.017131759 0.030715845 0.010237767 6.116470397 0.015106164 0.014601560 0.012016769 5.104937253
10.405153505 0.000153112 -0.000219961 0.000091498 6.217477864 -0.000038732 -0.000104564 -0.000030811 4.947249023
8.766116255 0.388262350 -0.059067306 0.232021668 9.571419743 -0.147110400 -0.028079150 -0.117024529 5.363870711
9.003327295 -0.057218480 -0.114787620 -0.034193187 9.134043342 0.152639838 -0.054567221 0.121423130 5.473667051
9.122397237 0.129846280 0.147013597 0.077594828 8.918199761 0.118258205 0.069886661 0.094072960 5.328686233
8.543600868 -0.294096246 -0.139626851 -0.175748953 8.883378682 0.057353112 -0.066375183 0.045623701 5.364020036
9.472287591 0.241670863 -0.006078331 0.144420072 7.185706536 -0.165116254 -0.002889490 -0.131347966 5.303284047
10.300219740 0.018250392 0.024137250 0.010906250 6.120988999 0.014279920 0.011474257 0.011359502 5.083469536
9.187945200 0.220211962 0.226434355 0.131596449 8.874192638 0.071914037 0.107641344 0.057206739 5.380498033
9.466182144 0.236903163 -0.032899227 0.141570942 7.103314008 -0.188626303 -0.015639486 -0.150049924 5.287731916
8.466717565 0.019251817 0.233695234 0.011504692 9.021652923 -0.043292643 0.111092987 -0.034438770 5.480120438
10.405615551 0.000073873 -0.000124562 0.000044146 6.217974535 -0.000033910 -0.000059214 -0.000026975 4.947102166
8.487969322 0.183463920 0.342435041 0.109636189 9.160064958 0.002242906 0.162785227 0.001784204 5.497324222
10.331920517 0.018606452 0.010234154 0.011119028 6.140095266 0.011455201 0.004865066 0.009112473 5.036419935
9.172283804 -0.171582259 -0.015772640 -0.102535829 8.955474628 0.362953322 -0.007497926 0.288724941 5.354966852
10.360166718 0.015304877 0.000048606 0.009146040 6.166279544 0.008120511 0.000023106 0.006459767 4.994495902
8.529274904 -0.167950281 0.060619498 -0.100365395 8.940380968 0.000132622 0.028817024 0.000105499 5.500220344
9.040585776 0.014825932 0.005394958 0.008859828 8.959476735 0.174394950 0.002564631 0.138729056 5.228369198
8.968141229 0.019653567 -0.109783251 0.011744774 9.124108215 -0.017666379 -0.052188267 -0.014053389 5.392141909
8.959335290 -0.111039937 -0.111612261 -0.066356347 8.965865892 0.228725283 -0.053057734 0.181948173 5.132516827
8.968549189 0.028914056 -0.118972243 0.017278748 9.126387496 -0.033925726 -0.056556489 -0.026987501 5.383229629
10.404588373 0.000273230 -0.000346571 0.000163279 6.216864879 -0.000030460 -0.000164751 -0.000024231 4.947439399
8.533424080 0.277973078 0.296552747 0.166113910 9.295210571 -0.025415334 0.140973908 -0.020217588 5.397604086
9.997856441 0.028544430 0.102205593 0.017057864 6.275194998 -0.060685083 0.048586034 -0.048274243 5.292982783
8.758226460 0.389023313 -0.047151287 0.232476411 9.564883550 -0.143218815 -0.022414566 -0.113928820 5.361010979
9.787683324 0.089505997 0.055361936 0.053487882 6.489452204 -0.147774033 0.026317708 -0.117552441 5.267759616
9.048513797 0.025848015 0.020174150 0.015446513 8.956120649 0.169059304 0.009590297 0.134484614 5.239051725
8.540546254 -0.254971475 -0.077921677 -0.152368384 8.890127996 0.041628119 -0.037042056 0.033114661 5.425306031
10.305039762 0.018520032 0.021991193 0.011067385 6.123084129 0.013929247 0.010454074 0.011080546 5.076438430
9.598386952 0.099432026 -0.018023735 0.059419577 7.877798040 0.064254541 -0.008568042 0.051113703 5.321268863
8.909945412 -0.180680478 -0.140156112 -0.107972833 8.957077468 0.240082245 -0.066626781 0.190982497 5.063034833
8.869772297 0.325739089 -0.237049714 0.194658397 9.527250713 -0.189435281 -0.112687625 -0.150693455 5.244475844
9.467073660 0.240551175 -0.022332628 0.143750958 7.139539344 -0.178335933 -0.010616384 -0.141864059 5.294639047
10.129527951 0.016421202 0.087226032 0.009813145 6.175897466 -0.008874151 0.041465118 -0.007059279 5.262103932
10.290317753 0.017545342 0.028508303 0.010484919 6.117658021 0.014875925 0.013552148 0.011833617 5.097739152
9.547945683 0.169477034 -0.044968963 0.101277767 6.826561073 -0.222507405 -0.021377143 -0.177001927 5.250055581
8.509993387 -0.109282392 0.126656440 -0.065306056 8.969698213 -0.021216414 0.060209368 -0.016877398 5.496391429
8.811474993 0.366495491 -0.144625153 0.219014012 9.593716729 -0.166146493 -0.068751253 -0.132167508 5.361154386
9.474505522 0.220728725 -0.047047965 0.131905261 7.020596946 -0.208502563 -0.022365450 -0.165861246 5.274396426
9.216148968 -0.101926678 -0.008538510 -0.060910355 8.776810447 0.317230596 -0.004058999 0.252353070 5.111626606
8.639872972 -0.399910795 -0.244127128 -0.238982661 8.977670949 0.031040821 -0.116052054 0.024692595 5.148682132
8.926332731 -0.158756112 -0.133077260 -0.094871053 8.960261501 0.238933069 -0.063261668 0.190068342 5.085781638
9.479645096 0.239822094 0.008092966 0.143315267 7.224372022 -0.154772539 0.003847198 -0.123119667 5.309790460
8.941366475 -0.137896625 -0.124805758 -0.082405633 8.962980733 0.235696069 -0.059329599 0.187493348 5.107593505
9.021165113 -0.013039841 -0.029891001 -0.007792478 8.965743460 0.187928892 -0.014209449 0.149495142 5.203564321
8.971156394 0.045946937 -0.133625208 0.027457426 9.133763778 -0.058904766 -0.063522149 -0.046858023 5.369668532
9.598752852 0.149558493 -0.027110444 0.089374648 6.747136005 -0.212144252 -0.012887641 -0.168758165 5.243232464
9.557349949 0.177934708 0.045082249 0.106331988 7.523997270 -0.082875252 0.021430996 -0.065926252 5.356041268
10.076039665 0.019456013 0.099462814 0.011626717 6.209856309 -0.028127255 0.047282184 -0.022374888 5.284240020
9.226459715 -0.086572735 -0.009036622 -0.051734994 8.746963530 0.308506179 -0.004295789 0.245412902 5.092480466
8.923324281 0.285108992 -0.289036190 0.170378260 9.448195653 -0.195887035 -0.137400722 -0.155825747 5.207693260
9.516835131 0.217242579 0.042708717 0.129821976 7.366422349 -0.122801515 0.020302678 -0.097687107 5.329899107
9.582021104 0.092436126 -0.037799506 0.055238897 7.951105305 0.097805588 -0.017968959 0.077803152 5.283233184
8.972898123 -0.003708065 -0.094814954 -0.002215902 9.127136842 0.026425552 -0.045072705 0.021021204 5.417289394
9.113873018 0.117604469 0.134066074 0.070279245 8.922476294 0.124425186 0.063731726 0.098978718 5.320374669
8.558654182 -0.356551206 -0.208632015 -0.213071407 8.915727830 0.047328608 -0.099178547 0.037649331 5.258148032
8.798316245 0.376418185 -0.115583074 0.224943713 9.592091398 -0.162116261 -0.054945361 -0.128961508 5.370519052
9.974087813 0.033537131 0.099251272 0.020041452 6.298277326 -0.070927388 0.047181623 -0.056421872 5.291984317
9.588548154 0.143182806 0.034135450 0.085564602 7.664905515 -0.034768097 0.016227156 -0.027657597 5.372167471
8.608871053 0.353647349 0.175987398 0.211336092 9.405759639 -0.081061222 0.083660096 -0.064483214 5.309738171
9.567303110 0.089873553 -0.051090169 0.053707530 8.004914342 0.120349278 -0.024287014 0.095736382 5.253998377
9.069615849 -0.121370482 -0.106730068 -0.072529777 9.082430060 0.283338252 -0.050736859 0.225392123 5.498897036
8.979524028 0.219524624 -0.298590569 0.131185703 9.336111627 -0.187941014 -0.141942639 -0.149504784 5.237789660
9.190227820 -0.149499616 -0.004055591 -0.089339464 8.875878931 0.345048424 -0.001927929 0.274481813 5.226628663
9.604724818 0.111424987 0.004125853 0.066586449 7.807887383 0.029067041 0.001961329 0.023122477 5.350656742
9.471420043 0.225151530 -0.044925357 0.134548285 7.039495659 -0.204541281 -0.021356414 -0.162710094 5.277085934
9.489101112 0.235748851 0.021374138 0.140881137 7.264126661 -0.145104373 0.010160742 -0.115428759 5.315774854
8.524751062 0.264062091 0.311373196 0.157800844 9.275040273 -0.016974159 0.148019187 -0.013502736 5.420928573
9.174586519 -0.170559120 -0.012858251 -0.101924411 8.947786061 0.361640773 -0.006112498 0.287680824 5.342975256
9.095429435 -0.141540770 -0.085521772 -0.084583338 9.056106382 0.312774996 -0.040654955 0.248808694 5.485357482
8.750774579 -0.364924833 -0.181443199 -0.218075403 8.961468529 0.116418881 -0.086253650 0.092609800 5.024415853
8.505166838 -0.097381874 0.138844516 -0.058194426 8.974922148 -0.025639230 0.066003281 -0.020395695 5.494199210
9.088967138 0.081967739 0.093374108 0.048983094 8.935300711 0.142042796 0.044387762 0.112993312 5.292554441
9.511053677 0.221821089 0.040001845 0.132558047 7.345374741 -0.127341245 0.019015897 -0.101298407 5.326948797
8.612786171 -0.389217313 -0.244950997 -0.232592343 8.966016023 0.029643938 -0.116443701 0.023581391 5.174899721
8.968124411 0.021859676 -0.111984662 0.013063122 9.124482251 -0.021690427 -0.053234764 -0.017254470 5.389911302
8.817945511 0.361458639 -0.158860288 0.216004039 9.590844410 -0.167758261 -0.075518288 -0.133449651 5.349156592
8.540744556 -0.258356583 -0.084281211 -0.154391290 8.888776328 0.043591216 -0.040065222 0.034676281 5.419533033
9.132328359 -0.162479501 -0.053554352 -0.097096112 9.021905390 0.344986144 -0.025458426 0.274432270 5.450474522
9.587619201 0.093959019 -0.032299745 0.056148963 7.928934069 0.088159024 -0.015354507 0.070129428 5.295162536
8.497800117 -0.079697256 0.156241052 -0.047626277 8.982295363 -0.031980808 0.074273167 -0.025440343 5.491010335
8.467410347 0.102764140 0.285610932 0.061410814 9.070508287 -0.027166707 0.135772438 -0.021610784 5.477944541
8.472662731 -0.010401953 0.214107513 -0.006216102 9.009221789 -0.045259746 0.101781465 -0.036003576 5.482637318
9.584042040 0.148536070 0.036715353 0.088763659 7.642401050 -0.043292564 0.017453579 -0.034438707 5.371242333
8.987785616 -0.065149218 -0.081297965 -0.038932516 8.968828405 0.211727245 -0.038647060 0.168426441 5.166190446
9.949779777 0.039741539 0.095020288 0.023749143 6.322525530 -0.081392375 0.045170317 -0.064746641 5.290154832
9.085370557 -0.134362004 -0.094299222 -0.080293380 9.065907483 0.302398839 -0.044827539 0.240554588 5.491712489
8.520949240 -0.139008552 0.094590421 -0.083070109 8.955626866 -0.010267844 0.044965968 -0.008167945 5.500700325
8.488272696 -0.056501329 0.177583909 -0.033764625 8.991414671 -0.039113474 0.084419038 -0.031114292 5.487443896
9.562560783 0.089148434 -0.055220002 0.053274206 8.021173911 0.127124471 -0.026250236 0.101125966 5.245322970
9.883106637 0.060093904 0.080308108 0.035911511 6.389258878 -0.109627285 0.038176507 -0.087207168 5.283090916
9.023880510 -0.075596565 -0.119155628 -0.045175745 9.125641070 0.200618813 -0.056643666 0.159589818 5.491091116
10.013351968 0.025923433 0.103284461 0.015491582 6.260752333 -0.054036107 0.049098902 -0.042985064 5.292960195
9.244855739 -0.062604538 -0.012251838 -0.037411841 8.699217780 0.297300986 -0.005824223 0.236499308 5.072723286
9.036653432 0.009300072 -0.001896302 0.005557629 8.960985782 0.177079810 -0.000901455 0.140864829 5.223161926
9.209794045 -0.112235025 -0.008277462 -0.067070520 8.796838651 0.323455181 -0.003934903 0.257304651 5.128033709
9.179545843 -0.166688353 -0.007065302 -0.099611280 8.927982227 0.357241048 -0.003358671 0.284180896 5.311398398
10.193149041 0.013810389 0.066696510 0.008252950 6.141348688 0.007809784 0.031705887 0.006212588 5.214090657
8.975070725 -0.010425134 -0.094578277 -0.006229955 9.129243901 0.039082671 -0.044960195 0.031089788 5.424225285
8.557695126 0.311866269 0.256667477 0.186368139 9.338915039 -0.045242844 0.122013428 -0.035990130 5.347321243
9.183947897 -0.160933425 -0.003983657 -0.096172193 8.907240753 0.352254887 -0.001893733 0.280214466 5.277346662
8.648157540 0.369480627 0.114438618 0.220797899 9.450835305 -0.100888578 0.054401315 -0.080255633 5.314728190
8.968330911 0.026476958 -0.116594525 0.015822363 9.125620963 -0.029819643 -0.055426180 -0.023721162 5.385457558
8.464118662 0.054866722 0.255131011 0.032787800 9.038878412 -0.037549396 0.121283031 -0.029870086 5.477262873
8.677975944 -0.398933073 -0.225965163 -0.238398384 8.980727983 0.048967400 -0.107418301 0.038952970 5.093379668
9.651162154 0.131679438 -0.001848395 0.078690305 6.670671456 -0.196540160 -0.000878682 -0.156345300 5.243897306
8.535363998 0.281004921 0.293258152 0.167925709 9.299332846 -0.027152251 0.139407739 -0.021599285 5.392634575