5.1991598871 1.8632158031 2.4802697128 2.8095849970 7.0584765350 5.1276585266 1.8550707271 3.0112867907 2.3776315869 6.8558354122 0.9465369260 0.0796748972 7.6042967630 5.3826965049 3.0670240298 1.1036377489 6.1906816373 2.4072437341 3.6643656723 2.1239679868 4.9640965077 8.4316593487 2.2812105171 2.7251252956 5.8357340704 6.1384127877 0.5603032858 1.9689937215 6.3294570741 3.6639204062 3.1821826321 2.1620427288 1.1780669777 7.7115461149 2.1781199098 1.3463328842 6.8680092183 6.1264292592 4.6458091973 4.3846111858 5.8823142564 0.0302812790 0.3503566611 1.8164052357 2.5038420434 5.2322256244 2.2932809165 4.8818829103 9.1290203046 6.4783071003 2.5086508577 1.7011861463 7.1800852966 1.3565752548 3.4871789831 0.6430606637 4.4274050242 8.3423597953 3.6766101035 3.3665575871 6.0868938206 5.2229520982 1.8253701011 7.6885998229 1.2739072812 3.6242183885 5.9112744598 7.6415719888 1.0856575217 1.3481543583 4.7256274423 1.9184784409 2.9122291378 2.9705712569 3.8907433141
3.8748950209 -0.0238685190 2.8255504302 2.3591411041 7.2798392846 5.5164156410 1.5395097471 2.6980094984 2.5896823920 5.7253174342 1.6725869659 -0.4818767501 7.0462303982 5.9807117892 2.6375842163 1.6391665946 5.8537500552 2.9542976208 2.3403176738 1.4004767335 5.1109908703 6.9490220007 2.8388348672 2.1125989498 5.7074854248 7.3265211084 0.0804752606 2.7265367818 6.1385183558 4.0295222173 2.2838721747 1.4282485293 1.3944084654 5.9209998345 1.9025629998 1.4526226554 5.7595366636 6.2547248573 4.2983971228 4.2306885020 7.4167159180 0.6765431453 -0.2073055124 2.6962438490 1.7525672827 3.6913386070 1.7830216259 4.5766530812 8.7501336360 5.5387392996 3.3532769563 1.6781344827 6.9312064679 1.8155348051 1.8918419979 0.0078539818 4.6873322198 6.6405280007 4.3344660512 1.8218428135 6.5682147688 7.3821196795 1.4194033982 6.6769303124 2.6642876348 3.6709967096 5.8869148585 8.7143312843 -0.5840039336 1.9655912002 4.4942387010 2.2258131089 1.2977674696 2.2961711625 4.3541745290
3.8918932945 0.0215524637 2.8611642181 2.3475659935 7.2799999182 5.5865744593 1.5470122788 2.7227864847 2.5984961709 5.7351180690 1.6616817384 -0.4583533827 7.0422132728 6.0077659850 2.6738189789 1.6558728599 5.8505501608 2.9739716484 2.3554870226 1.4032301617 5.1448642321 6.9617201816 2.8348911940 2.1355360312 5.7027332429 7.3647949387 0.0963078588 2.7564838615 6.1665654116 4.0412359732 2.3156532877 1.4661293971 1.3865687051 5.9026371750 1.8935715234 1.4765387449 5.7664736255 6.2380170486 4.3769099585 4.2280042910 7.4584534261 0.7193092383 -0.1863569807 2.6830980804 1.7579424549 3.7580506149 1.7420686037 4.6224551449 8.7646652452 5.5746593406 3.3997036414 1.6577028508 6.8778759754 1.8240441701 1.9315320449 -0.0060058028 4.7317147710 6.6422271266 4.3513094469 1.9076192095 6.5309368412 7.3667670105 1.4499229102 6.7016094596 2.6254521773 3.6811916057 5.9443131282 8.7391931766 -0.5718323034 1.9978750769 4.5337562624 2.2595751703 1.2939243491 2.2484939602 4.3865755621
5.7518944578 1.8948847218 2.2393994230 2.7971276177 4.6687005006 4.8745959084 2.2115661502 1.5411862054 2.5115039308 7.6589455074 1.4568472019 -0.0427492765 8.1180729592 4.6941260887 2.5677843076 1.1219348411 4.5667825396 2.1444302964 4.0601370038 1.6461832481 4.7111058106 9.2555427520 1.5684544596 2.7484609027 6.2451362794 4.6527992240 0.3536854105 1.4554947399 4.6380257123 3.6526317426 3.8317289617 1.6329118740 1.3021229166 9.1221609262 1.6011384392 1.2177357245 6.4417002153 4.5545880808 3.7604075892 4.7229779735 4.7738221751 0.6217533571 0.3675866481 1.4081777319 3.0496068234 5.5587629426 1.5292994721 4.3518425845 9.9883611073 4.5148675334 1.9123106566 1.7868148993 5.7630191992 1.3778362122 3.3239920217 0.4083071271 4.0805236724 8.4298080771 2.7135941002 3.4521957403 6.9126643118 3.4243816723 1.1072394123 8.5691821355 0.3085069630 3.4091835113 6.9044770795 6.0245677167 0.8657082513 1.9341930417 3.3136707275 1.6735177522 3.3100330964 2.8106617253 3.9377767644
4.9077369490 1.8947341318 2.5147317575 2.7540037746 7.5131458136 5.2422756006 1.7529006806 3.4103430448 2.1401126948 6.5958832884 1.0094481815 0.1888294039 7.2587697880 5.7527380100 3.2479492234 0.9689042984 6.5614383641 2.5048491486 3.4962694479 2.2636373757 4.8098304652 7.9930898435 2.5472490213 2.7087981717 5.8579300264 6.6574753330 0.7296682625 1.9228923682 6.6887883100 3.7194472427 3.0545708055 2.4144902817 1.1343679936 6.8712468448 2.2617606328 1.6616329707 6.9900585238 6.5910167601 4.8025722109 4.4599278211 6.3330789273 0.0815699477 0.0795223153 2.4237210751 1.9197788098 5.0371893738 2.4351293197 4.6715940281 8.7847854435 6.7267856579 3.0339190448 1.3464110937 7.6072917372 1.4380276214 3.2770165361 0.6862324294 4.6581317481 7.7978785216 3.9613428608 3.2117394004 5.9056969297 5.5921212111 1.9096347558 7.8167478612 1.5014501801 3.8664354455 5.9102934808 8.0974608699 1.2630246100 1.0878774167 5.1804161800 1.8002144714 2.8403979105 3.1556948084 3.7043614470
5.3081814011 1.9019481619 2.3733015764 2.7792349961 6.1693511564 4.8978363542 2.0587423568 2.3691684662 2.6033847876 6.9003621698 1.3601954860 -0.0446343076 7.7062652850 5.0497268861 3.0240801771 1.1172576240 5.3791413929 2.1462069741 3.6896383405 1.8770470766 4.9954463243 8.4919160823 1.7879947726 2.8238214359 5.8271222179 5.7628623056 0.4786036355 1.4437844475 5.6383921077 3.6602454715 3.3118543114 1.9515125272 1.1879076770 8.2229240663 1.6096769044 1.3003717736 6.4579530883 5.3311384876 4.4302212082 4.2668126404 5.5437410676 0.4284459918 0.4954105080 1.3870335697 3.1564909604 5.2089149559 2.1096493058 4.8924260717 9.0994816625 5.7026023820 1.9082122405 1.8297759800 6.3837780324 1.2509620656 3.1573798222 0.5440400445 4.2829845946 8.0236626242 3.1651363129 3.3771404675 6.4835182973 4.8311607200 1.5515780124 7.5895539337 0.7497715097 3.5883818035 6.1839065080 7.2484042959 0.7570581876 1.6075328558 3.9506233257 1.8764349747 3.0475223899 3.0514870196 4.1900017585
5.1603290842 1.8665570506 2.4887909631 2.8516452763 7.2239045205 5.1489970868 1.8051601309 3.1828508865 2.2836471675 6.7859804660 0.9582248995 0.0804855614 7.4748612819 5.4764679945 3.0520914343 1.0988298356 6.3116976180 2.4769466039 3.6527352566 2.1072207658 4.8929309634 8.3372139719 2.3736094502 2.6376938291 5.8355969286 6.2686849528 0.6283714077 2.0631998099 6.4359686981 3.6867848309 3.2215082230 2.2900481770 1.1946746202 7.3969763141 2.3124181346 1.3899569593 6.8524910808 6.3252644558 4.6554692475 4.4894513905 5.9430140290 -0.0578174660 0.3434922605 1.9578853023 2.3687248759 5.1748292054 2.3841658567 4.8846549889 9.0711686251 6.6216217810 2.6273019024 1.5952573938 7.2563315975 1.3486043618 3.4742243648 0.6359898618 4.4581794283 8.3021553901 3.8113672405 3.2860890397 5.9345218208 5.2641470208 1.7998335246 7.6772764586 1.3386129321 3.6438365275 5.8676799961 7.7579177355 1.2077961054 1.2513263069 4.8707036037 1.8941071304 2.9493902116 2.9753330493 3.8367853344
4.2766566981 0.0134166273 2.7729462449 3.4985727436 7.0232927682 5.7023209536 1.3001444852 2.8025103740 2.5372396355 5.9236715568 2.1452369412 0.0631709039 7.8494036824 6.4643811605 2.8306164364 1.9668317574 5.9166797563 3.0488853147 2.7829093140 1.5691385058 5.2472033004 7.2003687056 3.3098415054 2.6630686925 6.5518387586 7.8868378220 0.1229598952 2.7563606468 5.9109549497 4.3823945446 2.4781925783 1.8401522055 1.4768615385 6.1592995310 2.5072449510 1.8736392986 6.7535954107 7.0721511762 4.2214809749 5.1138312090 7.6985479296 0.7921042408 -0.5134932101 2.5663015049 2.3755828572 4.0978694370 2.3147407113 4.9228346124 9.5852363582 6.3683313912 3.4951997502 2.5575357023 7.0423591580 2.1420478497 3.1147260258 0.1144783308 4.9825641705 7.2375023933 4.7419387340 2.1109552353 7.5756743701 7.5578792685 1.2501843520 6.8551142111 3.4197626282 4.1909222775 6.5636926728 9.3139658013 -0.4302587996 2.1044395647 4.4809631880 2.3613439338 1.6162711522 2.2144327572 4.4301020392
5.5578149371 1.9246418477 2.3769851191 2.6449575410 5.4832708282 4.7796171662 2.1334277182 1.9307922006 2.7104527396 7.1011706459 1.4876695675 -0.2065260411 7.4567219519 4.6749796581 2.6951471972 1.0133332096 4.8656022808 2.0641917021 3.7241733007 1.7496348493 4.9790873972 8.5634387226 1.4532908202 2.6220945546 5.8511518908 5.4644483558 0.3503467675 1.2574174678 5.2496502030 3.5414740829 3.6262029299 1.7503872040 1.2628511816 8.4362977696 1.6101402904 1.0832078621 6.2566423434 5.0732468921 4.0972627786 4.3283920118 5.3817883729 0.3038478119 0.4590771847 1.1614473444 3.1295616780 5.2502525841 1.9137062938 4.6123322814 9.0337740376 5.1168243612 1.8883953176 1.7328489092 5.9485466031 1.1783665279 3.2507912273 0.5192496723 4.1425561884 7.7654994908 2.7549504402 3.1797701708 6.3148633235 4.2947606210 1.2676257113 7.7345045720 0.3121297509 3.3815474695 6.3239169477 6.8544522682 0.8371732528 1.5290000284 3.4666496080 1.6676604809 2.8344686421 2.8643769914 4.3289149302
5.9171611157 1.9929555675 2.5039320759 2.6399795333 5.0833532179 5.0004580837 2.3263217371 1.6552169842 2.7963597125 7.4516863402 1.3702405301 -0.2087955851 7.6252852296 4.4233981476 2.7917235187 0.9404609445 4.5199489504 2.2050242941 3.9417345429 1.7226718744 5.2321367781 8.8805570375 1.4041643633 2.8097260042 5.9605132104 5.0703545343 0.3891464893 1.3410684332 4.7643146776 3.6674762376 3.7383095645 1.5371675313 1.4464672236 8.7578679522 1.5351752317 1.2752174379 6.4771505132 4.7795686677 4.2116319891 4.3930251878 5.0954537561 0.5804976057 0.4217626303 1.2736299244 3.2032727316 5.4671147089 1.8842823446 4.8232167267 9.3427006599 4.5543065185 2.0037748159 1.5392017333 5.5951396681 1.1995257524 3.2502638119 0.5643250840 4.3780857917 8.0357674107 2.5819350244 3.6218028249 6.5385791988 3.9024747468 1.2723617996 8.0496861806 0.2033268110 3.4582919658 6.5647423835 6.4196169874 0.9606920377 1.5875272486 3.1331761010 1.8945094043 3.1131115272 2.9073116599 4.5882615232
4.7474616941 1.9007650498 2.5171582866 2.6463470511 7.6153880518 5.3107147826 1.7093485247 3.4381201909 2.1729578501 6.6020141953 1.0308538088 0.2070585442 7.2537538979 5.7660993147 3.3539046921 1.0279470908 6.5910685814 2.5908880049 3.4123139700 2.1923118556 4.8414676301 7.9623262771 2.5260590817 2.7587882023 5.8231238563 6.6781152843 0.8102083542 1.9407786441 6.7367610101 3.8249082150 3.0339866088 2.4496804223 1.1135382797 6.8398425437 2.1134303448 1.7545662284 6.9803815589 6.6876007093 5.0255216738 4.4598545293 6.5076563580 0.1407374072 0.0543869040 2.6081000379 1.9168081760 4.9990633493 2.4621532085 4.6762832763 8.7569326510 6.7714062564 2.9768780593 1.3224802038 7.6861033882 1.5000651876 3.1139729124 0.7118624930 4.7373412082 7.6595408256 3.9475962034 3.3811505746 5.9519910446 5.7809363151 2.0388226913 7.8642488371 1.6009336098 4.0022046571 5.9839910699 8.2389650823 1.2195849425 1.1234310748 5.1850459683 1.8945376886 2.7687326149 3.1518321342 3.8062585433
4.6475362328 1.9106201287 2.5038455272 2.5956160919 7.6833752546 5.3757956099 1.7090942778 3.4394027707 2.2073889637 6.6133724760 1.0670450947 0.2035058909 7.2689353402 5.7645758812 3.4457670081 1.0610491837 6.6287513099 2.6149763739 3.4023005484 2.2005917455 4.9347241575 7.9162675107 2.5353450352 2.8099786205 5.8005549588 6.7537083272 0.8481848106 1.9647192488 6.7248937332 3.8846061288 3.0106574062 2.4702663433 1.0816960454 6.8098371309 2.0310620728 1.8392242857 6.9854210327 6.7057030357 5.1588027260 4.3883823881 6.6345670927 0.1751351948 0.0417198625 2.6933302662 1.9834779657 4.9327756754 2.3825056493 4.7387141468 8.7584442450 6.7867312167 2.9446507378 1.3891094065 7.6756805866 1.5384654593 3.0032572710 0.6872331804 4.7579524108 7.6158047093 3.9136753688 3.4775236913 5.9635053962 5.9130347579 2.1558647648 7.9350047431 1.6232528739 4.1044519876 6.0249338186 8.2540968906 1.2044091526 1.1877711313 5.2253329961 1.9961989220 2.6867487401 3.1042740942 3.8576295484
5.7560677310 1.8988767742 2.2522055066 2.7689197051 4.6778891385 4.8845428434 2.2320719176 1.5328705481 2.5800848153 7.6877636155 1.4222742417 -0.0641484780 8.0936718022 4.6953445789 2.6048413374 1.1256902567 4.5016827888 2.1441866535 4.0563852040 1.7027552090 4.7912229730 9.2637845085 1.5724556161 2.7292317541 6.1978597568 4.6604162231 0.3366638723 1.4429569552 4.6537690321 3.6299262567 3.8645240435 1.6866110296 1.2915380883 9.1069675705 1.6366244711 1.1956144531 6.4127125265 4.4919086943 3.7926380674 4.6386252842 4.8094655590 0.6665602459 0.3857987019 1.3447861349 3.0577946237 5.5732452840 1.5684065395 4.3405585744 9.9924578222 4.4144669825 1.9135245405 1.7767887508 5.6763544921 1.3176740075 3.2558596624 0.4331673872 4.1272240722 8.4053032066 2.6937230091 3.4734256834 6.8619640497 3.4878391343 1.1450521839 8.5392667266 0.2519529968 3.4206728472 6.8714765493 6.0235876662 0.8192850781 1.9802415677 3.2390566187 1.7210996414 3.3101925123 2.8427897550 4.0091677627
5.4684266090 1.9157355302 2.3483460871 2.6700215157 5.6032926842 4.7716305740 2.1013296004 2.0120311222 2.7099685674 7.0052048879 1.4953100578 -0.1803620550 7.4638343565 4.7641139577 2.7505137087 1.0480957158 4.9969163464 2.0488693966 3.7134097835 1.8069934690 4.9716572315 8.4979480248 1.5329768163 2.6316032737 5.8682352321 5.5573632461 0.3171619571 1.2955766868 5.3437138836 3.5613447367 3.5228722903 1.7626033615 1.2558948849 8.4456470447 1.5450491949 1.0795832428 6.2130734959 5.1334312610 4.1113086838 4.3410864192 5.4506484282 0.3094876912 0.4911578507 1.2117586979 3.0832043879 5.1798231388 1.9340307892 4.5791296586 9.0034248431 5.2110750939 1.8352011077 1.7924026328 6.0327378772 1.2095331878 3.2333938677 0.4923998937 4.1572659110 7.7754503332 2.8210392996 3.2384508738 6.2432830494 4.3917470624 1.3247051776 7.6796460589 0.3893834945 3.3590205374 6.2537369353 6.9382464243 0.8051048226 1.4973933591 3.5785222396 1.6862296306 2.8382850225 2.8723919434 4.2089742740
3.8566095742 -0.2527956378 2.6488431233 2.4364788435 7.2875649939 5.2285599825 1.4612441910 2.6484307260 2.4982657142 5.7224141647 1.7030880251 -0.4992455387 7.0862994919 5.9098227083 2.5687146502 1.5690116603 5.8401272534 2.7784022781 2.2203567659 1.4178771250 4.9671409512 6.9122329946 2.9011574543 2.0376994180 5.8045219783 7.4036086070 0.0095720261 2.6103718334 5.9773039786 3.9598076545 2.3738065551 1.3082969648 1.4124835845 5.8804197798 1.9635926978 1.3283256623 6.0138510747 6.3542451080 4.0571132635 4.3794567907 7.1869997309 0.7059087032 -0.2723191277 2.7905254756 1.9703347964 3.6323299723 1.8575965278 4.4069990005 8.8062383356 5.4702385063 3.2395114640 1.7807316198 7.1332172961 1.9311127492 1.9396066492 -0.0220537903 4.4675258058 6.7225520896 4.3393000321 1.4671786623 6.8625811944 7.2226726257 1.1567001292 6.7507385022 2.8860572477 3.6105328018 5.7363802404 8.7739237706 -0.7638814078 1.9198794880 4.4785968033 2.1464456229 1.2561372079 2.5773394875 4.5193565258
4.3612693815 1.0400493603 2.4395473422 2.9963273068 7.9684423628 5.2923271306 1.6309750776 3.2602461927 2.2990976083 6.1478614200 1.8626638466 0.0325473705 7.1574882836 6.3949491624 3.2767781807 1.7918897985 6.5077685339 2.7032653811 2.9256707013 1.7083737621 4.9878621722 6.9284237374 3.3784422784 2.6533566831 6.0488342126 8.0191064772 0.6271158254 2.7835874422 6.8276869316 3.8652447683 2.9042151579 2.2616982454 1.1353890292 6.0703461417 2.3593645445 1.8066983519 6.3489897519 6.9090594584 4.8516774203 4.5274054564 8.1718609040 0.8913674081 -0.2449415543 3.1361189891 1.8421219746 4.3983720494 1.5504632334 4.4361277171 8.9434713901 6.8712667571 3.4415186483 1.9887408162 7.6076978071 1.6590606572 2.1950980825 0.2924494172 4.9896538432 6.2706979979 4.7613559281 2.5362724364 6.9232842836 7.7079597659 1.8532317635 6.9629574231 2.9584921201 4.1176037815 6.6275890193 9.4244733454 0.1572752860 2.0431085681 5.0665963752 2.2506724403 2.1925359407 2.5996292375 3.9603520891
4.1677881528 0.2476890571 2.7877727122 2.6652507726 7.2237068652 5.7454003861 1.5759433660 2.8938048870 2.5627421259 5.8287129199 1.7573776133 -0.0795807303 7.0130906980 6.2934978063 3.2548439798 1.6848284575 6.0763303933 3.0626502718 2.7546466656 1.4853561163 5.2012078062 6.9311464744 3.0947702313 2.5736802971 5.9172798591 7.6940002761 0.3482358816 2.7638011735 6.6122918820 4.0451446911 2.5416575532 1.8492571787 1.2836839154 5.8700670911 2.3078379225 1.7780685657 6.0053478810 6.5102218817 4.7964660868 4.4237557079 7.9202795091 0.7281940574 -0.1107650987 2.7061950777 1.7830096086 4.1759459073 1.7212296569 4.6881371025 8.7415061875 5.8936112346 3.9178410951 1.6506868269 7.0990831673 1.8806332953 2.1470026369 0.1074299140 5.0826698629 6.6168896082 4.6032261766 2.6103067760 6.7344175575 7.4175558799 1.6544401825 6.9061372979 2.5023528375 4.0375044112 6.3677275737 9.0174869058 -0.3038443024 2.2036914823 4.6694417568 2.6084526100 1.8893408788 2.5156663767 4.3966973671
4.1841059046 1.5620338071 1.9718093801 2.5640328642 7.8991506484 5.0291460526 1.6571226987 3.4801238213 2.0546623200 6.4447052383 1.3286335031 -0.2121173285 7.3081582804 6.3307263292 2.8279264299 1.5399745879 6.4121511120 2.2821280339 2.8663676145 1.6334589178 4.5495442045 7.4069524255 3.0394992614 2.5432487418 6.1290147390 7.7839445414 0.1537402203 2.2594285084 6.9803195018 3.5128910390 2.3505213577 2.2226096287 0.6230557764 6.5230981542 2.3099532054 1.4631989269 6.4101144955 6.4341200618 4.5582303568 4.6697622799 8.1721063040 -0.1941410530 -0.1044617724 2.8029987427 2.2841701415 4.4698648069 1.5939619722 4.7271039928 9.1493110386 6.0851600691 2.4913148570 1.4394303816 7.6138651974 1.2692576568 2.2292444480 0.2718075734 4.2961336132 6.7871003102 4.4373691264 2.8309080195 6.2746187852 7.5261479051 1.7026216463 7.2066855210 2.1529953156 3.8014306709 7.2919202999 8.8658001418 -0.2542355092 2.3439058548 5.1932497343 1.6393704805 2.7746614607 2.5401495337 3.3043762443
3.9532981400 -0.3726872201 2.4228332439 2.7217378360 7.4058797637 5.2584057033 1.3811446953 2.8298606645 2.5112799142 5.7267945133 1.7933010056 -0.3150231306 7.3074895360 6.0556652146 2.5941706391 1.7484629885 5.8051961748 2.8544527975 2.5412910884 1.5811101205 4.9592161651 6.9420835954 3.0571281359 2.2291160914 6.1757964076 7.4717646778 0.2245251775 2.6756782654 5.9211590468 4.0823536798 2.6092756398 1.5612348436 1.5087333257 5.8898264025 2.2187723972 1.4894136581 6.1709741620 6.6953090256 4.0140028695 4.7383191175 7.1961993530 0.9246962079 -0.5238042668 2.6790161399 2.2154866295 3.8100904112 2.0847702872 4.3079536306 9.1192439102 5.7596906533 3.1408706919 2.0879310123 7.0386295439 1.9448951855 2.3256856880 0.1235089778 4.4407065975 6.9287289283 4.4659075776 1.6084216117 7.4003113110 7.4466246424 1.2041383774 6.5233652085 3.3483262261 3.7212078329 5.9663834628 8.8767876418 -0.4273196386 1.9142173935 4.4922489700 1.9621578281 1.4398237593 2.4564058701 4.3362928033
5.7519838063 1.8912825731 2.2368707962 2.8378085246 4.6621169791 4.8861259536 2.1999310671 1.5432280727 2.4663952215 7.6259246682 1.4830602610 -0.0185701814 8.1284710430 4.6830877599 2.5511662276 1.1159002639 4.6114807401 2.1624257827 4.0548463379 1.5822677205 4.6650806163 9.2607710448 1.5546210868 2.7602631167 6.2611469188 4.6561042151 0.3459840309 1.4230056166 4.6388453314 3.6825399341 3.8020482147 1.5880434049 1.2938761821 9.1062645042 1.5728986421 1.2335587317 6.4963277080 4.6015962434 3.7497148416 4.7783385919 4.7170284378 0.5981299874 0.3610439054 1.4783634829 3.0686468670 5.5484358364 1.5241668480 4.3918507898 9.9767265221 4.5875693824 1.9207007043 1.7965867979 5.8209301468 1.4335340290 3.3492842882 0.3846256870 4.0263339938 8.4642053346 2.7232358052 3.4424300153 6.9607012200 3.4169755727 1.0776751815 8.5642985180 0.3491659617 3.4138053772 6.9501103351 5.9700410341 0.9407822202 1.8747265708 3.3861910488 1.5914100551 3.3261549624 2.7789241148 3.9177015343
5.2897669027 1.8878473635 2.4262255137 2.7385557200 6.4450658921 4.9907911410 2.0314435037 2.5089395893 2.5745933549 6.9396227225 1.2197556507 0.0103390278 7.7879998733 5.1399915013 3.0921687334 1.1298108009 5.6192430228 2.2368605375 3.6817499279 1.9846560781 5.0488210958 8.5471321198 1.8872215836 2.9009810540 5.8884629231 5.8364630055 0.5385268134 1.4553367929 5.8749554953 3.7240146513 3.2970402034 1.9569096545 1.2134096762 8.0960291990 1.8096300314 1.4176270586 6.6057781045 5.4279331318 4.5362093950 4.3952956050 5.5611914403 0.4595555388 0.4876152452 1.4376035400 3.1376066963 5.2505246944 2.0883681949 5.0256281982 9.1486037030 5.9494782310 2.1382294843 1.7671146754 6.6307437479 1.2415967990 3.2865092410 0.6819319738 4.3043369054 8.1418633199 3.3376599992 3.3230903930 6.5237432431 5.0081646994 1.6681812206 7.6410154537 0.8244947414 3.6512380651 6.0163473061 7.3817573512 0.8673068992 1.5943397833 4.1964274581 1.7766573710 2.9974774088 3.0287220819 4.1312066516
5.4162666859 1.9133125998 2.3347959839 2.7005933408 5.7090334597 4.7785960580 2.0853371160 2.0764964240 2.6984730190 6.9495438810 1.4913725749 -0.1580162688 7.4858080194 4.8341919217 2.8106294862 1.0665769474 5.0972725934 2.0698077341 3.6821279626 1.8059604516 4.9725745625 8.4635619174 1.5963047808 2.6587460882 5.8650651156 5.6053995230 0.3039007959 1.3401329073 5.4006512626 3.5801842326 3.4495739749 1.8004596234 1.2159922353 8.4499994832 1.5052099002 1.0955319419 6.2422712135 5.1702160340 4.1264080588 4.2928510120 5.4902919658 0.3276291004 0.4816736456 1.2590705226 3.0598419382 5.1906176894 1.9910454974 4.5828966521 9.0126609194 5.2926554756 1.7881234097 1.8365568749 6.1106130970 1.2112647354 3.2077737198 0.4862680588 4.1977468093 7.8129640188 2.8638756880 3.2932742464 6.2275611008 4.4798913993 1.3568514603 7.6566162974 0.4854609249 3.3585793004 6.2460968335 7.0351620164 0.7985895221 1.4972116963 3.6358016872 1.7166684171 2.8815584792 2.9261837353 4.1768262950
4.7095854472 1.9038585804 2.5138513562 2.6255031634 7.6403135310 5.3345358051 1.7056390649 3.4399994556 2.1849106335 6.6058931722 1.0431998157 0.2080567653 7.2574469598 5.7650832558 3.3858289789 1.0420229890 6.6032330636 2.6003992885 3.4082995313 2.1893964566 4.8720742767 7.9470012072 2.5273342846 2.7735889944 5.8147599438 6.6979145465 0.8273395822 1.9522818482 6.7358916307 3.8531371821 3.0259395771 2.4587470307 1.1042659268 6.8288669830 2.0787356525 1.7821265438 6.9800703855 6.7035284338 5.0850032321 4.4352297090 6.5560982116 0.1510114135 0.0558105182 2.6451221350 1.9360653014 4.9758618517 2.4413539940 4.6957597556 8.7559483668 6.7801919392 2.9634203171 1.3389124733 7.6858687348 1.5154613403 3.0719753870 0.7039453579 4.7482359921 7.6402186329 3.9380799703 3.4230270251 5.9627041261 5.8313395666 2.0815883454 7.8880442710 1.6118955444 4.0446557429 6.0014500287 8.2475087700 1.2122226056 1.1436164500 5.1969739553 1.9307989068 2.7397135836 3.1393894742 3.8273102332
4.3478327149 0.9164000276 2.4882410123 3.0183623716 7.9403832324 5.4124980607 1.6074973614 3.2079186193 2.3402241429 6.0873590111 1.8519549475 0.0722527974 7.1297087265 6.4007761313 3.3327767876 1.7829636140 6.4464963606 2.7640110866 2.9908000565 1.7065474773 5.0254058585 6.8819016286 3.3773169129 2.6954630484 6.0410982827 8.0160120845 0.6699708240 2.7872623219 6.7379757062 3.9490339750 2.9411899117 2.2439851921 1.1809421607 6.0328057865 2.3882591741 1.8795597847 6.3342138280 6.8548157725 4.9344144964 4.4969489775 8.1138924132 0.9458990866 -0.2089186470 3.1097943973 1.8998078611 4.4010825385 1.4931385735 4.5117100892 8.8997941782 6.8253255068 3.6183580353 1.8774311421 7.5397165732 1.6892794845 2.2306898261 0.3317099874 5.0226197160 6.2826966578 4.8063737979 2.5698434477 6.9007490227 7.6134650164 1.8745193424 7.0035227154 2.8854128210 4.1478811137 6.5740928624 9.3483408958 0.2084688843 2.0384701667 5.0135955189 2.2731405128 2.1021791605 2.5939092717 4.1079831525
5.2872557420 1.8839863451 2.4414034060 2.7342888160 6.5192441749 5.0166978688 2.0163664826 2.5425459815 2.5679929864 6.9472041835 1.1804021325 0.0282720287 7.7930817585 5.1636192987 3.1084996051 1.1390414670 5.6812419315 2.2491560705 3.6933247107 2.0076834836 5.0555064767 8.5526149972 1.9201306223 2.8973695986 5.9012183690 5.8753924398 0.5367263373 1.4721125950 5.9437390525 3.7525714107 3.2821314701 1.9692638927 1.2185511776 8.0702623797 1.8554237620 1.4194489840 6.6402126934 5.4705507180 4.5795308002 4.4062155456 5.5695954170 0.4490543729 0.4940537031 1.4619170174 3.1158410510 5.2303445567 2.1137397577 5.0395215757 9.1662698549 6.0154088309 2.1942055340 1.7428770733 6.6965158433 1.2628488842 3.3088895917 0.6587346887 4.3170250975 8.1736797176 3.3757533913 3.3337040836 6.5167139554 5.0436657821 1.6964529185 7.6547347584 0.8426845575 3.6706245029 5.9868124415 7.3927140191 0.8952783813 1.5723673766 4.2689023043 1.7557398475 3.0019935016 3.0484242811 4.1517463896
4.3702295157 1.1142281090 2.3884404044 2.9654971486 7.9814374394 5.2295884262 1.6432237618 3.2956195339 2.2734477938 6.1891063506 1.8592425136 -0.0119998673 7.1736912497 6.3850383943 3.2285131996 1.7955987353 6.5582710999 2.6794330545 2.8740826160 1.6911817175 4.9673656171 6.9629887555 3.3842512997 2.6055035405 6.0801431359 8.0345683037 0.5833721324 2.7803599902 6.8860097397 3.8195704828 2.8571142270 2.2887761494 1.0990426336 6.1078137520 2.3499700484 1.7905192854 6.3428752417 6.9365158854 4.8036574895 4.5736048783 8.2234792907 0.8719953999 -0.2461996922 3.1424115892 1.8077924953 4.3931322901 1.5969615553 4.4418795459 8.9644622198 6.8995964514 3.3366593643 2.0655994232 7.6555111047 1.6055963169 2.1779095660 0.3045976830 4.9730219268 6.2679311514 4.7597204753 2.5308748281 6.9108457679 7.7580982724 1.8579242908 6.9484443457 3.0020759195 4.1213434268 6.6572770968 9.4491854571 0.1061812012 2.0663421410 5.0986893059 2.2135015501 2.2510430988 2.6045522303 3.8901730017
4.3982167191 1.6830916865 2.1657334358 2.5124913548 7.8587672137 5.2122669497 1.6964163700 3.3190371641 2.0603730077 6.3437326324 1.2573399269 0.0837039882 7.1929007724 6.0607745921 3.1023186373 1.4639360795 6.3728425520 2.3545123601 2.9913510285 1.7000268859 4.6983783067 7.4341166247 2.8075920235 2.7585562168 6.0106004502 7.4155779728 0.3964482866 2.1164334054 6.7169108808 3.7106352244 2.5093525019 2.4607645894 0.6062074959 6.4055878331 2.3341982083 1.6685608821 6.5178912138 6.1911640247 4.9269584482 4.5711601968 7.8626363046 0.0946581343 -0.0636899374 2.7015455939 2.3793844814 4.5053349813 1.3800872568 5.0204371465 8.9760389986 5.9809120744 2.4235770810 1.5058075034 7.4922965539 1.2538023003 2.3998573063 0.3750049381 4.2558259542 7.0705884459 4.2520070611 3.1574278653 6.2377914879 7.2190025637 1.9298409539 7.4343205832 1.9408368758 4.0542777556 6.9261704892 8.6665348476 -0.0154795546 2.2614376580 5.1186464209 1.7807274294 2.8402809922 2.7189899776 3.5534245947
5.7521831110 1.8910258003 2.2367970255 2.8432967031 4.6615146176 4.8881751924 2.1987556813 1.5433977253 2.4614769542 7.6219052377 1.4861625471 -0.0154649387 8.1293017210 4.6815878013 2.5497323038 1.1143021655 4.6167348387 2.1657590110 4.0528504185 1.5754002790 4.6625068199 9.2627414580 1.5536220777 2.7604579138 6.2636666238 4.6569356291 0.3434095922 1.4172195358 4.6397882387 3.6862608659 3.7987559191 1.5830399587 1.2895017802 9.1026912176 1.5698681384 1.2341329017 6.5046771310 4.6069602258 3.7491269424 4.7806640130 4.7093633897 0.5967112841 0.3616884314 1.4874793679 3.0721120069 5.5499699457 1.5250278549 4.3971041240 9.9761008346 4.5958234251 1.9220928761 1.7981809779 5.8274265835 1.4399825750 3.3492708476 0.3791932638 4.0180784393 8.4683584482 2.7250252629 3.4419071511 6.9665175487 3.4190607506 1.0739418474 8.5607709687 0.3508458524 3.4161089301 6.9566294279 5.9610638870 0.9512307184 1.8676367646 3.3940823372 1.5792539375 3.3289890936 2.7750564307 3.9173148962
5.7517307158 1.8943525183 2.2387936437 2.8016084562 4.6677319508 4.8753145347 2.2098548310 1.5415860309 2.5052684590 7.6549448053 1.4602647754 -0.0399157930 8.1198135033 4.6930111536 2.5650808473 1.1217011657 4.5727450865 2.1457240283 4.0603982867 1.6380053002 4.7031872907 9.2552139419 1.5665977266 2.7507229249 6.2474518693 4.6527739386 0.3540703538 1.4533364355 4.6373677698 3.6562357720 3.8278337369 1.6269761691 1.3034384384 9.1216349234 1.5973139270 1.2205492585 6.4470215996 4.5608425661 3.7583274824 4.7324604196 4.7676062315 0.6176967360 0.3657902449 1.4163713861 3.0508607884 5.5559215479 1.5272762204 4.3561197288 9.9865707660 4.5245985247 1.9129803732 1.7877947501 5.7709347346 1.3849687054 3.3294875120 0.4066809667 4.0748645864 8.4338850451 2.7146252562 3.4504382968 6.9186196803 3.4208734760 1.1035652408 8.5707337906 0.3155111552 3.4085759318 6.9093414053 6.0201304416 0.8737437390 1.9270532080 3.3230728712 1.6651894281 3.3112309357 2.8067777405 3.9333154472
5.1720369580 1.8656334116 2.4838811751 2.8321853946 7.1700954884 5.1385838462 1.8196833059 3.1309515071 2.3152177996 6.8126869496 0.9509527472 0.0741007469 7.5205242618 5.4439996338 3.0544572064 1.1050120033 6.2744852054 2.4696884246 3.6399198804 2.1112054264 4.9052458436 8.3782262405 2.3443021485 2.6670767457 5.8380934303 6.2147141875 0.6020434689 2.0413523209 6.4013123048 3.6705066984 3.2153124337 2.2447408619 1.1940304163 7.5103854619 2.2699557637 1.3723275667 6.8623439299 6.2566900742 4.6252986091 4.4762018487 5.9172671627 -0.0270464407 0.3387267512 1.9066770638 2.4048872340 5.2083878038 2.3553995131 4.8803569094 9.0890967925 6.5757123559 2.5731865946 1.6384374301 7.2328571424 1.3439301440 3.4879986220 0.6658964688 4.4449518582 8.3152484472 3.7813447986 3.3114260369 5.9584590895 5.2478599999 1.7987661732 7.6742078400 1.3256761976 3.6219645352 5.8710270077 7.7368989664 1.1773789966 1.2846632695 4.8172825312 1.9075600403 2.9393196917 2.9559735298 3.8497627945