-28927.3027704278
-28926.462792854
-28926.5125775519
-28926.3549686171
-28926.3587915424
-28926.8003384691
-28926.9677055373
-28927.0723284926
-28926.3598750992
-28926.0445437581
-28926.6275510321
-28926.9012121058
-28925.8972151427
-28926.1909924938
-28926.6377084923
-28926.8020576834
-28926.8560744296
-28925.851662085
-28926.6315210349
-28926.8358016869
-28926.8040899646
-28926.2924302222
-28926.7249345385
-28926.9867692788
-28926.8364006092
-28926.6917246942
-28926.4004624901
-28926.9225984738
-28926.4089378794
-28927.0312108881
-28926.8525158627
-28927.3758166292
-28926.3965757541
-28926.1555792088
-28927.0217530323
-28926.6540075586
-28927.024853904
-28926.7098727732
-28927.0133652636
-28926.7286408632
-28926.791485522
-28926.2826312719
-28926.5382990993
-28926.65920425
-28926.9159691039
-28926.8645167572
-28926.4150100966
-28926.9129772137
-28927.0632747256
-28925.7044519752
-28925.863011131
-28925.569939779
-28926.7239128877
-28926.6458123103
-28926.8535275815
-28926.0118720186
-28927.1171282036
-28926.8850704573
-28926.3711355722
-28926.8736235863
-28925.7690842849
-28926.6793352215
-28927.1573983099
-28926.69047474
-28926.8663167893
-28925.8881156606
-28926.8857776808
-28927.1205512578
-28926.5834539187
-28927.2739537231
-28926.0762093571
-28926.6076763917
-28925.7755665775
-28926.4605872365
-28926.2936092909
-28927.0771825928
-28926.8815982865
-28927.028360089
-28926.5525831638
-28926.190411395
-28926.8978668761
-28926.9985024133
-28927.3457657528
-28925.9078977823
-28927.0050565439
-28926.599159233
-28925.9708519669
-28926.3488187114
-28926.3878199516
-28926.7953679042
-28925.9951548496
-28926.7688304239
-28927.0167371605
-28925.7990137986
-28926.1750181951
-28925.7135690086
-28926.187965501
-28926.2722622433
-28926.9180049225
-28926.5475418493
-28926.7070562603
-28926.6090551919
-28927.2503802412
-28926.4084552858
-28927.4138880568
-28926.7487038062
-28926.7794292524
-28927.0518739779
-28926.3612145789
-28926.0226209179
-28926.2851345818
-28926.8841862238
-28926.8778738663
-28926.498950506
-28926.9987124851
-28926.6496684336
-28926.6735058657
-28925.7162645669
-28927.0005432661
-28926.4447945737
-28926.220073829
-28926.0772036606
-28926.9611342635
-28926.8667474092
-28926.9598217231
-28926.4769030378
-28927.0947657637
-28926.8847723567
-28926.7626097686
-28925.8636443396
-28926.31982799
-28925.8947742829
-28926.6162923278
-28926.2441727625
-28926.5613347485
-28927.0683368567
-28927.1808477079
-28926.9688949462
-28925.8099124965
-28927.0044290497
-28926.3484652357
-28926.6536468719
-28926.6700240349
-28926.3415300099
-28926.434719564
-28926.5409851337
-28926.9363117798
-28927.0703522669
-28926.8285112167
-28926.3577166933
-28926.7110608216
-28926.9294655352
-28926.612044769
-28926.5498797142
-28926.6583986574
-28926.5286805604
-28926.2292152167
-28926.8383618687
-28926.3886733001
-28926.3926735076
-28926.1197623792
-28926.5961476146
-28926.9159137287
-28925.5960597008
-28927.2682005592
-28926.5862180497
-28926.6275187866
-28927.1316649255
-28926.5424012134
-28926.381045681
-28925.7696207571
-28927.0252279242
-28926.327074786
-28926.8798676433
-28927.3320947606
-28926.9624200008
-28926.1257496969
-28927.1071193175
-28925.9344657394
-28926.6321700261
-28927.0072233853
-28926.6510182536
-28927.011296111
-28926.5838395038
-28927.1907457077
-28926.9856609597
-28925.8367656287
-28926.5667996079
-28925.8085644452
-28927.028668802
-28926.677749751
-28925.8393409127
-28927.394512473
-28926.8214438797
-28926.3818435184
-28926.3533992013
-28925.8099531775
-28925.6450751333
-28926.3388921397
-28926.7854164341
-28926.6828724274
-28926.2995647713
-28926.5956670618
-28926.5475761356
-28927.0064440516
-28926.4553031966
-28927.0823327527
-28927.0071490982
-28926.4429312751
-28926.2529469327
-28926.8003260879
-28925.6998927101
-28926.449435881
-28926.202645763
-28926.8998486801
-28927.4720266453
-28926.7505755403
-28927.0916730555
-28926.6302630533
-28926.7871646286
-28925.8555914068
-28926.9688222919
-28926.7167934409
-28927.4064318693
-28926.7588273882
-28925.8292517531
-28926.8164915464
-28927.295490706
-28926.2991621791
-28926.6131666938
-28926.8990738364
-28927.1043830782
-28926.763457811
-28926.3172639987
-28926.8164108647
-28927.0352125922
-28926.8978890533
-28926.7529581679
-28926.6363363589
-28926.5357963336
-28926.6684769325
-28926.8937899326
-28927.4877950899
-28926.8699829771
-28926.8214953092
-28926.8455511126
-28926.9081974005
-28927.0027884762
-28925.8976422252
-28926.7787067906
-28926.7332310131
-28926.9063324693
-28927.3880597048
-28926.0719945881
-28926.6469278405
-28925.8203296892
-28926.2473134988
-28927.0009478991
-28926.6232814321
-28927.0244792034
-28925.6847612837
-28926.7391634999
-28926.9826492053
-28926.9425234552
-28926.6880469415
-28926.6033273345
-28926.9339570439
-28926.1972566872
-28926.07147281
-28926.9916744003
-28926.991317115
-28926.3180913604
-28926.8487055907
-28926.6418116947
-28926.6470207673
-28926.5092844319
-28926.5715645909
-28926.8866145664
-28926.3901570001
-28925.5315752849
-28927.4806619014
-28926.0402359261
-28926.6850598134
-28926.7311858066
-28926.0425824986
-28926.7323233779
-28926.9196188288
-28926.7274801622
-28927.3980815163
-28926.3198062209
-28926.7020082791
-28926.1921493852
-28926.0879722881
-28926.5930968119
-28926.6911690381
-28925.7543844308
-28926.9044109384
-28925.8233746414
-28927.2865455124
-28927.0554064219
-28926.4024826622
-28927.1042942331
-28926.6683693115
-28927.0388206838
-28926.6447146037
-28926.6917445585
-28925.5211485682
-28926.6292291573
-28926.4223526766
-28926.4522729384
-28926.4637532793
-28926.7332629865
-28926.7962675121
-28927.0271592512
-28926.7305202164
-28926.5021139639
-28926.4635965419
-28927.0344625108
-28926.7493761992
-28926.7422669567
-28926.776546752
-28926.9942892769
-28926.8186077747
-28927.0195470065
-28926.8515936694
-28926.2747109945
-28926.8131508066
-28927.0416829117
-28926.99309048
-28926.9605918049
-28926.9841073265
-28926.8225135587
-28926.8243167201
-28926.2968526141
-28926.9208392588
-28926.6674318798
-28926.012289305
-28926.6655496693
-28926.4438799995
-28926.5826130874
-28926.343081058
-28926.4031962804
-28925.5864622507
-28926.8718196086
-28926.3333568029
-28926.8450485186
-28927.3438487118
-28926.249183056
-28926.7766534206
-28926.8597169436
-28927.4084406127
-28927.2538564937
-28926.923197124
-28927.0718252183
-28926.6359598896
-28926.9925976821
-28926.9339634386
-28926.9918212057
-28926.9041087562
-28926.774409571
-28926.7876230041
-28926.3580981967
-28927.1497672894
-28925.997307405
-28926.6835230513
-28927.3610755498
-28926.7050993547
-28926.8326232629
-28925.5076656065
-28925.6061745752
-28927.4504307497
-28925.8190635441
-28926.3792716358
-28926.8951770322
-28927.0469921221
-28926.7045676445
-28926.7394459539
-28926.1338243988
-28926.8550282885
-28926.590916909
-28926.1460907402
-28926.2133143887
-28926.8417964878
-28926.3668584891
-28925.970782714
-28926.7204551389
-28926.9517123267
-28926.1483751347
-28926.7809303677
-28926.4218111704
-28926.4873743811
-28926.1272354377
-28926.2863204533
-28926.8365336728
-28925.7138166321
-28926.2709178656
-28925.82273463
-28927.2104218411
-28926.676890552
-28926.4064914412
-28926.246603282
-28927.4492948111
-28926.2785277973
-28926.9043083516
-28926.437505328
-28927.0495419635
-28926.7316617334
-28926.9942115885
-28925.9931437933
-28925.8098345359
-28926.2510245854
-28926.0307002458
-28926.6705353365
-28926.6903782757
-28926.7846924756
-28926.9189505176
-28926.3335000707
-28926.5830634355
-28926.0904332844
-28926.9420088882
-28925.7337292323
-28925.750000407
-28925.8277023377
-28926.7558643422
-28926.8055427796
-28926.8089520922
-28927.0321661433
-28926.3183410247
-28926.6749745994
-28926.3475314776
-28926.634862319
-28926.6444609937
-28926.7538222649
-28926.9814357142
-28926.683933943
-28926.7513098391
-28926.2369881445
-28926.3331275471
-28926.9668230725
-28925.5580048721
-28925.9759335542
-28926.3894284157
-28926.512699731
-28926.8153115254
-28926.5791709851
-28926.7278609853
-28925.8402665075
-28926.3094735196
-28925.8194660003
-28926.5241202069
-28926.6528434562
-28927.0627607028
-28926.6849890638
-28926.3896474672
-28926.8245676089
-28926.9460858317
-28926.2672561676
-28926.5725153562
-28925.9492325335
-28926.5486983325
-28926.7095488218
-28926.5389378863
-28926.3190576361
-28925.8403612031
-28926.8526161366
-28927.0314991926
-28925.8481446073
-28926.7451577565
-28927.0584716467
-28926.7997228119
-28926.362344395
-28926.4870287967
-28926.3270870311
-28927.4316604828
-28926.026139212
-28926.8268498265
-28926.346352545
-28925.9194993499
-28926.9198733912
-28926.750457579
-28926.311592605
-28926.9806321625
-28926.9189389528
-28926.3871081022
-28926.5388106731
-28926.5437236859
-28926.6104451486
-28926.1390982344
-28925.7947793013
-28926.6476369688
-28926.824443253
-28925.9741829107
-28926.9022658661
-28926.9239096537
-28925.8523365188
-28926.6205726763
-28926.3478997835
-28926.6522754189
-28925.9081060854
-28926.6410451504
-28926.9447384608
-28926.7671931157
-28926.6539049718
-28926.9122867252
-28925.9591427784
-28926.6271383717
-28926.797286714
-28926.3025109463
-28926.4265624116
-28926.1694473474
-28926.3075110355
-28926.7331218955
-28926.2903877368
-28926.8886747393
-28926.7177081511
-28926.8628432579
-28926.9981806389
-28925.8797499331
-28927.1403788225
-28926.8829244326
-28926.7069270063
-28927.1519193006
-28926.5946081313
-28926.2380956472
-28926.8691173835
-28926.8802793513
-28926.8439514922
-28927.0511667544
-28926.5112451472
-28926.970651032
-28926.2425740945
-28926.6786546651
-28926.6329847345
-28926.2292530405
-28925.8748785537
-28926.206264467
-28926.377065474
-28927.1738788761
-28926.9459248765
-28926.0683898979
-28926.390566123
-28926.9633194726
-28925.9233222753
-28925.887250203
-28927.0424181629
-28926.2636561033
-28927.0677075938
-28927.1853022092
-28927.484609863
-28926.1759692325
-28926.2989798629
-28925.9583405872
-28926.0502095735
-28925.8281503729
-28927.3331921951
-28926.9969019766
-28926.9277769336
-28926.616089467
-28926.3344683873
-28926.6613978946
-28926.8083894971
-28926.7534354553
-28926.2420274181
-28927.177337033
-28926.8648974442
-28926.5665835496
-28926.8925316788
-28927.416609738
-28926.5979126801
-28925.9472310012
-28926.4043534439
-28926.638049995
-28926.6411866496
-28926.6654831375
-28926.1507504152
-28926.8942454509
-28926.1121040113
-28926.5518367559
-28925.9039028811
-28926.6129152607
-28927.2327302664
-28926.8451462074
-28927.0423940809
-28926.0550042169
-28926.8098398631
-28927.0799852279
-28926.6123321211
-28926.2053273074
-28925.6294830184
-28926.540574378
-28926.9896029348
-28926.6907378739
-28926.6217697045
-28925.7996162583
-28926.3170185521
-28926.5776898703
-28926.7441302552
-28926.5507559203
-28926.6103429699
-28926.7579134944
-28926.6109768588
-28925.8132686108
-28927.0133289364
-28926.2846763424
-28926.5759229
-28926.3854390928
-28926.654996964
-28926.4923513407
-28926.1402696839
-28927.2789763977
-28926.2781643894
-28926.7678751687
-28925.7031085498
-28926.6149332559
-28926.8550880175
-28927.0419056368
-28927.3004537878
-28926.7538436258
-28927.11191192
-28926.6372038574
-28926.2224374086
-28926.6437271031
-28925.9350467022
-28926.5457661714
-28926.9790899581
-28926.174108519
-28925.9089160318
-28927.0238299401
-28925.8658785291
-28926.4710312323
-28926.9845330484
-28926.7520407365
-28926.677218585
-28926.202765629
-28926.3048935739
-28926.9280245571
-28926.4513061185
-28927.0062503067
-28927.3766245347
-28926.8603060698
-28927.0015057322
-28927.4214734983
-28926.7531796684
-28926.975523772
-28926.2534752414
-28925.8084297489
-28925.979568449
-28926.9263412617
-28926.7498570241
-28927.0134075773
-28926.3131397074
-28926.6933690773
-28926.1885206129
-28926.0900906933
-28926.8201853539
-28926.4834812504
-28926.7110892575
-28926.3832884422
-28926.6215951435
-28927.0862790817
-28926.7742540581
-28926.2993925233
-28925.8541897491
-28926.8652094226
-28927.1710023622
-28927.4647333179
-28925.9984859294
-28926.5456136516
-28926.389994004
-28926.8919938461
-28926.7788844808
-28926.6620647092
-28926.3486158507
-28927.0140588814
-28926.3893612036
-28926.6582975671
-28925.5126835192
-28926.7949220459
-28926.9350848191
-28926.9429155711
-28926.8669038746
-28927.3064200167
-28926.2765428639
-28927.0021548594
-28926.5295476507
-28926.9345765107
-28926.9641861547
-28927.0983523583
-28926.7998996858
-28926.6221112071
-28926.5376196314
-28926.9084289693
-28926.7333463893
-28926.6958911631
-28926.5132770202
-28927.4615441453
-28926.5379954205
-28927.0432253882
-28926.6827030367
-28926.9299625508
-28927.099507617
-28927.2811854167
-28925.791009302
-28926.7890350021
-28926.6211592174
-28926.3727330157
-28926.7744480751
-28926.2676556305
-28927.3226007136
-28926.9915580717
-28926.1918312843
-28926.0531088089
-28926.5988717448
-28926.3688943078
-28926.8773424282
-28926.2457780972
-28926.2613537493
-28926.9559454635
-28926.7480471959
-28926.6924076996
-28926.7404277402
-28926.2936688838
-28926.7379316412
-28926.2976263694
-28926.8551277461
-28926.029372467
-28926.9005961765
-28926.4291390562
-28926.2546143093
-28926.3881100248
-28926.8472840687
-28926.7147376219
-28926.7346959372
-28926.3434356222
-28926.4520782411
-28926.6614872839
-28926.8367196625
-28926.6364559529
-28926.8797755328
-28926.2455734677
-28926.7797830003
-28926.9731891725
-28926.2549884657
-28926.5899698173
-28926.8762932938
-28926.166710836
-28926.7466443137
-28926.7166782007
-28926.7693390044
-28927.1219145475
-28926.8497264252
-28925.5557864652
-28926.110191188
-28927.0293041874
-28926.998066079
-28927.3137253171
-28927.2276418763
-28926.8193751353
-28926.7502834262
-28926.5416987518
-28926.2714431811
-28926.4079729643
-28925.9965867119
-28926.7437728339
-28926.9487042458
-28926.9708645052
-28926.6227373408
-28926.3192811776
-28926.7731023368
-28925.6560863502
-28926.8571339043
-28927.47673843
-28926.4083761007
-28926.9733464542
-28926.1340121573
-28926.7457436173
-28926.545753246
-28926.9930639489
-28926.3644587184
-28926.4762230257
-28926.3906239472
-28926.6523521549
-28927.0641463058
-28926.9071731646
-28926.4519902123
-28927.0540942897
-28926.4940240236
-28926.774615289
-28927.147444799
-28925.8920743707
-28926.2842191914
-28926.6163819893
-28926.9219851296
-28926.1385082919
-28925.5431606617
-28926.2327615384
-28926.5587665394
-28926.5960382249
-28926.3531910343
-28926.9887129869
-28926.2928219299
-28926.4238895748
-28926.8748716358
-28926.719325867
-28926.6292276607
-28927.0982931736
-28926.1655899997
-28926.8352335135
-28926.4944690655
-28926.1085432675
-28926.6352424619
-28926.3420520601
-28925.9443851001
-28926.6278304929
-28926.6534720389
-28925.8195783832
-28926.5622853777
-28925.7913713493
-28926.6206424735
-28926.3913840968
-28926.7267436865
-28926.9903833569
-28926.6528376058
-28927.4131072266
-28926.1109441266
-28927.1832186346
-28926.7803913104
-28925.9241650114
-28927.486258736
-28926.5461005991
-28927.4299891605
-28926.5765540677
-28926.8055886308
-28925.5075856051
-28926.6841889135
-28926.7432434367
-28926.9031861547
-28926.6310004814
-28926.7883475068
-28926.3032670142
-28926.8946265461
-28926.3515544065
-28926.693940244
-28927.186833529
-28925.5311043921
-28925.8798268052
-28926.8278029048
-28926.7538455306
-28926.0614869176
-28926.3903647589
-28927.0019699582
-28926.8966680792
-28926.7027959122
-28926.7690108352
-28926.9869499623
-28926.7640937407
-28927.0806214297
-28926.6133321389
-28926.7600310832
-28926.5995416888
-28926.9217976432
-28926.2308136125
-28925.5148835585
-28925.7037398536
-28926.7648563393
-28926.9787503602
-28926.7044152608
-28925.807553951
-28926.6620615799
-28926.3869800727
-28927.0787424846
-28926.1999556469
-28926.5264369829
-28926.195588086
-28926.0082153547
-28926.2457956486
-28926.5717455465
-28926.1137794153
-28926.3658739817
-28926.358405141
-28926.2166084611
-28926.136344852
-28926.9753399592
-28926.027371751
-28927.0613051666
-28927.0769855825
-28927.0442002356
-28927.1885625395
-28926.6177863681
-28926.9116416797
-28926.2416196557
-28926.7205165005
-28925.9156532949
-28926.6516030259
-28926.2621651924
-28925.7427208213
-28927.0219018785
-28925.8298396548
-28926.6687109502
-28926.9066214541
-28926.7778160264
-28926.3381250512
-28926.9292345106
-28927.4397002181
-28926.2994114352
-28926.6961698076
-28926.0531292174
-28926.2906940008
-28926.8138502748
-28926.6793741337
-28926.8459315276
-28926.9337707821
-28926.5411979266
-28926.9038937863
-28926.6758235942
-28925.8124525418
-28926.7605531333
-28926.8487073594
-28926.7605407521
-28926.8874936297
-28926.1832659614
-28926.3199414614
-28927.0013755258
-28926.9162412176
-28926.6652567389
-28926.3319932411
-28926.5637696219
-28927.2910611032
-28926.6804952422
-28926.7071238806
-28926.6322958787
-28926.7601509493
-28926.6534713586
-28926.9832296238
-28927.0742043084
-28927.200695273
-28926.7030329232
-28926.7565076189
-28926.9725839916
-28926.4604371657
-28925.8423609666
-28926.6946659712
-28925.9244684182
-28926.3502849961
-28926.300624246
-28927.3602321334
-28926.7422601538
-28926.745934369
-28926.6387396671
-28926.3978082931
-28926.7021107299
-28925.7299290284
-28926.6486270544
-28926.8373602182
-28926.5353828568
-28926.9217936976
-28926.2277364148
-28926.3878779118
-28926.8240458309
-28926.4626412867
-28926.3905172786
-28927.1652600828
-28926.8133784297
-28926.6723281576
-28926.6206515893
-28926.2448168556
-28926.5697068707
-28926.9139252579
-28926.5812604102
-28927.1087057404
-28926.5777549054
-28926.0599234883
-28925.7711896286
-28926.8842145236
-28926.9301014649
-28926.2701043817
-28926.7195088635
-28926.4756480494
-28926.9173710336
-28926.6911437315
-28926.5629259333
-28926.3060799896
-28926.6634319445
-28926.8644534907
-28926.9480548465
-28926.0746018455
-28926.3314518709
-28927.0685174042
-28926.2203055339
-28926.1630700908
-28926.6289902415
-28926.5499084222
-28925.9625988945
-28927.3796097581
-28927.3243976164
-28926.50180321
-28926.8343271028
-28927.2639392587
-28926.6264806729
-28926.5619759844