0.118266313404693 0.0264088153585017 -0.0651406646882012 0.195442048658894 0.426864096356564 -0.170568695314538 -0.396729497333128 -0.503519697710125 -0.53152696707766 0.183915284925106 0.833129296164681 0.0333564467292732 -0.0862344983393315 0.27896866254863 -0.378966011885151 0.147213834712236 -0.429324126589542 -0.636939828203188 0.690022025298717 -1.50187802490439 -1.33496800749696 -0.297374152124089 -0.648648625946691 -1.25606037804864 -0.317692284352467 0.180435298595323 0.735155661080228 -0.512357603147876 0.0804109526895655 0.539266240702543 -0.0483621683521117 0.443940583394996 0.181887199799925 -0.710407777505279 0.0445767351246722 -0.19976895593218 -0.478008711111402 -0.0472943897612297 0.720984262001914 1.01404281970078 -0.397249374123584 0.390474263685748 0.828812159078358 0.212387923724255 0.528846850527852 -0.834585568242397 0.541762266361171 0.189538284631966 0.00868261088709038 0.0612482736245453 0.222201048086932 -0.526648558461384 -0.151211898061193 0.119131232061021 -0.402621177181445 0.164533547983989 0.327087604667423 -0.0714138960484061 0.50481656147425 0.0638538282212221 0.531234375689164 0.428940003975822 -0.869841545005246 -0.163455742095961 -0.709076718086788 0.783875983917554 0.369027160642883 -0.210880229609896 -0.19368418633627 -0.0821459322058843 -0.0939922838974061 -0.536629318663514 0.841378419282875 0.464652351313873 1.33843565253795
0.140339222633497 -0.223731367897413 -0.346077505689324 0.0857706715688159 -0.332805992252255 -1.23212136311008 -0.992438622335972 0.604750147485333 -1.10125562228724 0.17759474529119 -0.412613507341821 1.32148257838746 -0.854895987165279 0.340530867706878 0.688851916854916 -0.0584912811299563 -0.997428873881946 -1.03133810750513 -2.89964802286305 0.930688212523613 1.20667079740441 0.377338504425415 -0.246194570384334 0.759289051317298 -0.428666181630701 0.483297724690269 0.854227243578743 -0.7416039844752 0.0332494888930568 -0.428184100037177 1.03655024513921 -0.0272233404189193 -0.833217484957523 -1.05094275897509 -0.270026884596862 -1.1299455191912 0.81715735447333 0.558028856322485 0.544934491801649 0.739650204192967 -0.181029737338911 0.245926661573426 -0.871525873815471 0.689555113206003 1.23904791144583 2.12037816787775 0.21469163096584 -0.634294421528113 0.594724907221507 0.141925592463919 0.293103037760561 -0.518432602556824 0.0763766368047762 1.50203383367541 0.489718537295638 -1.93163101127953 -0.415776991036069 0.15849454400069 -0.365441759137983 -0.407309067151961 0.136374326498175 -1.12007094549474 -0.99598699997449 1.01292619017509 0.409371862151876 -0.999146112795623 0.239744190107895 0.4205381574088 -1.01060062856793 0.105970276002733 0.769472928564166 0.734382530759307 0.183912713823274 0.435721285058055 1.17530361216265
0.139417225516497 -0.259918854854041 -0.408636012807521 0.729431359961182 -0.707013151756323 -1.65290557496421 -0.769780946563655 0.434320034559546 -0.690189661138171 0.455443178771563 0.344435600059328 1.16340532421412 -0.620711547659173 0.20999859879166 0.964462206190423 -0.06257316239864 -0.291330005937127 0.388192925030102 -1.60431534987959 0.820189969084322 0.918446168260127 -0.27113194416431 -0.307463412823536 0.668052474363564 -0.644823340640853 -0.80558405379638 0.758131027052108 -1.05225762045204 0.207432124942832 -0.258685240194986 0.879747486144062 -0.0767836422248018 -0.661782328325558 -0.281279311765162 0.364542387717106 -0.927386917771163 0.722971466607964 1.44663841626152 0.814719692826291 0.63482561116663 -0.016811663549724 -0.229356681595922 -1.13856925184633 0.739030568651425 1.02480750885153 0.325625676165676 0.121696420358933 -0.42592024487399 0.297057392378372 0.0891241596884582 0.360230392834447 -0.534752157215879 1.05294307620048 0.794748145124883 0.371365320649019 -1.49203584709101 -0.377045655926736 0.212604153388337 -0.943587173305207 -0.636989450468548 0.436118006070752 -0.756078773569705 -0.894986663813257 0.844062392485432 0.236918034974022 -0.515202784435307 0.276318885000441 -0.365881160441094 -0.955099024648369 0.26352739627543 -0.943754809144662 0.306772814871427 0.391679082004282 0.898973157203969 0.472217561344721
0.239541330173341 0.0294308884519829 -0.00131049060383475 1.89096389360078 0.508315831067774 0.622218470442982 0.440671170305265 -0.302730271460775 0.0586617451814263 -0.572206940265562 0.0770186409322581 0.515126422710893 -0.437229236282597 -0.509213402717369 0.256624244966354 -0.2293325132387 -0.0257452139756299 0.680428730142687 -0.47700572428669 -1.06902094728732 0.400477906694185 0.950156081376106 -0.567973363988783 -0.734950487154024 -0.988328716057318 0.804419344666427 -1.42473545686382 -1.26711971546935 0.517070432806164 0.0158798962457614 -0.0497657328422694 -0.0361836303038793 -0.819210636396466 -0.667037660470424 0.013525024077717 -0.257378863354083 1.02660008104888 0.0745627244622111 0.0940210802379259 -0.196333192553909 -0.686414255207877 0.228517216847733 0.229197016172147 0.644416335220828 0.524471863650306 0.123240881229491 0.740437989794331 0.510266783137991 -0.0279931283074579 -0.00458710277869646 0.0305554883933549 0.0807027727475119 -0.0642160964693686 0.103823148862724 -0.786010769768769 -0.172276935371803 -0.82723813053673 0.533656353615027 -0.0831892853293612 -0.109093907618583 0.360500615637003 1.32175640073258 -0.190273105535588 -0.704647738070767 -0.159964185807934 0.0980983335233117 0.683924914414012 -1.43473524321951 0.968734606104867 -0.662504293720019 0.536151607943105 -1.45876296117128 0.506360508124442 -0.150855029126894 0.715047844981718
-0.453166210989032 0.0648334180192622 -0.422040709319495 -0.175070694622592 0.723911975658156 -0.77371010438351 -0.583459881654229 -0.040634464685473 0.145900515896386 0.279555387986722 0.741073051946866 -0.10158037673456 -0.348699258227543 -1.36713686228998 -1.39997497488989 1.00179023391978 0.060134215200685 0.341965799639388 -0.315326870666911 -1.76796263906205 -0.706087555096758 0.0142513603452926 -1.47887771924473 -1.1153558018448 -1.88306624010304 -2.52652741099324 0.334550227735169 0.410229838833256 -0.0708037735836426 0.297063820132952 -0.206775979755273 0.458940134373438 0.41639174148413 -0.270230258751783 -0.4416263346359 -0.234566762348543 -0.881467296159571 1.05278083967488 1.92590619594011 0.00441715294759291 0.93917773366311 0.0785618162519003 0.645175067371488 0.286935992906023 0.913943654731707 0.405093548703218 -0.154822239253864 0.200952176995324 0.0701615123459774 0.559492841705697 -0.749849765161012 0.505414599760402 0.312923918894606 -0.553371562463771 -0.236422583650972 0.862962304943209 -0.448754200245103 0.252768877769081 0.757296704507583 0.968471839497624 0.74141989358402 1.36612384816812 -0.151409872902266 0.147063168144874 0.18737136000785 -0.0470511635279105 0.444150899524864 0.858788635339118 0.0866895833636178 0.458375520411103 -0.768432403652705 0.282685447357152 -0.0261812728463585 -0.615922356276472 0.710670029892156
0.156346388419949 0.0323215782418424 0.214877778738486 -0.75084915244316 -0.321610386434444 0.137823656600945 -0.12668615768454 -0.811503501544484 0.698203271328543 0.408721373388348 -0.224685503787315 0.313750013913268 -0.720498580865825 -0.269627592482333 -0.134871774587481 0.0282985752051145 0.620390931260707 1.3254793561855 -1.28507937598712 -0.11855736213209 0.0237724075398394 0.376288980657541 0.247910780857278 -0.146749750831538 -0.0411445712889669 -0.640982885834206 0.0131936090515559 -0.0723508055560329 0.181868687866733 -0.221292420699458 0.240718637702271 -0.336996116908071 -0.0886554478244616 0.171827763881731 0.58138320270442 0.32133630697914 0.381716576625159 -0.231012728285995 -0.836417992518154 1.60425570031709 -0.0471442374142335 0.100766108784326 -0.158817474390805 -0.0586085233735013 -0.545702222808722 0.732995421320875 -0.174899202130389 -0.334295174433423 -0.189546255047646 -0.0276362593731587 0.578588672123082 0.30825762617948 0.633492751976856 -0.659072386994497 0.972369629875128 1.2900894250172 0.372813108090689 -0.162189217333456 0.243239603048671 -0.124026352839206 -0.949725678929408 0.222227530435802 -0.272764850937893 0.249806197127922 -0.260073120963968 -0.353936592659585 -0.623575240879795 0.194722911476449 0.842265192304775 -0.255374946586124 -0.0504162216057974 -1.00118319677722 -0.295765927928095 -0.673894274836338 -0.223901060618333
0.0711770975696673 0.192287563821059 -0.21339271032025 0.265112994775302 -0.957749573527108 0.271672389769423 0.942105961539719 -1.11437415516529 0.244644967310111 -0.232213947061964 0.473139301351538 0.391720733853963 0.0896149830282111 0.571608901979409 -0.0171273948547091 -0.288685370592602 -0.118395125606483 -0.539499953859084 -0.336810740465975 1.21958904144975 0.967810809216584 -0.514356377712171 -0.0783597276478952 0.284987097717272 -0.754373618834638 0.312378331085829 -0.313186942612032 -1.05565224620099 -0.168119206599072 -0.506194929166453 -0.461678614934836 -0.305989143032995 -0.584995600778558 0.404429690210163 -0.232863407384759 0.224571346865969 0.700699296987171 -0.0496292073349835 0.160836046439208 -1.31049343204677 0.70270244242458 0.258012639955702 -0.813392232950364 0.0845758805474268 0.316154508346673 0.64033651083361 -0.343873814309009 -0.367784547127417 -0.148554407207507 -0.177686276516414 0.467580322080298 0.284426340407685 0.378583689042713 -0.0742719328449977 -0.138340962289569 -0.00853528675210954 -0.125385951488034 -0.071732969785773 -0.896125404814706 -0.290154755289662 1.5632661664686 0.212244456242023 0.769539777211802 0.824756503048362 0.328305792715484 -0.511084393520607 0.592170260441106 -0.267782569807599 -0.467939247896063 0.165746850938569 -0.221049194466139 -0.150396087449859 -0.417557736164999 0.465116692304755 -0.196115420228728
-0.165395124207934 0.0579495499739273 -0.0361229523006411 -0.576600181966116 0.795865803091309 -0.0897455950012831 0.613497550138593 -0.40349715157565 1.20982193980987 -0.706385545799101 -0.0863751376095488 -1.01267190820389 -0.337568958396269 -0.453174952735261 -1.02827104012958 0.0341573449499806 -0.550763693875445 -0.276891983598822 -0.465621399594401 1.93658115363692 0.751894048227736 0.473364272761849 1.20528831594928 1.19116885312797 -0.809514497167151 -0.785551056761185 1.83199541597079 0.179287815847645 0.00142079087243297 0.271607083782887 0.0446122163299556 -1.43110021944925 -0.895524024096171 -0.626676246799523 -0.848968054781128 0.193009014995153 -0.272659178652593 -0.609613129490617 -0.376447103420217 1.05132816713972 -0.580078882744983 0.127581415342487 0.00682730380502807 -0.572626286974381 -0.254583818552379 1.5760684538213 0.724065727547717 -0.375961165173945 0.396977094439561 -0.265656011482247 -0.14393362299481 0.201125469258809 -0.483514468574717 -0.252033542645093 -1.0386793745664 -1.47307628507072 -0.358676161776926 0.154250940426766 1.22325466133181 -0.0286469595033676 0.017382448156456 0.400113581564572 -0.360941045380846 -0.139029246250029 -0.478521388816728 -0.396846482466489 0.301292254206067 1.23988506220237 0.129291455171034 -0.18831572571079 1.9382523698278 0.541013561507656 0.276273633608196 -0.500160553166452 -0.360085896911481
9.05027844908443e-05 0.0106795856801028 -0.113010209929278 0.0154368954000861 0.377958139966957 -0.160022035599157 0.38334048454233 0.0438565695014937 -0.497298402606929 -0.670030423003019 -0.688705106940302 -0.642520404729818 0.119477816587991 0.158626955745045 1.38367007551128 0.332672037846801 0.740069808011971 -0.123217998423185 0.790125561140904 -0.34952252503419 0.0332769996826605 -1.32949953101021 0.5650600485028 0.812344251843589 -0.0834960177779338 0.450971004244762 -1.91368343494037 0.728114184492583 -0.379767167216041 0.597657248861047 -0.683344616730502 0.145338730146067 0.110727585722716 0.541193281525722 -0.384528590698956 0.405330861402323 0.509785215764834 -0.271133743935592 0.619744042039744 -0.905000848339206 -0.220969490309343 0.39141400140539 -0.109856239311808 0.381645357104409 -0.143251252568563 -0.169885553557743 0.49060299632589 0.348157012851148 0.508518691002328 -0.129854783582453 -1.03927484175072 -0.487815664829681 -0.438570580108418 -0.0501303150820649 -0.862179404435326 -1.02846207299571 -0.0337986762443989 0.64779707701989 -0.721467372036171 0.481333917110891 -0.0583964074723509 -0.146833825861448 -0.354758573915315 0.315822836210328 1.15499190768886 -0.276133765668528 0.147381213441508 -0.39891776210245 -0.221988932185781 -0.075606077585688 -0.0194038484168737 0.379599274266403 0.395355500514039 0.658335766319593 0.00583357294691127
-0.612035364526663 -0.347198506088131 -0.203315019579048 1.28815647065981 -0.518605380599943 -0.17420140509315 -0.584673184608809 0.302324037371299 0.803439754868386 -0.919067603572952 -0.499358626505012 1.39516470047217 0.709270322054747 0.914169397472568 0.186091722626001 1.36743125344976 -0.623449771110388 -0.66067084100353 0.710951565542774 0.699116269589131 -2.10183203903207 -0.375356699133212 -0.141631715524507 -0.115667186562597 -0.967524902692852 0.907950930581387 0.560883036466328 -0.371058588200446 1.02361040383849 0.282635053761243 0.218074172536186 0.133429643569841 0.643911370820998 -0.341563679312843 0.256304142788254 0.457117737394827 -1.06471358038796 -0.134287877361405 0.556189490071781 1.15838807609891 -0.247727204186464 -0.56731850435214 0.363395162079611 -0.268396548925111 0.336421732758774 -1.14051968969618 -0.298108458807345 0.180476179114454 -0.404722538708842 -0.0846879805873076 0.147437777681815 -0.000990388425735035 -0.238563540146583 0.945088182554802 -0.254242119118889 -0.743627441617084 -0.307807169138491 0.870423385349856 -0.313656682916762 -1.20067704481336 0.0795401204990244 -0.0569738168286354 0.38462577834821 0.339254829867594 0.420522473687624 -0.137690730636224 -0.224365658719399 -1.06091709142264 -0.634247627474768 -0.00484292741099302 0.840868569789564 -0.807454530379252 0.160791052157146 0.0788947739391607 0.0313993240146587
-0.00774184472671538 0.0999832082764435 -0.464021402924269 0.49448613142295 0.661246767813926 0.26824922479013 1.28309422826253 -0.5854727972786 0.279624293515823 -0.114040450433411 0.634817383640767 -0.777771159727354 0.346706654307646 -0.0824130696862422 0.872426273677082 -0.433824583236496 0.828651208103667 -1.03937691449345 1.1500091123382 2.23871184415044 1.59544196323656 -1.03724649951535 0.784777926440264 0.403315374676119 -0.144947408447217 2.37763824632719 -0.448643128645955 -0.0874300606912702 -0.479899499398748 -0.477039662830874 -0.160352165074402 -0.127367242559871 -0.454022902119496 -0.145000116034776 0.246238536225663 0.349290868759116 0.303398757937128 -0.769028385057392 -0.927027734845215 -1.20639491817782 0.122163332451647 -0.00377771992194311 -0.198873955384416 -0.450098115172756 0.766937307937323 -0.764357978579334 -1.32117173217596 0.513246433051242 0.0822212654895656 -0.260349771521105 0.04277105030797 0.976262020938784 -0.787201961247593 0.088554403522459 -0.178483832304739 -0.99847119856469 -0.699697852823558 0.48091122796969 -0.626364372147286 -0.568215561781369 -0.543315726088142 -0.161730018546238 0.627802132291811 0.440991529593548 -0.587012373055677 -0.145236143182965 -0.373082302452513 -1.13829671505213 0.208538727171379 0.419902323925715 0.868241548335113 0.503440250663513 -0.582890896818779 -0.487592750300836 -0.514808120304076
0.145130213787481 0.0331114207246716 -0.101858312842613 0.694781906120532 0.549147242153588 -0.348127702290262 1.22246199063696 -0.219542528792513 0.409671909735685 0.148038644179982 -0.157239074976063 -0.888955887355822 0.470304147361253 0.407411397004879 0.938699508722335 -0.617817001216565 0.303444266439556 0.830363819034046 -1.46552701587123 0.0484886665622523 -0.315968103463843 -0.00288503336582887 -0.272367615704829 1.42562531520792 0.0529423291558614 0.732559105339963 -0.594477824335439 -0.445032016122734 0.0579048128020483 -0.570131546866669 -0.160442153638526 -0.0718399276219894 0.139358604394724 -0.20992095151633 0.510694357372674 0.453564988883195 -0.524415042299816 -1.15383568319495 -0.949524875876319 0.538594926014175 -0.351223308896142 0.720372339765868 -0.896983895716453 -0.632644802592621 0.481126943413405 0.63170994996646 -0.722671419024155 0.281776305749312 -0.0172814038544534 -0.40758828881093 0.378945443070494 0.843427073222713 0.301333391835381 -0.309881276986468 0.434261413437774 0.955610673912962 -0.163161608046366 -0.0391949047696655 0.312443637072365 -0.678421213832163 -1.07379856871178 0.124411246783475 -0.629914549557086 -0.0992908105530518 -0.339026516024901 -0.70325780042032 -0.286749073802828 0.953987280216158 0.382108669654559 0.423809113159631 -0.324413915872195 -0.201906055775043 0.233876164396434 -0.638154930929051 0.0139731671270566
0.382788726089156 0.0657417882965524 -0.0542559050818947 2.05601089062065 0.612057733112603 0.491767448345659 0.717047390876562 -0.480760047181961 0.164507579855484 -1.16385732391621 0.062829501251303 0.343028693136789 -0.466045117176336 -1.00066589108859 -0.0672307133675367 0.485267445803861 -0.184771204725021 0.0529811527935265 0.738278521365528 -2.37963239290818 -2.93116330357033 0.0747707266004302 -1.36439632484711 0.0593801110333224 -1.97691197119602 0.831868427826207 -0.474818230847917 -1.01323112285238 0.493621212766623 0.581293985470846 -0.326438401454811 -0.353750187776756 1.64534370736575 -0.288185291286253 -0.147530594457954 0.505816205866581 0.663135756329989 0.287640474808026 -0.168787693075425 1.35781893214017 -0.779630580572348 -0.380719503334661 -0.476795151046639 0.727269834650913 0.389456107360226 -1.28945590552576 0.665143529750697 1.06019923979111 -0.851457395574993 0.0269137797583312 -0.105627805238693 -0.172684712122378 -0.0652838750602507 0.48830931638145 0.0890567968204565 1.12927677560466 -0.476153146919157 1.02456659660986 -0.567041853795003 -0.548310348507231 0.512922988440761 0.808697658115085 0.0114902540877722 0.177990437863154 1.49982885674418 -0.708132095273664 0.680747546769871 -1.00989229001318 1.05879927484352 -1.18488430891971 1.05731369220491 -1.307350260057 0.249543944741045 0.0651522346464458 0.370175671831294
0.114121697251306 0.0207883867534737 -0.00200083144576065 0.344289818585447 0.800236933316107 0.161404517054291 0.138929744609126 -0.0478608034948471 -1.46424763559957 0.435777849298362 -0.744151689280654 -0.442261396788435 0.108951982797449 -0.0367811543696654 0.244624912715821 -0.635807772066503 -0.138433264845342 1.30837535835746 -2.0251198734382 -2.65192750354135 0.0480497794795084 0.0665766250614438 -0.0895851582469584 0.423601368131595 -1.40628445878593 -1.23136957293437 0.143238397059403 0.19426525535033 -0.443815370735772 -0.251236758187317 0.0103972786989354 0.703944798829864 -1.14590794780577 -0.548638935321376 0.220955349249266 0.158744455098773 1.23183519947616 -0.355778787122303 -0.41518486628413 -1.62222050303852 -0.271313463953658 -0.00945934075057572 -1.01688003057253 0.0806600924570986 0.237281331662902 1.50942318034094 0.871194973009677 0.456276729985538 0.303015149543775 0.249821623738914 -0.497761458046895 0.00630202770072467 0.492608455754948 -0.914089693315772 -0.455512855631214 0.347359457062823 0.705383073194755 0.286081615767208 -0.224828199938998 -0.0740258783996632 0.68844568276544 0.40927133207024 -0.560557534974381 0.0215136945803165 0.747209243579419 0.244114034781777 0.888897266234049 1.05590241440926 0.0870690779940397 0.526093200465644 -0.779508453235322 0.200899983628132 0.835547160327613 1.01540087568851 1.35767006534409
-0.0104057633349814 0.0475157616289758 -0.134423374427958 -0.444899090158013 -0.0989347129493024 1.12780919067889 0.297313217010668 0.542003435713025 0.527287477266667 -0.462113388254648 0.173809826284117 -0.672089618460369 -0.328349244336447 0.0418395401141906 -0.437433381768068 0.680022753163395 0.0226845743546668 1.33214339502419 0.973723057879559 1.45074780831981 1.27045237766415 0.833324699903923 0.378641538833936 0.633585568752996 -0.149674636275764 -1.11645726186968 0.076132125020541 -0.0498243539640419 0.0241902115875599 -0.143976303285223 -0.0995690037712879 0.527321158700668 -0.657179798935869 0.108135143745383 -0.0667542881980437 0.921298805742871 -0.517074803679278 0.540135530231985 0.501302893710466 0.980407408422721 0.558808157287802 -0.456845457710805 -1.48322390978176 -0.220789513181094 -0.287292604730139 0.41676069459704 -0.502200722470245 -0.064199641417643 -0.00814602193472562 0.193375911226598 -0.633981775545326 0.0156307564782284 -0.667331794520019 -1.23134669012806 -0.0239012197416289 -0.310480857933719 -0.276307057932013 -0.0281736196560731 -0.144750976267243 0.756755744682103 -0.432602538535686 0.657192911555213 -0.452930955171392 -0.897346163964599 -0.589712544199776 -0.750419007106645 0.25552509893312 -0.113000696852499 0.426272485824991 -0.0539075207836416 0.293178885264609 -0.586157224586312 0.428368190928357 -1.62103213977171 -0.788457173162037
-0.0583218455192192 -0.589707916216479 -0.878030761450751 -0.761893834583425 -0.695766638122236 0.928239238028512 -0.376007702117106 -0.214164555090255 -0.337216717445268 -0.749861849339623 -0.761451090847932 -0.903356628717561 -0.367154884288729 -0.0998101731231414 -1.29105847329773 0.0995155248531797 0.292657208702871 0.579963697382903 0.388400670058138 -1.13489694709951 -0.863681699235837 -0.193439160331668 0.460096873087711 -1.28376322895925 1.64657500803315 1.44756015626834 -0.391444854627375 0.157451447987397 -0.258186703549737 0.161109611674146 -0.586776345907488 0.5257615283293 0.0064532084884537 0.338132029697505 0.610634114028154 1.26776171959683 -0.394390565996442 -0.404521992765936 -0.0831514901324289 0.624731979594069 0.301631896758091 0.618899692198074 0.941621308844363 -0.43948229281809 0.0618905348622105 -0.360346092416892 0.230264537652846 1.64289756108266 -0.44680839037855 0.0548696270892233 0.683955253415632 -0.088940068797278 -0.0740209933061821 -1.07383070748468 0.353729618962099 1.49796069415296 -0.315950877081568 0.122517887394297 1.24354913942333 0.460648117320519 -0.869215481709123 -0.503348719438289 0.587253799517714 0.523302526537055 -0.176718256676618 0.531232318807698 -0.403999544873648 -1.10339349346065 -0.123086100899197 0.695591031867102 -0.227164045953485 -0.834744976555989 -0.234413010458982 0.0176480429757146 0.849011506402091
-0.0511477000770373 -0.0127698914696215 -0.25766117033525 0.555943178516264 1.66884306389102 0.467374376823545 0.589599672829346 -0.11397154490431 -0.0848710430377549 0.318947753377095 0.917895181137502 0.26880946787935 0.211290063241937 0.378116262729633 -1.13412767343134 0.395046968294184 -0.941385024585991 -0.664651163749845 -2.65562551930649 1.60749863105795 2.00144259666615 0.924573103926084 -0.909416715735882 1.35830615593736 -0.927580521739122 -0.322909564190218 1.54944058058671 -0.163923939739591 -0.524238921824315 -0.489128469425165 0.792900037127951 0.232500624916246 -0.264527554888127 -0.532927703355802 -0.229359509807938 -0.948313886913388 0.318138370520341 -0.0479842163827892 0.135113972380067 -0.872861561217261 -0.0720708125665144 0.782981240479975 -1.23763997608256 0.78174762582092 0.155653733586374 1.0306876187416 -0.512347832960914 -0.406335905108501 0.779003231725309 0.705725543958794 0.0884821555609763 -0.247918494162774 -0.459018295869135 0.335136181842711 0.350873124826606 -1.57520610626681 -0.63182282133689 -0.190344839276704 -1.00619530268876 -0.672713367764843 -0.173208702675766 -0.141551240037162 -0.224710186364904 0.0939760859558637 0.767539202876224 -0.429274247213999 1.00140636841625 -0.577181250980176 -0.435294482153922 -0.192434630845856 0.779390182551044 -0.444536564799683 -0.116771989019861 -0.393649574448424 -0.0547719252196025
0.750193521475968 -0.0358216191659159 -0.173749405391062 0.0436123148274417 0.453844467652347 0.756963746820323 -0.515361164308166 -0.789919101663784 -0.649223267206171 0.166911302958339 0.0661829893709452 0.780688074755901 -1.0715359990995 -0.54204303068124 0.309358314873813 0.206616828551865 0.531926773412556 -0.917050059965282 1.11810970901719 0.56797799197208 0.683777333168848 -0.297503735656429 -0.0975308913489614 -1.18893507985622 1.71750759381859 0.315569068459497 0.419046661235984 0.39847758946879 -1.09341813257236 -0.211171535447476 0.224848254533289 1.21521688278422 0.364269593812717 -0.235020818932096 -0.134175263101158 -0.154825581686246 0.365476983233083 -0.905038900646321 -0.573276518627726 0.000183319560630602 0.41727851450603 0.726515473373367 -0.710942309576178 0.39186857220931 0.794575367081765 -1.22727329349542 -0.576779387763815 0.134857119307038 0.106476268843295 0.20188497274002 -0.475467948280895 0.663092047598843 -0.807406707885174 -0.471068535935944 0.0809359716836857 -0.947647714428684 -0.523752983578043 0.84468408490844 -0.278783028996351 -0.523142346892913 0.0482981479164918 -0.153369566718713 -0.505920849711148 1.13108837395558 0.376883162290945 -0.179090869447304 -2.37440688554457 0.422225314431041 0.437754255276718 -0.765944605519939 0.980235915930518 0.617268842305956 -0.668524014439576 0.420838976323159 0.521599942903821
0.280859450835976 0.363985487060267 0.309072408350081 1.10446795691629 -1.2414146106823 -0.0123649429310616 -0.665475458997224 -1.23785877684847 -0.63372672224358 0.43535593148771 -0.243412895312156 -0.206823288028984 0.207971799217395 -0.0157909361223698 0.163002971063324 -0.758836023174477 0.2843587204295 -1.21928873675575 -1.24128682692124 0.339088993799422 0.580634240740722 0.384300533966446 1.24838975284268 0.532781664771738 -1.84222505883027 0.438923078169602 -0.0868055400562467 0.193658475317948 -0.485437395634965 0.00324961560562438 -0.302055100119659 -0.377297881016467 -0.479493008199089 -0.722024272693009 -0.932527321664133 0.328686315786639 0.732265742620918 -0.698965860131951 -0.310854181919744 0.946070600564858 0.244553693195071 -0.0920410747170054 0.679610091319338 -0.407807860907393 0.168511299628471 1.94451660233159 0.346529248281229 -0.416977438481488 -0.201130097242107 -0.426154986471263 0.24878726947185 0.076071704127486 -0.0504594161165771 0.308518593015441 0.0703011231754619 -0.139193796767285 0.164481868837163 0.182814853340956 1.21427225997109 -0.354664985808626 -1.29484776317791 -0.435786333934408 -0.357973736756389 0.0817870063901195 -1.34759083194179 -0.199840689673296 0.323299857448335 1.23011847478285 -0.0420837947882426 0.322555523467934 2.09795687435069 1.17582451739384 -0.938026908483051 0.231522577779305 0.429387889914979
0.136231630346492 0.0648280187054147 0.0058058050471243 0.950065321481432 0.213701756760472 0.283622356864779 0.169594247720163 -0.0605841580213071 -0.0552663481019203 -0.0873832666379255 0.0828393583700088 0.468073973632066 -0.326872660554257 -0.267222840938745 0.220325686410579 -0.851073530071457 0.335336727785617 0.793288787724969 -1.09665206445681 0.575278121404036 2.02338977901536 1.20042404839308 0.555437185675701 -1.09342481743713 1.05809093628877 0.307897157702616 -1.32676876375431 -0.688044590879628 0.325757573689664 -0.00955627128964688 0.0766167777158968 0.0360633027381358 -1.50835977262318 -0.603836635004379 0.0187443607969333 -0.578485828049797 0.80399948373724 0.0086260466467836 0.0886608471383091 -1.94717589295656 -0.365030639955026 0.490913842537394 0.612021223466586 0.389859513237686 0.36108142754088 1.31892818871724 0.449439141773182 0.0527988616736288 0.397357874620899 -5.09078162760999e-05 0.0984084084042661 0.184418449553653 0.0848353047222884 -0.0664701814455937 -1.16512667689073 -1.38143038870532 -0.985894396842661 0.0511620982472972 0.314840675310456 0.157851768542659 0.124596109005205 1.08340651914825 -0.195927215574617 -1.17764382905026 -1.4931524766167 0.721204091208561 0.492732125753073 -0.911695483289696 0.605153553362794 0.00503344605675358 -0.273687105165077 -1.10319731839086 0.362537442508413 -0.0940370210692851 0.552771467296153
0.127931599412022 -0.122305514382964 0.150502016845343 1.28787750611102 0.155918557075083 0.136561759821737 -0.54213353346573 0.13220425643665 -0.288435973714886 -0.505958130687714 -0.476182714590226 0.848251488700515 -1.25533841265418 0.0964291742138953 -0.00712555161755471 0.13886289596149 -0.231576828027963 -0.747325200272048 0.872335256672225 -1.08457714181242 0.34571857987356 -0.467433512165684 0.183217230777684 -0.483259929493337 0.275195827720168 0.888138791193572 -0.567370183498966 0.561068927128791 0.0316857447587576 0.0905171826611042 -0.304763241679437 0.421758916558694 -0.404436889295293 0.207277601722721 -0.267184274411263 -0.618573419375577 0.203525849929282 0.47960999333245 0.389300555699382 -1.78556594486588 -0.0325342083633592 -0.760360943671111 -0.313806835263758 0.395088877254048 -0.528363997603778 -0.233365029352207 0.800966097795698 -0.392173761996783 0.272005861677049 0.093978914167879 0.0102910921932686 -0.0183748934636567 0.194892861307552 0.510302521453458 -0.375249741296995 -1.88837325139473 0.34288548276474 0.46090908415648 -0.991813587480582 0.788093105142608 -0.0400659940703899 -0.389439138088134 0.250299334459323 0.524026291702798 0.595887045249628 -0.0470604194945062 0.882853634267453 0.0146503953496386 -0.266653598993112 -0.321550993982122 -0.0672512821821937 0.484525425815109 0.34973618359644 1.06681108526261 0.763891323596803