-4.85289060360754 -1.39263406670227 1.57079085721733 -1.39263406670227 0.160592036520622 0.183175291656334 1.57079085721733 0.183175291656334 1.00370022825389
4.5352978315036 5.33844963343008 1.63391194704418 5.33844963343008 4.62565240922033 -2.66044034388147 1.63391194704418 -2.66044034388147 -2.0204287517213
1.18049999347488 3.03196793195898 2.51739101172634 3.03196793195898 6.75256086011164 -4.30579805312311 2.51739101172634 -4.30579805312311 -2.79233652302711
-6.54108349057492 0.831341607915191 1.09051285258899 0.831341607915191 -5.4964240120436 0.303030993772444 1.09051285258899 0.303030993772444 3.42903492953029
3.57290341769041 0.513333514621711 -2.45940385363536 0.513333514621711 -5.1384429423825 2.48238893637962 -2.45940385363536 2.48238893637962 7.33734919158296
2.47774502190514 -3.82254343528117 -3.57845331230538 -3.82254343528117 4.6308041255123 0.218760015874524 -3.57845331230538 0.218760015874524 -0.467455612868721
-4.09546913293718 -0.404026060295886 1.47557343760237 -0.404026060295886 -0.895883872830008 -2.65251891759473 1.47557343760237 -2.65251891759473 -0.16562558993496
0.768401185310817 1.68239417415421 -1.46400646885535 1.68239417415421 -0.862766243156005 -1.30763008728332 -1.46400646885535 -1.30763008728332 -4.61040711186491
7.25867018530895 -0.0021286422830818 4.20832579365272 -0.0021286422830818 -2.82896559421572 3.74002449137473 4.20832579365272 3.74002449137473 0.757796652777122
-4.85345402638396 1.33974470338246 -1.12754911371629 1.33974470338246 1.3168608652812 -0.14146372644411 -1.12754911371629 -0.14146372644411 -2.32374974173634
2.13520205487198 3.05477987236899 0.254128342727094 3.05477987236899 -5.44411026996806 -2.29501472400963 0.254128342727094 -2.29501472400963 3.28270941687679
-0.751502409140634 2.74124544259484 -2.02718443462135 2.74124544259484 -3.67460608597591 -0.315577524123113 -2.02718443462135 -0.315577524123113 -1.51905113306719
-9.64423163919632 -0.322602834100723 2.58082267280579 -0.322602834100723 -5.43446379173379 -0.380352724155791 2.58082267280579 -0.380352724155791 8.13078624464971
10.3380033450554 0.0301650785391363 1.990895183583 0.0301650785391363 -1.38759361280027 4.13477040832876 1.990895183583 4.13477040832876 -1.11179860901388
-3.59659362781285 4.50009777099351 3.58912665142292 4.50009777099351 -7.48439933483269 3.48209998983403 3.58912665142292 3.48209998983403 -5.00536317337829
2.99924656552572 -4.99963452418891 -2.5185124766614 -4.99963452418891 0.13620799184489 0.189622890607592 -2.5185124766614 0.189622890607592 9.82834137233717
5.14848083420492 0.764961908936126 -1.35761157899927 0.764961908936126 2.21917277336419 4.563663538636 -1.35761157899927 4.563663538636 -1.24012596158587
-10.1398542308576 -0.547360552273015 6.01549246948043 -0.547360552273015 -1.7159753313759 4.13530897242262 6.01549246948043 4.13530897242262 0.834724842216347
-0.308269220189585 4.33056600522329 -0.202224608444368 4.33056600522329 3.79541063897417 -6.62655515719531 -0.202224608444368 -6.62655515719531 5.21838135936929
-3.15804787107277 1.69280947829944 -0.664747118247302 1.69280947829944 -3.05224727867905 0.662750880654968 -0.664747118247302 0.662750880654968 0.610848703254277
-1.98210294007056 0.455185243831515 -1.31497959329104 0.455185243831515 -0.763458848119524 2.76482888845809 -1.31497959329104 2.76482888845809 -2.35058623269608
8.10029212479693 -1.78119326830212 1.88135817092058 -1.78119326830212 -2.85469972462602 2.98099460184059 1.88135817092058 2.98099460184059 -0.394127116824797
0.939791809999179 3.05960311176699 -0.56229116721861 3.05960311176699 -5.18733400743929 -1.72119174190861 -0.56229116721861 -1.72119174190861 1.25129583690902
5.23391482695139 0.463461160249131 -3.6464271746038 0.463461160249131 1.73398399610451 -2.33328722056459 -3.6464271746038 -2.33328722056459 3.06044179957616
-2.96354899076555 0.959439854035848 -1.77277211608654 0.959439854035848 -2.30119457376618 2.45217241881751 -1.77277211608654 2.45217241881751 -5.08941445414955
0.648020836293057 -4.84805629807627 -0.639954186878621 -4.84805629807627 -1.19386411333659 3.04919347865696 -0.639954186878621 3.04919347865696 7.92951637439098
-0.581446787267962 1.98021028494089 -1.96101157026695 1.98021028494089 4.81339203610978 2.33950051669609 -1.96101157026695 2.33950051669609 -1.53589717391537
-3.40612416830493 1.65714130110967 -0.750704974960523 1.65714130110967 -3.1465719163239 0.624921960538946 -0.750704974960523 0.624921960538946 0.397314601109426
-5.86220203944197 0.988997350871842 0.819511917758724 0.988997350871842 -5.06861142321819 0.39280741556805 0.819511917758724 0.39280741556805 2.9330949659929
-4.7992116492504 -1.16405342668698 3.92115410756841 -1.16405342668698 -0.200698866670168 -2.44852617337605 3.92115410756841 -2.44852617337605 1.1615446908536
2.28920392669857 -5.19392607167421 -0.209538116860281 -5.19392607167421 2.27348856793405 0.0864344732048658 -0.209538116860281 0.0864344732048658 3.03306424155256
-4.24435319815397 -0.898567974535258 0.218367077610524 -0.898567974535258 0.998966630907912 0.750479956385593 0.218367077610524 0.750479956385593 -0.115458454828553
-0.770578118711742 1.34645500458173 -2.29528073082466 1.34645500458173 4.8209122159973 2.60241506995531 -2.29528073082466 2.60241506995531 -1.46163038175572
2.82948984646675 4.02487536522665 1.38763308672542 4.02487536522665 -6.1272750507982 5.41004373954225 1.38763308672542 5.41004373954225 4.54246497128764
-0.00520648453591516 -0.0390486340193637 4.9461603091194 -0.0390486340193637 -5.84948537610068 -1.45000594325237 4.9461603091194 -1.45000594325237 0.0650810566989394
-0.479329719788656 -0.322970827237276 2.9426230926063 -0.322970827237276 5.38284712062127 -2.61196248376813 2.9426230926063 -2.61196248376813 0.0640815133407294
0.261570256711613 -1.01750829860817 4.5748637898861 -1.01750829860817 -7.18795065443511 -0.502214892886296 4.5748637898861 -0.502214892886296 2.23119428975006
-2.81924486411779 7.18206930510217 -2.12856674134787 7.18206930510217 3.73113662051509 -1.91226896624555 -2.12856674134787 -1.91226896624555 1.29778665061394
-0.0780038963105059 0.312015585242024 4.88824416879171 0.312015585242024 -5.41347040394911 -1.70308506944605 4.88824416879171 -1.70308506944605 -0.556427793681609
0.364495833179992 -0.666829586282776 3.71277151006596 -0.666829586282776 -6.78696892479334 -2.98095429461156 3.71277151006596 -2.98095429461156 -5.91104870552359
-6.35956427332734 -0.0932321728208806 2.60485040426824 -0.0932321728208806 -10.2527137929387 3.06536083365622 2.60485040426824 3.06536083365622 -8.28636251162554
4.49171928149009 0.0529683877534209 3.79253656314494 0.0529683877534209 -3.30098992479319 3.0425041925565 3.79253656314494 3.0425041925565 2.66960674277241
-3.71827407956145 -3.84314149268105 1.6704485044 -3.84314149268105 -7.92214365458802 -0.890720880253154 1.6704485044 -0.890720880253154 -2.91357297279069
0.747320942807256 1.84878278015377 0.25933152119804 1.84878278015377 -3.70593109324942 0.702704767117271 0.25933152119804 0.702704767117271 -1.20742525461023
-0.940351177791946 2.69513756369999 -2.18343649544284 2.69513756369999 -3.32471741207922 -0.179497233367693 -2.18343649544284 -0.179497233367693 -1.74407013316968
-0.351760548670715 2.83540321049728 -1.66286804826156 2.83540321049728 -4.31439642649915 -0.660883455078313 -1.66286804826156 -0.660883455078313 -0.935363277147128
0.392461060183259 3.9191216359559 -0.719054529846252 3.9191216359559 5.00868136247866 1.22952835637832 -0.719054529846252 1.22952835637832 -1.50672113315111
-0.0606840297990697 -2.82576503977407 -1.06592817560105 -2.82576503977407 0.100260570972376 1.45113984302123 -1.06592817560105 1.45113984302123 -0.852214853265196
-3.00171575390897 2.48239717691929 -2.27575732429512 2.48239717691929 -2.04192801737829 -0.948911954813615 -2.27575732429512 -0.948911954813615 -2.6618475752508
-0.393915138010732 0.802266956472119 -3.5741096029979 0.802266956472119 4.55580387364244 -1.48697808641747 -3.5741096029979 -1.48697808641747 -9.08067200346205
-10.0513251159282 0.142339026696151 6.26565446360557 0.142339026696151 -1.52193267005884 3.94990799081819 6.26565446360557 3.94990799081819 0.361322144690229
-9.05266814214145 1.14247143257279 0.431465275067382 1.14247143257279 6.2167461463934 -3.16813000096425 0.431465275067382 -3.16813000096425 -1.29439582520215
0.279712769479953 -1.02843886960306 3.51194921680385 -1.02843886960306 -7.25275433590948 -2.70671548648277 3.51194921680385 -2.70671548648277 -5.71009603150489
2.75042434884592 0.190457083219473 1.15394585715328 0.190457083219473 -3.94358195842674 1.1315391414804 1.15394585715328 1.1315391414804 -0.224067156728792
-3.18758171895551 -0.0752972059595791 -0.514530907390457 -0.0752972059595791 -1.12694818252837 -2.06565335015779 -0.514530907390457 -2.06565335015779 -0.657595598713657
0.667551998521835 0.226715773082887 -1.49464472625015 0.226715773082887 0.904763872210411 1.01602253863072 -1.49464472625015 1.01602253863072 2.40570625882397
-7.0655684822985 1.2841980609932 -2.63533308655555 1.2841980609932 -5.71195430990026 1.55442506610567 -2.63533308655555 1.55442506610567 -7.7076675127951
0.261459863139703 -0.936026310040137 -2.22502343531887 -0.936026310040137 -2.95188185484725 3.27870668377188 -2.22502343531887 3.27870668377188 0.402648189235143
0.463111822733695 -0.730503768002555 0.829742015731203 -0.730503768002555 -4.42988511388719 2.49473928317854 0.829742015731203 2.49473928317854 3.62219604209569
-2.50260461071883 -0.754313284884003 1.50862656976801 -0.754313284884003 -1.7886559163303 -4.0591641317002 1.50862656976801 -4.0591641317002 2.4824223154711
-9.29833728166707 0.514984834061561 0.030653859170331 0.514984834061561 2.69345242576642 -3.77451185917342 0.030653859170331 -3.77451185917342 -4.96388159498227
-2.32942374988374 -0.707863682615534 -1.50358278683229 -0.707863682615534 -1.31030085930961 -0.504541135481285 -1.50358278683229 -0.504541135481285 -0.273606884415224
-0.476896365594502 -0.880214434782994 -3.66528920985488 -0.880214434782994 -8.39065091237412 -0.223460011307138 -3.66528920985488 -0.223460011307138 -2.24822572351694
-0.565060186153479 -3.43091567573572 0.611022019476968 -3.43091567573572 -1.86550970548278 3.12270102874291 0.611022019476968 3.12270102874291 4.86654705778116
-0.691813725846623 -2.05433499607336 -3.34650232807841 -2.05433499607336 2.50694533196624 1.93238816982243 -3.34650232807841 1.93238816982243 0.999025922748005
-9.64380889335719 1.37729581867083 6.61540098987818 1.37729581867083 -1.02407283535366 3.52675350784896 6.61540098987818 3.52675350784896 -0.451796839126614
1.05627190387723 -3.38887235827277 -3.93785578199844 -3.38887235827277 3.8637314378667 0.759774527350287 -3.93785578199844 0.759774527350287 0.0138983145247004
-1.16250885265695 -1.03697972772216 -4.24615909562023 -1.03697972772216 -8.42409584073242 -0.0218311521625719 -4.24615909562023 -0.0218311521625719 -2.53241365085834
-2.06561401803973 -2.04085965563978 1.90608590479565 -2.04085965563978 -5.05814138372178 -0.253044593421644 1.90608590479565 -0.253044593421644 -1.86207814941797
-8.80697614883084 1.64350263923162 -1.80835244802993 1.64350263923162 -6.68640815383442 0.0724340068962264 -1.80835244802993 0.0724340068962264 -6.31674494622609
-3.0013261099759 -1.88181550645431 0.79822502924891 -1.88181550645431 4.96695524450134 -0.564744208193604 0.79822502924891 -0.564744208193604 0.205542945031594
-0.217647679208976 1.6051516341662 1.05608589797992 1.6051516341662 2.169056984844 -7.35302898054871 1.05608589797992 -7.35302898054871 7.68197376844409
-3.12115516421846 0.251009182620074 -2.14798021848653 0.251009182620074 3.47709441498299 -2.50391946925106 -2.14798021848653 -2.50391946925106 -9.13303083320088
2.97143471518318 4.62950031832096 1.98011779919489 4.62950031832096 5.93532133202127 -3.60295894338892 1.98011779919489 -3.60295894338892 -2.84311704331668
9.43190960548062 0.136787268241731 3.60562689880938 0.136787268241731 -1.89364874472147 4.11216725151704 3.60562689880938 4.11216725151704 -0.525776062304154
-2.82789574830875 1.33497060550791 2.34384152112077 1.33497060550791 -2.4610335971768 -3.86224320219465 2.34384152112077 -3.86224320219465 -2.79477624855378
3.91962612827561 -3.90629406661481 -3.0743734189808 -3.90629406661481 0.650604609047108 -1.16255577682188 -3.0743734189808 -1.16255577682188 8.8071599331254
0.198555259557561 -0.851697560733748 4.76271366017676 -0.851697560733748 -6.94159637690052 -0.723681669703216 4.76271366017676 -0.723681669703216 1.77915962840394
-2.69113360800827 -2.89006750921627 1.78487916917181 -2.89006750921627 -6.52337417711245 -0.826128284183237 1.78487916917181 -0.826128284183237 -2.55298506550271
1.77690312187833 5.52594628723221 2.03392387942402 5.52594628723221 -6.62569856711518 5.47157651159754 2.03392387942402 5.47157651159754 0.944057013292801
2.40320621710073 -0.151506478904176 -2.15243687270761 -0.151506478904176 -0.801939465923831 5.70239040427271 -2.15243687270761 5.70239040427271 0.117548130184275
-0.360768479889181 -0.201605915232189 -2.63148773566226 -0.201605915232189 0.395253702231529 0.092844829383245 -2.63148773566226 0.092844829383245 -6.36915529569061
-7.1624499737551 2.19340619378485 0.682616115228237 2.19340619378485 -3.12196487994091 -1.3577033762444 0.682616115228237 -1.3577033762444 -3.23238807505136
-9.35935845357206 -0.589440447288794 2.61464630841279 -0.589440447288794 -4.20175453979512 -0.398270572492428 2.61464630841279 -0.398270572492428 8.02714338858489
-2.23260049395423 2.49510018839491 -2.54651765431628 2.49510018839491 -1.88891532700613 -0.205669863685481 -2.54651765431628 -0.205669863685481 -2.45991981697502
-1.37802521909075 -2.0783331173172 0.474402124605013 -2.0783331173172 -2.85645300423547 -0.198295067956593 0.474402124605013 -0.198295067956593 1.20985092095035
-8.71136717013815 -0.888264690873712 2.52737195676848 -0.888264690873712 -2.62296995040511 -0.382391974546531 2.52737195676848 -0.382391974546531 7.14196677460343
6.09323474781788 -0.0127473530289077 4.22362297024475 -0.0127473530289077 -3.16346811000726 3.50127296527332 4.22362297024475 3.50127296527332 1.55730162836489
2.20860242395318 -2.49061107732774 -0.963296885289315 -2.49061107732774 -8.35415733561052 -1.82049150495256 -0.963296885289315 -1.82049150495256 -0.145192574014621
-1.68643890687336 -0.0167447834725014 -1.44005137863512 -0.0167447834725014 0.165055722800371 2.86575008572238 -1.44005137863512 2.86575008572238 -0.736770472790062
-9.39761013332095 0.0278860834816645 2.33047983382482 0.0278860834816645 -6.45762018911118 -0.243007298911648 2.33047983382482 -0.243007298911648 7.01932558495613
0.484402245498051 1.99111853236699 1.4672881971191 1.99111853236699 0.0140814606249434 -2.54592808098976 1.4672881971191 -2.54592808098976 -5.44670896972809
0.296268286178702 -0.190458183972023 1.17184688193897 -0.190458183972023 -6.10524289732539 0.328011316840706 1.17184688193897 0.328011316840706 1.29617375203182
2.77882578811875 -0.450958955847972 -2.09194848962809 -0.450958955847972 4.96681183315891 1.13366070845115 -2.09194848962809 1.13366070845115 -1.44682665001224
2.36673700026069 4.7063268607895 1.76209616077803 4.7063268607895 -6.45114756901089 5.50099767839528 1.76209616077803 5.50099767839528 2.83070629749636
-0.161108210823295 1.57390329035065 -4.28795699575845 1.57390329035065 5.26699919999232 -0.943928876233918 -4.28795699575845 -0.943928876233918 -8.28054893834087
10.4952431569647 0.124815276420741 2.17565938726498 0.124815276420741 -1.29119251469732 4.20498362286426 2.17565938726498 4.20498362286426 -1.13194543788465
-0.446218889115374 -0.0383255487583757 3.30147227161436 -0.0383255487583757 -4.34994978407564 0.188890204594852 3.30147227161436 0.188890204594852 4.85639453552561
-6.1240475035772 3.26411453194761 -1.20975722191739 3.26411453194761 -3.81881888024614 -4.81951667441283 -1.20975722191739 -4.81951667441283 -4.90314044551311
-0.103693453357873 1.07234205423752 3.05010499389257 1.07234205423752 7.15737739031175 -4.74713687689581 3.05010499389257 -4.74713687689581 -1.85636572596778
-2.44237155030143 -0.353930512428059 -1.66171630657713 -0.353930512428059 -1.10948430137023 -0.908672663113173 -1.66171630657713 -0.908672663113173 -0.542191423294048
-1.83160401088284 -1.69176598011185 1.94402281993404 -1.69176598011185 -4.15401209055016 0.345482193669518 1.94402281993404 0.345482193669518 -1.14612346788777
-8.60233381954989 1.50603177594439 -2.15931046021165 1.50603177594439 -6.68488607832268 0.538580900006602 -2.15931046021165 0.538580900006602 -6.95417652832598
7.46535307888073 -4.5808581071014 0.501454881546603 -4.5808581071014 4.40241245105553 -0.444984737228292 0.501454881546603 -0.444984737228292 -1.41175360795778
-3.42212983301572 -0.097918608574918 -0.53980771393865 -0.097918608574918 1.71734175039087 0.768284467280126 -0.53980771393865 0.768284467280126 -1.21770577330347
2.7060280869878 -0.27632853510179 2.87282098655374 -0.27632853510179 -4.80961017852845 1.80484854007926 2.87282098655374 1.80484854007926 3.59476040258545
4.86061858430534 0.595432004945656 2.27460008583843 0.595432004945656 -3.32096595227012 0.994047573110112 2.27460008583843 0.994047573110112 4.49189918375321
-0.246121007185277 1.54360675158592 -1.26805823267197 1.54360675158592 -1.08614270562198 -0.86142352514847 -1.26805823267197 -0.86142352514847 -3.61423348594902
-1.8656241402446 6.92839644093501 3.04561277754977 6.92839644093501 -7.16936254160575 4.36471586472672 3.04561277754977 4.36471586472672 -5.0155727551982
-5.22025251175104 1.7199796124375 -1.28738498198163 1.7199796124375 1.39761342147279 -0.241254697754232 -1.28738498198163 -0.241254697754232 -2.24616442736698
8.3305246551005 -1.48301169793227 1.77439522802454 -1.48301169793227 -2.70943192906688 3.13998371233754 1.77439522802454 3.13998371233754 -0.526229957330807
-0.555282952734495 2.78709328199429 -1.85272292883529 2.78709328199429 -4.00978362984237 -0.480533324481775 -1.85272292883529 -0.480533324481775 -1.24938664365261
3.16775332694956 0.334272403833094 -2.00563442299857 0.334272403833094 0.167136201916547 6.12136339519354 -2.00563442299857 6.12136339519354 -0.258538812339659
-3.12644249527174 5.99918798615389 3.39257562732749 5.99918798615389 -7.44924047202774 3.89499518504021 3.39257562732749 3.89499518504021 -5.58133409657103
0.434248881470135 -0.976402030457091 2.88183348611998 -0.976402030457091 -7.24011316923843 0.307921934133368 2.88183348611998 0.307921934133368 2.85025174928579
2.62586270688391 0.495498613132678 1.21215197449971 0.495498613132678 -3.91639864278314 1.03858748854364 1.21215197449971 1.03858748854364 -0.162366777184719
0.256288275255801 1.65473082067333 -0.412289834107159 1.65473082067333 -3.61032179055998 0.81622244184728 -0.412289834107159 0.81622244184728 -1.58508726761468
-0.857483905185193 0.612194038076929 -3.2485447946439 0.612194038076929 4.28741952592596 -1.72115158853278 -3.2485447946439 -1.72115158853278 -9.21589072135336
-5.56784495641044 3.2490597489812 -0.640426390623313 3.2490597489812 -3.41468726379758 -5.19794350665387 -0.640426390623313 -5.19794350665387 -3.97782081417325
0.894551399885213 0.981756096100438 1.27712684134556 0.981756096100438 -9.29151972899641 -1.62031951677322 1.27712684134556 -1.62031951677322 -6.10714178978238
10.4019789293133 0.223006763275321 2.88193355617338 0.223006763275321 -1.3616278334599 4.25857146023835 2.88193355617338 4.25857146023835 -1.01210761794184
-6.29598652548257 2.62743737073011 5.46857663397007 2.62743737073011 0.698640802436056 1.78358887210146 5.46857663397007 1.78358887210146 -1.78084910424877
2.10621098104342 2.80027290128587 -2.09019416749936 2.80027290128587 -0.00533893784801881 -0.22423538961679 -2.09019416749936 -0.22423538961679 -4.13767683221458
5.2218302847426 0.506517537620032 -1.26107201376534 0.506517537620032 2.3472127129918 4.08869311295346 -1.26107201376534 4.08869311295346 -1.21146462606028
-5.91861085088429 3.38680677021149 -0.628108771926477 3.38680677021149 -3.47535073806015 -5.50909499958421 -0.628108771926477 -5.50909499958421 -4.25287745573125
-3.74305301777875 6.09382538494722 1.11953910524819 6.09382538494722 4.50153426773808 0.337680008543538 1.11953910524819 0.337680008543538 -9.52517377945502
-3.51799107528208 2.53622612404057 -1.9580756527539 2.53622612404057 -2.3916885062189 -1.70172591548529 -1.9580756527539 -1.70172591548529 -2.8253013596839
-6.01576540892688 -0.966035321141543 -3.89432988835184 -0.966035321141543 -0.900169276518256 -0.787648116953474 -3.89432988835184 -0.787648116953474 -7.94234721415803
-4.51476360202297 0.311633914524788 -1.31462374026423 0.311633914524788 -3.18704599980392 -0.534229567756779 -1.31462374026423 -0.534229567756779 -3.70818170560587
-7.61565490145991 -5.42413885159596 3.77367040506499 -5.42413885159596 -2.30355115964503 3.65890273163072 3.77367040506499 3.65890273163072 4.842102793465
4.7037371454322 -2.50412972696899 0.548643497969085 -2.50412972696899 -6.48305344389157 -2.28014224385317 0.548643497969085 -2.28014224385317 4.74652127142062
-9.5464322190414 -0.45203173002136 2.61063259056389 -0.45203173002136 -4.8668085822564 -0.396274512221368 2.61063259056389 -0.396274512221368 8.17838905373447
-2.51810109561174 4.01500102821872 1.73216399800808 4.01500102821872 5.13444432842394 -0.232678746001085 1.73216399800808 -0.232678746001085 -6.0910125064284
4.81805387888232 -0.370424363515965 -3.83363844707276 -0.370424363515965 -5.70098318370119 2.31895800173693 -3.83363844707276 2.31895800173693 6.27691695437327
-2.4360805490041 -2.57954169118781 1.82912956284226 -2.57954169118781 -6.02812683983461 -0.686958161610443 1.82912956284226 -0.686958161610443 -2.36710884603117
-4.94725066562399 2.97275039996639 -0.904750121728902 2.97275039996639 -3.30275044436599 -4.29550057793479 -0.904750121728902 -4.29550057793479 -3.54750047729569
0.176869268544503 -0.574144856352157 -3.05303568164512 -0.574144856352157 -7.86932191739544 -0.473465426565286 -3.05303568164512 -0.473465426565286 -2.35100073880694
-0.604690411420588 2.08799082234118 4.05711088004412 2.08799082234118 -3.41365826276324 -2.94851179243971 4.05711088004412 -2.94851179243971 -3.24827285109265
-9.43019010704066 -3.91261294380261 4.5360062010961 -3.91261294380261 -2.10531933384207 4.48405676298831 4.5360062010961 4.48405676298831 3.42046037225511
-5.69365699291323 1.21671993823417 -2.60619929974702 1.21671993823417 -4.70892828022472 1.95464947481026 -2.60619929974702 1.95464947481026 -7.45827110211693
5.13409401610961 -1.98609037049307 -1.29045465697011 -1.98609037049307 -7.13026606361026 -1.43159813507622 -1.29045465697011 -1.43159813507622 4.88205209092014
0.330064605821016 -2.69693814670848 1.77444988941384 -2.69693814670848 -7.99771929489386 -0.372380580926275 1.77444988941384 -0.372380580926275 -3.47555208864523
-2.26666209951726 -0.91871354199703 -1.30527607059687 -0.91871354199703 -1.48851674973836 -0.348910334255703 -1.30527607059687 -0.348910334255703 -0.0953855590051561
7.88031378968428 -4.6761568565762 3.48877323250977 -4.6761568565762 -0.0622598154941196 1.22518422633071 3.48877323250977 1.22518422633071 -0.17566162228698
-4.80697271013381 6.60991315209185 0.747751310465259 6.60991315209185 3.35055116814747 0.302227010501638 0.747751310465259 0.302227010501638 -11.1068426359352
-3.3417772111333 -3.53574437927537 1.70691107965018 -3.53574437927537 -7.47604885210418 -0.931042407081915 1.70691107965018 -0.931042407081915 -2.82083681669461
-4.77874252913328 1.17316530437291 -2.45208764876268 1.17316530437291 -3.98925392807729 2.13727599475904 -2.45208764876268 2.13727599475904 -7.01685663181536
-0.146419935826341 0.937087589288583 -0.52444958832344 0.937087589288583 -3.58329515676827 -0.327448220120726 -0.52444958832344 -0.327448220120726 -1.69314689428278
3.3176298406763 -4.7055361296157 -2.7197625162101 -4.7055361296157 0.314947965567018 -0.304271763344407 -2.7197625162101 -0.304271763344407 9.61125105090536
0.291772274374209 0.220205490093742 1.5607064110394 0.220205490093742 -4.02976046871549 2.35895131262922 1.5607064110394 2.35895131262922 3.71321507670573
-0.416985993508263 0.742235068444709 -1.95983416948884 0.742235068444709 -3.04399775261032 1.19813975468041 -1.95983416948884 1.19813975468041 -1.83751827805975
-1.12984287724541 2.65419146222259 -2.31872742503571 2.65419146222259 -2.97892065021949 -0.075143944329861 -2.31872742503571 -0.075143944329861 -1.93227285419643
-7.02229418457134 -4.54102737185566 1.39378067849035 -4.54102737185566 -10.7512195078711 2.64986931414597 1.39378067849035 2.64986931414597 -4.02678974249329
-0.344271096231939 0.442995895886687 3.1971646657422 0.442995895886687 7.19425334919979 -4.82992096772456 3.1971646657422 -4.82992096772456 -1.39986703100193
-2.98960602309146 6.79723900237803 -2.269840563136 6.79723900237803 2.552342364825 -0.014739224435948 -2.269840563136 -0.014739224435948 1.59920585130036
0.666501897816234 2.38829846717484 2.70387701727722 2.38829846717484 6.93262958864916 -4.48374003985466 2.70387701727722 -4.48374003985466 -2.57259634043463
9.52760993096873 -0.454210689104071 1.66760210142495 -0.454210689104071 -1.9120107103238 3.78076325978055 1.66760210142495 3.78076325978055 -0.93870209081508
2.06761176170821 -5.29088485030277 -0.212264325346471 -5.29088485030277 2.00995972272522 0.133647908551481 -0.212264325346471 0.133647908551481 3.22851418304755
2.17849577605071 -2.82283959713613 -1.14364054824685 -2.82283959713613 -8.17842460356041 -1.53973068934698 -1.14364054824685 -1.53973068934698 0.479771156825508
7.7604687395773 -4.6332839220893 0.989786687005937 -4.6332839220893 3.97267458429262 -0.347214464234429 0.989786687005937 -0.347214464234429 -1.41140425071917
-2.49528712203014 -3.58304645890636 3.45459246686319 -3.58304645890636 -3.90828103450503 0.691465106104737 3.45459246686319 0.691465106104737 5.38686847483176
-0.127717161356297 -1.46108432591604 3.34108094108073 -1.46108432591604 5.82645690107426 -3.70890636578686 3.34108094108073 -3.70890636578686 1.2899433296986
-5.93429419276669 3.17500084220428 -1.28339225607554 3.17500084220428 -3.75531734060365 -4.55046254273741 -1.28339225607554 -4.55046254273741 -4.95222011855236
-0.400883605254016 -0.607338661959834 -0.75767001393009 -0.607338661959834 10.3327749254223 -1.71979066653973 -0.75767001393009 -1.71979066653973 -3.32332508755579
-5.81711294934906 1.10269448765133 -0.805046881383129 1.10269448765133 -4.39879214095695 0.261690177323052 -0.805046881383129 0.261690177323052 -0.153817890487595
-6.72349280893963 -4.89185292398445 1.39406588487401 -4.89185292398445 -10.5690950788838 1.86249446188399 1.39406588487401 1.86249446188399 -3.62962023144259
2.61150811632165 -1.33102671735104 0.769412068679713 -1.33102671735104 -4.57715938667129 1.40684469492167 0.769412068679713 1.40684469492167 -1.04179517328531
1.1709508638712 1.18176796192082 -1.57118349170708 1.18176796192082 -2.96388486559546 -1.23585345216891 -1.57118349170708 -1.23585345216891 -4.13754000397907
-0.515335335056713 -1.07890402659657 3.49564904617288 -1.07890402659657 7.01922266715178 -4.85126022312009 3.49564904617288 -4.85126022312009 0.12439128777231
7.98495495659651 -4.67889553403724 1.4538559475652 -4.67889553403724 3.49735625776521 -0.2160528962326 1.4538559475652 -0.2160528962326 -1.37283611147798
-0.0200037764775253 -1.41426699696104 -0.528099699006668 -1.41426699696104 8.94968959604482 -1.20422734394702 -0.528099699006668 -1.20422734394702 -2.67850567034064
-2.48394782967988 -1.00123888288858 -5.08826317533543 -1.00123888288858 -7.25214283753453 0.11489626524951 -5.08826317533543 0.11489626524951 -4.17182867870244
7.64879260401451 -4.53031935166782 3.57505142575352 -4.53031935166782 -0.961917122614401 1.58915801132379 3.57505142575352 1.58915801132379 0.217207092203252
5.21958606206869 0.164499210560444 -1.16193886824441 0.164499210560444 2.45443266550504 3.59548274510685 -1.16193886824441 3.59548274510685 -1.12277238953954
-6.60280789655872 0.88903162298597 -0.777153486160769 0.88903162298597 -4.81875117897114 0.123865080056472 -0.777153486160769 0.123865080056472 -0.19778456331598
0.628671517811228 0.303680309451186 -4.3261124784976 0.303680309451186 -0.0479495225449242 -3.19663483632828 -4.3261124784976 -3.19663483632828 -8.3805109959073
-4.71623632931743 -1.75487863416463 1.4019087270656 -1.75487863416463 3.07702015058638 -0.434731298008964 1.4019087270656 -0.434731298008964 1.91840141598451
-4.2616587211157 2.70872781181454 -1.39681616180527 2.70872781181454 -2.96070249198334 -3.02643501724476 -1.39681616180527 -3.02643501724476 -3.14694464689071
-9.08101475649744 -0.734845273058674 2.58689433523907 -0.734845273058674 -3.45118389758992 -0.392315769085525 2.58689433523907 -0.392315769085525 7.67903353093292
-6.94586865276021 4.2266683776216 -0.102068152772286 4.2266683776216 -0.512957895983798 -0.669985823325777 -0.102068152772286 -0.669985823325777 -10.3716946009377
0.359293042556423 -0.420055836518171 1.59040008543358 -0.420055836518171 -6.46463290540858 0.383069788019715 1.59040008543358 0.383069788019715 1.81231637642431
2.92148950860537 1.5254525803651 -1.85587552196043 1.5254525803651 4.7278015893265 -0.490127363366405 -1.85587552196043 -0.490127363366405 -0.586500721331709
-1.51911112670257 2.60125289377834 3.35695284513292 2.60125289377834 -2.65780186973004 -3.6242752769046 3.35695284513292 -3.6242752769046 -4.31828543631187
2.54345572585202 3.27487110215109 -0.646175238459702 3.27487110215109 4.96317576774367 -0.580182873680839 -0.646175238459702 -0.580182873680839 -0.833153605333148
-5.0654224146322 1.2943192920669 -0.822931401746241 1.2943192920669 -3.99681003615104 0.383502012464268 -0.822931401746241 0.383502012464268 -0.0699092210221321
2.84163854402437 3.30056983939732 -2.39338006947405 3.30056983939732 0.752433867995186 -0.667051301414172 -2.39338006947405 -0.667051301414172 -3.64743651613269
-4.5278601096911 3.87302999771747 -3.9082581999439 3.87302999771747 5.30080831148276 -0.696275055769432 -3.9082581999439 -0.696275055769432 -4.66877291859682