0.0000265391 0.0000130739 0.0000137388 5.2031772917 0.0000143146 2.4734643713 0.0000284890 3.1093644259 0.0000140511 5.2031792122 3.1093631234 2.4734640905 2.9849596509 4.6640196563 4.8567706215 2.2182476737 1.5547091881 2.3833210269 7.4213960477 1.5547090944 0.0901566277 8.1881078007 4.6640197268 2.5636067371 1.1267154480 4.6640487554 2.1870234266 4.0764892704 1.5546799144 4.6604772551 9.2796399808 1.5546799780 2.7599057566 6.3298672779 4.6640486765 0.2864493968 1.1677202129 4.6640370320 3.7273399472 4.0354843789 1.5546915714 1.2538886384 9.2386351972 1.5546915810 1.2195867319 6.3708714509 4.6640370275 3.6930404444 4.8616316855 4.6640378633 0.8064549069 0.3415737943 1.5546899566 3.2799046924 5.5447240830 1.5546899073 4.1404739113 10.0647811562 4.6640378996 1.6670229968 1.8629097462 5.8992070664 1.5444694763 3.3402955457 0.3195210300 4.0179195708 8.5434342124 2.7898315507 3.4024679815 7.0660721453 3.4288961093 0.9290182342 8.5434447954 0.3195222460 3.4024578920 7.0660607676 5.8992076855 0.9290083986 1.8629212337 3.4288969308 1.5444596274 3.3402849126 2.7898326148 4.0179094498