0 0 0 0 0 0 0 0 0 0 0 0 0.00125521191444404 1.87690433745217e-05 0.00028693496446529 -0.00120224721670224 -2.44254674051995e-05 0.00019977461235621 -0.00125521191444404 -1.87690433745217e-05 -0.00028693496446529 0.00120224721670224 2.44254674051995e-05 -0.00019977461235621 -0.000553815334639996 7.71330549637878e-07 0.000516534358074165 0.000585954107541574 -1.18270684277808e-05 9.38452168726084e-05 0.000553815334639996 -7.71330549637878e-07 -0.000516534358074165 -0.000585954107541574 1.18270684277808e-05 -9.38452168726084e-05 -0.000781872067149595 5.39931384746514e-06 0.000622463753557767 0.000784186058798509 -3.85665274818939e-06 0.000886515911717134 0.000781872067149595 -5.39931384746514e-06 -0.000622463753557767 -0.000784186058798509 3.85665274818939e-06 -0.000886515911717134 -0.000875460173838991 -2.82821201533888e-06 -0.00090477073472523 0.000923796888282965 -6.68486476352827e-06 -0.000869289529441888 0.000875460173838991 2.82821201533888e-06 0.00090477073472523 -0.000923796888282965 6.68486476352827e-06 0.000869289529441888 0.000201831493821911 -7.99612669791266e-05 0.00116599468086926 -0.000172520932935672 0.000156580101576489 0.00121304584439717 -0.000222914528845347 -0.000145781473881559 -0.00114054077273121 0.000200803053089061 0.000199003281806572 -0.00117165110489994 -0.000201831493821911 7.99612669791266e-05 -0.00116599468086926 0.000172520932935672 -0.000156580101576489 -0.00121304584439717 0.000222914528845347 0.000145781473881559 0.00114054077273121 -0.000200803053089061 -0.000199003281806572 0.00117165110489994