5.97433927136199 0 0 0 6.21611019170807 0 0 0 7.84256911039993