3.1657838812 0.0049235725 0.5018496737 3.0789271362 3.7527801759 4.830671939 1.7852908719 1.5884642219 2.3598401608 7.4085755335 1.5488187885 0.2939315381 8.0564538961 4.7641575578 2.8949621098 1.0304337248 4.6491007152 2.3926344445 4.4109929292 1.8317377055 3.7836744624 9.1490570082 1.5770135696 3.0876465164 6.1911588554 4.5353067919 0.5475875529 1.6679820842 4.6190023124 3.8206539507 3.6927003031 1.9911265654 0.2690126444 8.9126155101 1.5170360371 1.5709390357 6.5416736694 4.6519281733 3.9978063303 4.6458390613 4.6936961351 0.6792154277 0.2538829476 1.691804654 3.4473042525 5.8285109963 1.3180672298 4.0129950784 9.9114904552 4.4737461318 2.3904311602 1.3756544079 5.9873413147 1.6763576535 3.5132772161 0.8203786909 2.9908509166 8.3741008755 2.7393459468 3.7978939201 6.6868661965 3.1854274666 1.1570249757 8.5395078888 0.3142209123 3.8125226982 6.9702483705 5.6553277313 1.3405230069 1.704557927 3.4645380262 1.5548107026 4.1888926448 3.2494775736 3.2017226458