-0.00789019730242906 0.0134864575502351 -0.0121060329765665 -0.0739705997102724 -0.0598511368889679 -0.0200702780117608 0.0386580587071176 0.0339609127700061 -0.00504373046408208 0.0258987087550078 -0.011639892214402 -0.0117231959137629 0.0306400776436318 -0.0146095148305078 -0.000237055588922041 0.0775079216109118 0.045338295487348 -0.059819769446616 -0.07523969557461 -0.0447158317337902 -0.023100835741288 0.128368172503117 0.002765477130635 0.0275778953615695 -0.0168646282474658 0.00917292000647685 -0.00420349438534322 0.0304847830929714 0.00895129102854757 0.0348883092008541 0.0450716722273565 0.0188436053276533 0.0348142614680888 -0.0589767051558618 -0.00843809910285517 -0.0257251593813393 0.00700805226382654 -0.00132386033336181 -0.01570531843136 0.00750787445999189 -0.0109256401254373 -0.0146028299657443 -0.113275804748536 0.00785651586842821 -0.00218955032023872 0.0450289919369432 -0.00167070197051564 0.0127315820523228 -0.0650365350640001 0.0158791249152118 0.0213596855805721 -0.0154777759192169 -0.0744516528630633 0.00637530410294027 0.0467716847587584 0.00867309781031151 0.0456686820727762 -0.0384942795204111 0.0217003565733288 0.0139667393724763 0.0150085498348538 -0.00855405579548406 -0.00929041936020502 -0.0314296630162778 -0.00184990776821484 0.00892223757784454 -0.0137386826399667 0.00887672907541591 -0.0128807059585861 8.89601233915685e-05 0.0315875286687704 -0.00632336784593132 0.0123515732015345 0.0109379814142315 0.0167173041124849