-2.79734949160762 0.555473684762085 -6.63970882900866 0.555473684762085 7.89851610023209 2.84930026788033 -6.63970882900866 2.84930026788033 2.01409163395749