10.578165546 -0.141580702 -0.027717458 -0.084607201 6.276868163 0.009901058 -0.013176200 0.007876171 4.970215831
10.601572029 -0.167379528 -0.077886142 -0.100024319 6.273633368 0.018484557 -0.037025163 0.014704240 4.960620945
10.464059630 0.067312127 0.043327763 0.040225049 6.230801089 0.091161937 0.020596957 0.072518209 4.944476025
10.587039350 -0.152415534 -0.050892151 -0.091081987 6.280054042 0.013645886 -0.024192881 0.010855136 4.962673592
10.185227105 0.041949928 0.128930363 0.025068854 6.285817371 0.057737078 0.061290335 0.045929141 5.144955925
10.232466110 0.044323631 0.162311424 0.026487355 6.255535471 0.054318365 0.077158873 0.043209597 5.054856693
10.289596777 -0.028320255 -0.027421281 -0.016923899 6.394593392 -0.053011413 -0.013035405 -0.042169933 5.066508548
10.256842580 0.029483242 0.237144660 0.017618888 6.222318381 -0.014515953 0.112732760 -0.011547264 5.130006282
10.239493347 0.099481945 0.034902957 0.059449408 6.407111914 -0.092293722 0.016592011 -0.073418530 4.920132863
10.161693223 0.034538241 0.158496817 0.020639705 6.367694586 0.029713309 0.075345503 0.023636575 5.106418085
10.530099769 -0.035038344 0.117713498 -0.020938561 6.270141857 0.053856756 0.055958112 0.042842393 4.975523285
10.528592000 -0.030525020 0.115687465 -0.018241444 6.268828985 0.055600553 0.054994986 0.044229561 4.972138547
10.396684994 0.024972068 0.073847882 0.014923056 6.356482605 -0.041325150 0.035105473 -0.032873653 5.091357706
10.195575815 -0.131667273 -0.104258345 -0.078683035 6.466726730 -0.027886438 -0.049561862 -0.022183321 4.986301572
10.484891533 0.048005678 0.071242035 0.028687709 6.231007805 0.084724326 0.033866717 0.067397168 4.936745107
10.553791790 -0.111302806 0.145377384 -0.066513435 6.284713746 0.025775356 0.069108846 0.020503981 5.033273077
10.197845957 0.048743253 0.140300491 0.029128476 6.271385939 0.054050602 0.066695415 0.042996595 5.115389248
10.301819389 0.010174429 0.239465487 0.006080136 6.178181048 -0.031188900 0.113836024 -0.024810389 5.126312857
10.055019189 -0.019058157 -0.065686937 -0.011388963 6.511534352 0.036029766 -0.031225960 0.028661240 5.006230831
10.423988374 0.102988194 0.002095223 0.061544707 6.271424166 0.056836763 0.000996018 0.045212952 5.028394685
10.053320480 -0.018410769 -0.062754358 -0.011002090 6.506818226 0.035201045 -0.029831884 0.028002002 5.004118272
10.286206216 0.000304875 0.149286066 0.000182190 6.262200339 0.069935987 0.070966938 0.055633225 5.018173460
10.223536072 0.047897566 0.158942606 0.028623103 6.258731059 0.053164648 0.075557420 0.042291829 5.065898119
10.320543684 0.004589997 0.234652596 0.002742936 6.174415973 -0.036501533 0.111548094 -0.029036524 5.122492088
10.498166989 0.032972716 0.084940577 0.019704163 6.238064476 0.078846181 0.040378669 0.062721176 4.938249050
10.221169820 0.037457297 0.219764353 0.022384103 6.275558022 0.000556714 0.104470588 0.000442859 5.124590616
10.060977597 -0.020027083 -0.069800194 -0.011967983 6.520084034 0.037415301 -0.033181301 0.029763415 5.013499139
10.552565316 -0.188099509 0.140933115 -0.112406371 6.297287500 0.018309867 0.066996149 0.014565276 5.071714977
10.536554430 -0.234621949 0.129901460 -0.140207712 6.298225785 0.015995893 0.061751970 0.012724538 5.086742134
10.525351202 -0.087103078 0.082018839 -0.052051921 6.239960949 -0.014471477 0.038989746 -0.011511883 5.032820350
10.229472640 0.036330473 0.224734174 0.021710724 6.263340498 -0.003135157 0.106833119 -0.002493979 5.126590525
10.413312502 -0.007994971 0.028365629 -0.004777714 6.232708730 -0.003763398 0.013484325 -0.002993737 4.984693684
10.200760592 0.038689873 0.204832124 0.023120678 6.304731302 0.010027055 0.097372172 0.007976400 5.118267184
10.151525725 -0.136061864 -0.047458318 -0.081309198 6.475724899 0.034742213 -0.022560521 0.027637007 5.023931192
10.355655564 0.044899473 0.057777817 0.026831473 6.367392511 -0.051587096 0.027466158 -0.041036905 5.052169290
10.210519308 0.050395171 0.151250677 0.030115647 6.264429365 0.052640482 0.071900865 0.041874861 5.086737390
10.367031604 0.038600350 0.060018679 0.023067180 6.361655974 -0.048448021 0.028531409 -0.038539810 5.062772433
10.429366680 0.104506279 0.003038318 0.062451899 6.260618971 0.065251715 0.001444342 0.051906944 5.015503629
10.592549605 -0.275041027 -0.154656254 -0.164361745 6.236529505 0.043078419 -0.073519793 0.034268357 4.996990564
10.457824930 -0.000072876 0.130773745 -0.000043550 6.360024631 -0.011550114 0.062166634 -0.009187975 5.189255835
10.553232580 -0.107306791 0.044928647 -0.064125457 6.253674569 -0.005944377 0.021357978 -0.004728680 5.011858653
10.412474601 -0.013011659 0.049877022 -0.007775636 6.216424884 -0.004065506 0.023710314 -0.003234061 4.994871722
10.160668228 -0.005458240 0.094446102 -0.003261789 6.366815167 0.070808433 0.044897362 0.056327244 5.183886574
10.163714320 -0.140748574 -0.117393178 -0.084109929 6.490941662 -0.001653927 -0.055805840 -0.001315679 4.973817087
10.416496246 0.095053639 -0.000389593 0.056803097 6.291368509 0.046578639 -0.000185203 0.037052739 5.045054331
10.193530754 0.008956810 -0.054765538 0.005352499 6.610564641 -0.003915547 -0.026034195 -0.003114770 5.168132476
10.555453990 -0.120886541 0.146412361 -0.072240579 6.286641178 0.023611048 0.069600848 0.018782301 5.039082609
10.233886648 0.066848552 -0.025657595 0.039948021 6.603652280 -0.069122762 -0.012196992 -0.054986314 5.131466594
10.160823410 -0.015391965 0.088944195 -0.009198083 6.375439336 0.070107267 0.042281890 0.055769476 5.183816077
10.305309240 -0.011799437 -0.025502982 -0.007051225 6.387004051 -0.045710031 -0.012123493 -0.036361772 5.078531440
10.238685662 0.041054319 0.163725187 0.024533647 6.253760035 0.055415882 0.077830942 0.044082658 5.048446432
10.457693261 -0.006229122 0.157403317 -0.003722460 6.312084244 0.002975388 0.074825679 0.002366885 5.166137359
10.242526201 -0.084573652 -0.058482472 -0.050540362 6.434746700 -0.045738280 -0.027801134 -0.036384243 5.036071908
10.318256431 0.066428087 0.058308808 0.039696755 6.385516923 -0.064113370 0.027718579 -0.051001404 5.006764938
10.592824648 -0.270266110 -0.155478417 -0.161508303 6.236667741 0.041567617 -0.073910629 0.033066533 4.988699501
10.438492160 -0.037102521 0.166693285 -0.022172092 6.179788844 -0.028477535 0.079241902 -0.022653532 5.067906360
10.202462873 0.049954249 0.144730291 0.029852156 6.268564788 0.053242556 0.068801234 0.042353804 5.103656551
10.441471763 0.093711317 0.009437747 0.056000938 6.246316565 0.083573967 0.004486473 0.066482071 4.980739884
10.152836055 -0.138380939 -0.055376937 -0.082695054 6.478046364 0.029123769 -0.026324839 0.023167603 5.011348876
10.151894322 -0.010482896 -0.053555198 -0.006264473 6.603564302 0.019414762 -0.025458829 0.015444207 5.126685612
10.191912956 0.045870651 0.134239160 0.027411839 6.276452990 0.055651711 0.063814007 0.044270258 5.131601679
10.270697320 0.023991864 0.240655789 0.014337296 6.203220286 -0.019730564 0.114401865 -0.015695423 5.129928854
10.368756337 -0.005466471 0.216886153 -0.003266708 6.169838347 -0.041310691 0.103102362 -0.032862151 5.108575868
10.521882859 -0.225303975 -0.025481528 -0.134639385 6.320707450 0.058664357 -0.012113294 0.046666781 5.120094974
10.454580618 0.002500611 0.123944765 0.001494340 6.368723009 -0.016356562 0.058920304 -0.013011445 5.186320645
10.157252983 -0.139811445 -0.100408803 -0.083549910 6.489348665 0.008791779 -0.047731884 0.006993753 4.976043837
10.190542323 0.006929525 -0.054889888 0.004141014 6.611131252 -0.001791777 -0.026093308 -0.001425337 5.166435215
10.381500965 0.052253499 -0.000984743 0.031226164 6.340681132 -0.003972914 -0.000468123 -0.003160404 5.102597848
10.497371495 -0.204955454 -0.008443273 -0.122479314 6.333583038 0.059866048 -0.004013725 0.047622711 5.106406702
10.592619545 -0.266633295 -0.155528142 -0.159337370 6.237059044 0.040902358 -0.073934267 0.032537327 4.983534843
10.145160328 -0.012120033 -0.054253773 -0.007242809 6.598153800 0.021926710 -0.025790914 0.017442430 5.117702896
10.061361574 -0.011971128 -0.010967332 -0.007153826 6.454010673 0.034682645 -0.005213601 0.027589621 5.028159888
10.538403224 -0.230601106 0.131236495 -0.137804897 6.298362923 0.016465350 0.062386614 0.013097985 5.085780924
10.296362722 -0.020728011 -0.026319162 -0.012386851 6.391030572 -0.050181062 -0.012511484 -0.039918422 5.071968764
10.070580680 -0.020360354 -0.070884023 -0.012167142 6.528768660 0.037993083 -0.033696528 0.030223034 5.024675308
10.340664189 0.053570505 0.057167112 0.032013194 6.375863960 -0.056267031 0.027175844 -0.044759737 5.036250329
10.559036329 -0.266487048 -0.080836922 -0.159249974 6.300969507 0.052684806 -0.038427892 0.041910121 5.119132277
10.471474203 0.060537518 0.054146569 0.036176611 6.229305987 0.089491237 0.025739952 0.071189188 4.940085696
10.509475313 0.015740984 0.095059251 0.009406653 6.248111878 0.072608908 0.045188838 0.057759501 4.944131633
10.224343031 0.099041679 0.024188549 0.059186309 6.482178172 -0.106606671 0.011498643 -0.084804306 4.952324083
10.123343733 -0.016042648 -0.058548624 -0.009586924 6.577011563 0.028851675 -0.027832581 0.022951156 5.088367860
10.210848788 0.022741642 -0.051074505 0.013590176 6.608869959 -0.018011741 -0.024279568 -0.014328120 5.173646044
10.594713056 -0.240966111 -0.146584353 -0.143998919 6.237553540 0.039771229 -0.069682609 0.031637528 4.963800977
10.543335296 -0.245106032 -0.046764990 -0.146472894 6.309238690 0.056119042 -0.022230930 0.044642013 5.127983340
10.263930924 0.026836602 0.239222402 0.016037283 6.212206199 -0.017217899 0.113720468 -0.013696628 5.130099539
10.317515197 -0.001459503 -0.023871111 -0.000872184 6.381326018 -0.039437995 -0.011347741 -0.031372444 5.085297733
10.232540084 -0.095073068 -0.067682780 -0.056814707 6.442246595 -0.040925430 -0.032174735 -0.032555680 5.029631694
10.208292146 -0.121079391 -0.090980649 -0.072355824 6.456603233 -0.032374468 -0.043249971 -0.025753495 5.000858653
10.128897337 0.019968895 0.108178237 0.011933210 6.429086919 0.032243940 0.051425283 0.025649661 5.102336052
10.227792394 0.080126364 -0.014748291 0.047882707 6.565876192 -0.085146130 -0.007010976 -0.067732708 5.078326575
10.584179709 -0.285823184 -0.145958307 -0.170805054 6.246418419 0.050564208 -0.069385002 0.040223211 5.028937359
10.572834597 -0.287379812 -0.134999491 -0.171735279 6.265447870 0.053841300 -0.064175450 0.042830098 5.054640655
10.431968353 -0.143651490 0.046036047 -0.085844682 6.326471904 0.067553034 0.021884409 0.053737614 5.059320931
10.333843099 0.001632776 0.230492565 0.000975730 6.173065681 -0.038978607 0.109570517 -0.031007007 5.119369258
10.592169438 -0.260537663 -0.154791903 -0.155694682 6.237659551 0.040343253 -0.073584277 0.032092566 4.976482305
10.141916220 0.026561634 0.127264760 0.015872965 6.408540721 0.032746553 0.060498548 0.026049484 5.105149662
10.607623647 -0.212390723 -0.125172714 -0.126922555 6.239931350 0.034890345 -0.059504041 0.027754844 4.961943397
10.487596066 0.045237662 0.074272885 0.027033571 6.232020318 0.083607246 0.035307509 0.066508544 4.936668536
10.224592970 0.100017754 0.026419877 0.059769602 6.475436962 -0.106617882 0.012559362 -0.084813224 4.944761650
10.226869513 0.040371444 -0.042054886 0.024125568 6.612358662 -0.037140667 -0.019991862 -0.029544948 5.170211805
10.160798810 -0.036550590 0.075887491 -0.021842264 6.392795231 0.066424716 0.036075053 0.052840052 5.174747161
10.592083657 -0.258344643 -0.154301801 -0.154384155 6.237799915 0.040245318 -0.073351295 0.032014659 4.974364081
10.260560476 0.025227957 0.162499122 0.015075973 6.251886614 0.060723875 0.077248101 0.048305102 5.032159717
10.232097134 0.071650164 -0.022384191 0.042817416 6.593564465 -0.074959328 -0.010640896 -0.059629231 5.115731480
10.448101369 -0.009552341 0.144550425 -0.005708383 6.282975487 0.005541678 0.068715730 0.004408337 5.130976954
10.060198437 -0.012319861 -0.014487369 -0.007362225 6.455092246 0.034502518 -0.006886940 0.027446332 5.025333795
10.159385062 -0.048072516 0.067003677 -0.028727651 6.402934552 0.063989912 0.031851906 0.050903194 5.164542965
10.160954848 -0.033705765 0.077845170 -0.020142225 6.390422934 0.067038396 0.037005686 0.053328226 5.176737720
10.160713023 -0.002075266 0.096322046 -0.001240158 6.363705083 0.070873685 0.045789140 0.056379152 5.183416784
10.480275940 -0.063276005 0.124320395 -0.037813103 6.213993238 -0.021063641 0.059098869 -0.016755870 5.049013864
10.070862305 -0.008588537 0.012844334 -0.005132423 6.452173405 0.034501588 0.006105882 0.027445593 5.047056148
10.248158126 0.034973679 0.164385999 0.020899918 6.251974781 0.057456265 0.078145075 0.045705758 5.040388003
10.460717297 -0.004379310 0.147217913 -0.002617032 6.335970207 -0.003085892 0.069983788 -0.002454789 5.182452010
10.055152379 -0.013862179 -0.032869884 -0.008283898 6.466630663 0.032937514 -0.015625537 0.026201390 5.011814505
10.412969056 -0.010024338 0.036432950 -0.005990444 6.227465645 -0.004261902 0.017319332 -0.003390291 4.989244080
10.159857882 -0.045188515 0.069381664 -0.027004201 6.400305047 0.064563753 0.032982343 0.051359678 5.167375921
10.364963229 -0.073497567 0.101455984 -0.043921405 6.289681931 0.081869565 0.048229688 0.065126240 5.015041043
10.453487966 0.003197269 0.122239531 0.001910656 6.370294076 -0.017626174 0.058109678 -0.014021406 5.184692381
10.152868120 -0.072682745 0.041725555 -0.043434476 6.427096459 0.061588492 0.019835307 0.048992894 5.135818802
10.225166370 0.101115476 0.028779037 0.060425589 6.464583630 -0.105653303 0.013680849 -0.084045914 4.935546712
10.148277010 -0.127277938 -0.031058660 -0.076060013 6.469655163 0.046375277 -0.014764526 0.036890967 5.052055279
10.156891264 -0.139753769 -0.097510368 -0.083515444 6.488687179 0.009896536 -0.046354039 0.007872573 4.976894279
10.437505722 -0.012494638 0.122023753 -0.007466670 6.254180294 0.005144213 0.058007102 0.004092159 5.089584229
10.244998548 0.037141763 0.164366821 0.022195543 6.252430143 0.056730775 0.078135959 0.045128640 5.042870668
10.579157737 -0.287287160 -0.141360884 -0.171679911 6.254287109 0.052560027 -0.067199500 0.041810860 5.040490750
10.159506887 0.033879341 0.155034920 0.020245953 6.372208007 0.030508319 0.073699802 0.024268996 5.106139236
10.321997513 0.064331605 0.058152242 0.038443919 6.384350115 -0.062769278 0.027644151 -0.049932195 5.012123624
10.569456530 -0.127655932 0.003630100 -0.076285898 6.267475214 0.003972326 0.001725660 0.003159937 4.986146553
10.554682174 -0.116056416 0.145974647 -0.069354145 6.285663469 0.024640087 0.069392770 0.019600889 5.036204151
10.611762820 -0.186371763 -0.102598836 -0.111373887 6.255753175 0.025647078 -0.048772972 0.020401938 4.962620400
10.303362455 0.074410784 0.058058580 0.044467135 6.388261225 -0.069395153 0.027599626 -0.055202998 4.984543186
10.224749208 0.100432249 0.027333413 0.060017300 6.471933223 -0.106421096 0.012993635 -0.084656684 4.941415009
10.511500292 0.011983935 0.096878690 0.007161479 6.250253755 0.071270462 0.046053755 0.056694784 4.945827968
10.540225406 -0.226411429 0.132505551 -0.135301188 6.298463094 0.016865664 0.062989892 0.013416430 5.084698193
10.157358892 0.033167688 0.151595491 0.019820676 6.376736568 0.031170896 0.072064781 0.024796067 5.105931695
10.148258842 -0.088909196 0.020848728 -0.053131239 6.441999384 0.061318951 0.009910974 0.048778477 5.114899386
10.251957012 0.095614205 0.041200259 0.057138085 6.394240708 -0.086518039 0.019585594 -0.068824045 4.925261741
10.600703448 -0.227297571 -0.136830846 -0.135830738 6.237365442 0.038295427 -0.065046031 0.030463545 4.961537626
10.479455571 0.053258761 0.064727914 0.031826899 6.229649862 0.086836293 0.030770064 0.069077212 4.937485239
10.116957981 0.013733429 0.091110313 0.008206959 6.441744253 0.031920785 0.043311610 0.025392595 5.096522262
10.542110490 -0.070829763 0.133609484 -0.042327152 6.277574922 0.039595412 0.063514675 0.031497667 5.004049193
10.233988460 0.100960658 0.032628024 0.060333072 6.418279156 -0.095720940 0.015510563 -0.076144840 4.919951049
10.460076482 -0.002886055 0.140092543 -0.001724678 6.346122994 -0.006319146 0.066596562 -0.005026803 5.186769950
10.237485581 0.100049230 0.034009120 0.059788412 6.410597792 -0.093445313 0.016167102 -0.074334607 4.919851318
10.408581340 0.083574178 -0.002074949 0.049943087 6.313435705 0.033942112 -0.000986380 0.027000536 5.067010781
10.162202122 0.012983473 0.105176232 0.007758792 6.347901707 0.069842792 0.049998203 0.055559089 5.178316779
10.359981987 -0.068638049 0.104661868 -0.041017406 6.288201430 0.082272805 0.049753687 0.065447013 5.012904565
10.557002893 -0.156582439 0.145450296 -0.093572087 6.293412383 0.019293387 0.069143506 0.015347654 5.057891105
10.323206956 0.002937725 -0.022592266 0.001755555 6.378369554 -0.036632713 -0.010739810 -0.029140876 5.087730223
10.485108848 -0.194872391 -0.000447547 -0.116453777 6.338272858 0.060327668 -0.000212753 0.047989924 5.098644011
10.170256746 -0.140687961 -0.120306866 -0.084073708 6.488115090 -0.008473827 -0.057190936 -0.006740826 4.974593903
10.406379713 -0.000007604 0.000055479 -0.000004544 6.218911139 0.000018231 0.000026374 0.000014503 4.947081050
10.203202340 -0.125783305 -0.096264946 -0.075166836 6.460208970 -0.031045947 -0.045761996 -0.024696672 4.994280616
10.173109830 -0.002945089 -0.053899009 -0.001759955 6.612725039 0.009327989 -0.025622268 0.007420302 5.152181004
10.307008773 -0.020237432 0.135167368 -0.012093685 6.273620133 0.077513761 0.064255254 0.061661252 5.008998801
10.166261514 0.035705492 0.165514459 0.021337242 6.358682301 0.027726606 0.078681518 0.022056177 5.107227473
10.436824304 0.010887209 0.104293157 0.006506087 6.371070463 -0.029214034 0.049578411 -0.023239408 5.152869319
10.062640261 -0.011571784 -0.007304133 -0.006915182 6.453179207 0.034806675 -0.003472206 0.027688285 5.031121596
10.523942125 -0.017116162 0.109762036 -0.010228446 6.264210515 0.060683430 0.052178182 0.048272929 4.962641098
10.204262470 0.050215683 0.146317449 0.030008386 6.267581934 0.053029076 0.069555730 0.042183983 5.099516012
10.436940400 0.099448431 0.005554050 0.059429380 6.250801010 0.077558762 0.002640259 0.061697049 4.993974314
10.475899056 -0.060909538 0.128361907 -0.036398926 6.210766256 -0.021597876 0.061020105 -0.017180847 5.050430176
10.592752271 -0.248672681 -0.150798178 -0.148604288 6.237878115 0.040035051 -0.071685758 0.031847395 4.967256028
10.518951306 -0.004139050 0.104117870 -0.002473455 6.258636962 0.065470506 0.049495084 0.052080989 4.954415837
10.469520814 -0.181390255 0.010939710 -0.108396988 6.340926540 0.061273862 0.005200470 0.048742610 5.088032392
10.336869627 -0.047001874 0.118282811 -0.028087846 6.282479690 0.082498848 0.056228750 0.065626827 5.006436417
10.459386787 -0.001857670 0.136335073 -0.001110125 6.351695562 -0.008246471 0.064810353 -0.006559967 5.188350328
10.454239500 -0.166882812 0.024270499 -0.099727486 6.338553478 0.063028881 0.011537600 0.050138706 5.076765958
10.082819157 -0.003379577 0.036800055 -0.002019601 6.453347530 0.033250529 0.017493844 0.026450390 5.064394576
10.292294555 0.079843729 0.056592909 0.047713808 6.388704777 -0.073112747 0.026902882 -0.058160299 4.968175727
10.294141164 -0.023147008 -0.026606555 -0.013832419 6.392125908 -0.051186511 -0.012648104 -0.040718245 5.070196735
10.460736084 -0.004643443 0.148876345 -0.002774875 6.333588441 -0.002358604 0.070772166 -0.001876240 5.181227784
10.202382796 0.015539259 -0.053557720 0.009286104 6.609188856 -0.010656644 -0.025460028 -0.008477230 5.171879908
10.136972407 0.024111463 0.119888945 0.014408768 6.417201728 0.032590111 0.056992267 0.025925036 5.104480564
10.227153629 0.081388292 -0.013185747 0.048636823 6.560776231 -0.086668980 -0.006268181 -0.068944116 5.071570610
10.455305850 0.076137514 0.029659014 0.045499011 6.234945487 0.091355993 0.014099169 0.072672578 4.953228150
10.054046234 -0.014352581 -0.038007438 -0.008576958 6.471967312 0.032588649 -0.018067804 0.025923873 5.008752158
10.417551991 0.096436697 0.000004226 0.057629598 6.288369154 0.048008494 0.000002009 0.038190171 5.042611059
10.145697250 -0.111106481 -0.008805459 -0.066396113 6.458984171 0.056735959 -0.004185899 0.045132763 5.083595032
10.604992008 -0.218442546 -0.129931093 -0.130539064 6.238409219 0.036490811 -0.061766058 0.029027995 4.961604441
10.592074003 -0.256075000 -0.153673278 -0.153027839 6.237893800 0.040176255 -0.073052511 0.031959721 4.972382109
10.158277725 -0.008649721 -0.053256628 -0.005168986 6.607749951 0.016771103 -0.025316896 0.013341208 5.134946818
10.591721237 -0.278132266 -0.153495607 -0.166209039 6.237078817 0.044559693 -0.072968050 0.035446692 5.003569800
10.233902769 0.054032810 -0.033789358 0.032289463 6.614117214 -0.053361978 -0.016062633 -0.042448802 5.158066602
10.525520529 -0.021553001 0.111707303 -0.012879856 6.265863397 0.059017530 0.053102914 0.046947725 4.965682069
10.557090756 -0.262476455 -0.073189113 -0.156853284 6.302510337 0.053138096 -0.034792311 0.042270707 5.123303868
10.277212479 0.021023478 0.241472891 0.012563419 6.195480353 -0.022132508 0.114790295 -0.017606140 5.129549339
10.295403610 0.012678535 0.240667558 0.007576565 6.180807821 -0.028918836 0.114407459 -0.023004581 5.127420892
10.579753256 -0.143788463 -0.032632827 -0.085926536 6.277958175 0.010717813 -0.015512846 0.008525889 4.968240350
10.231389628 0.073170308 -0.021257095 0.043725839 6.589519737 -0.076792299 -0.010105102 -0.061087337 5.109977607
10.174783064 0.035659116 0.122555552 0.021309528 6.307003196 0.061837897 0.058259906 0.049191292 5.158038242
10.345405278 0.019796534 -0.015057103 0.011830209 6.365241737 -0.026175669 -0.007157778 -0.020822426 5.095533344
10.155553414 -0.139841811 -0.082022694 -0.083568057 6.484879645 0.015502450 -0.038991578 0.012332010 4.984014124
10.460508456 -0.003720813 0.143714121 -0.002223520 6.340922310 -0.004632575 0.068318171 -0.003685157 5.184758422
10.104182324 0.007121075 0.072295353 0.004255483 6.449739598 0.031991936 0.034367439 0.025449195 5.087027196
10.220887303 0.032880147 -0.046231258 0.019648845 6.610398552 -0.028758901 -0.021977207 -0.022877355 5.172992186
10.588272853 -0.283219220 -0.149809918 -0.169248952 6.240798673 0.048038203 -0.071215964 0.038213805 5.017753152
10.235650610 0.100542536 0.033252674 0.060083206 6.414332193 -0.094588834 0.015807506 -0.075244264 4.919793321
10.227370399 0.101950757 0.030680224 0.060924745 6.444118140 -0.101989647 0.014584626 -0.081131520 4.925222269
10.440680529 -0.011750788 0.128929383 -0.007022152 6.262535655 0.005482743 0.061289869 0.004361455 5.101868089
10.178834372 0.038379758 0.125178787 0.022935356 6.297990482 0.060028097 0.059506928 0.047751619 5.153185416
10.329371871 0.007589595 -0.020861878 0.004535465 6.374965846 -0.033679790 -0.009917225 -0.026791862 5.090085304
10.126028540 0.018475074 0.104075183 0.011040518 6.432640983 0.032136524 0.049474791 0.025564213 5.101227239
10.420205588 -0.015339370 0.083445400 -0.009166653 6.215286284 0.000721333 0.039667898 0.000573811 5.026045266
10.569985363 -0.286726418 -0.131386980 -0.171344817 6.271053176 0.054008677 -0.062458150 0.042963244 5.061732524
10.388194580 -0.010679151 0.207095008 -0.006381753 6.168171154 -0.040153045 0.098447892 -0.031941258 5.099950147
10.353587073 -0.002266071 0.223317422 -0.001354181 6.171294448 -0.040981142 0.106159630 -0.032599998 5.113859824
10.225448998 0.101384296 0.029327291 0.060586233 6.460722007 -0.105099507 0.013941476 -0.083605376 4.933004919
10.393725411 0.064903971 0.000526514 0.038785959 6.333073537 0.008821354 0.000250292 0.007017279 5.097926491
10.181585176 0.001422529 -0.054620976 0.000850089 6.612588752 0.004204889 -0.025965473 0.003344938 5.160048923
10.228215670 -0.099627155 -0.071704786 -0.059536184 6.445156867 -0.038871838 -0.034086698 -0.030922073 5.026143772
10.413334281 -0.006595236 0.023140925 -0.003941246 6.234872911 -0.003210565 0.011000629 -0.002553965 4.980824822
10.313736253 -0.026377520 0.131119524 -0.015762940 6.276230840 0.079260209 0.062331008 0.063050529 5.007250297
10.410975835 -0.001995992 0.007398064 -0.001192785 6.231586103 -0.000694767 0.003516858 -0.000552679 4.962410384
10.547895239 -0.088492324 0.140104063 -0.052882121 6.280499832 0.032832339 0.066602038 0.026117725 5.017697960
10.550500713 -0.097456932 0.142648254 -0.058239280 6.282078080 0.029765531 0.067811484 0.023678117 5.024125371
10.457161571 0.000544738 0.129034638 0.000325530 6.362508363 -0.012705685 0.061339905 -0.010107217 5.189019017
10.412682676 -0.011305976 0.041900052 -0.006756338 6.223066486 -0.004338354 0.019918258 -0.003451108 4.991651580
10.270202936 -0.052328049 -0.035635916 -0.031270715 6.409399381 -0.055601664 -0.016940441 -0.044230446 5.051881471
10.148944671 -0.086130407 0.024539903 -0.051470663 6.439605293 0.061448984 0.011665668 0.048881917 5.118526521
10.555820092 -0.260320823 -0.069349048 -0.155565100 6.303262994 0.053451701 -0.032966838 0.042520176 5.124941974
10.421834724 0.101252416 0.001510164 0.060507424 6.276726130 0.053779046 0.000717895 0.042780575 5.033151699
10.443884823 0.090394529 0.012329572 0.054018859 6.244040605 0.086026208 0.005861177 0.068432799 4.974361973
10.216095974 0.027770123 -0.048822664 0.016595146 6.609385667 -0.023264914 -0.023209098 -0.018506956 5.173748655
10.357487143 0.029703693 -0.009893707 0.017750627 6.357118991 -0.020198764 -0.004703226 -0.016067870 5.099170390
10.434754946 0.101658466 0.004418207 0.060750075 6.253186103 0.074161398 0.002100307 0.058994487 5.000487809
10.456951935 -0.006467355 0.157234047 -0.003864826 6.309406262 0.003413639 0.074745213 0.002715508 5.163561756
10.161152693 -0.140519429 -0.114155306 -0.083972994 6.491365037 0.001553789 -0.054266635 0.001236020 4.973808956
10.107521446 -0.018025345 -0.062770377 -0.010771764 6.561147229 0.033011841 -0.029839499 0.026260517 5.068057604
10.333200110 0.057913139 0.057494372 0.034608308 6.379722835 -0.058803001 0.027331415 -0.046777070 5.027181812
10.545068068 -0.079644393 0.137061559 -0.047594686 6.279022094 0.036134640 0.065155706 0.028744665 5.010997268
10.439127991 -0.012128108 0.125553978 -0.007247635 6.258414218 0.005337850 0.059685284 0.004246195 5.095835101
10.252760091 -0.073348211 -0.049274348 -0.043832152 6.425937508 -0.050382841 -0.023423817 -0.040078936 5.041652556
10.556629160 -0.161854407 0.144857376 -0.096722563 6.294233772 0.019019555 0.068861647 0.015129824 5.060372101
10.572365757 -0.132442362 -0.007028388 -0.079146221 6.270966354 0.006155141 -0.003341124 0.004896340 4.980189158
10.407664933 -0.117531847 0.068866264 -0.070235847 6.309571147 0.073995820 0.032737334 0.058862772 5.040827537
10.546013897 -0.247917276 -0.050417412 -0.148152866 6.307948552 0.055632358 -0.023967202 0.044254862 5.128287571
10.299655498 0.076283490 0.057703671 0.045586245 6.388525855 -0.070664919 0.027430911 -0.056213081 4.978978686
10.292352606 0.013981421 0.241106206 0.008355156 6.182465824 -0.027791307 0.114615982 -0.022107646 5.127891927
10.442661698 0.092079798 0.010799375 0.055025959 6.245186216 0.084854624 0.005133758 0.067500819 4.977512109
10.232346959 0.049756914 -0.036435656 0.029734231 6.614247940 -0.048174373 -0.017320618 -0.038322126 5.163157948
10.226227473 -0.101745806 -0.073564361 -0.060802268 6.446416998 -0.037960430 -0.034970695 -0.030197059 5.024307814
10.592463750 -0.264684672 -0.155396704 -0.158172893 6.237275608 0.040663564 -0.073871785 0.032347369 4.981079808
10.411469576 -0.002438812 0.008853952 -0.001457410 6.232854766 -0.000956007 0.004208952 -0.000760492 4.964738956
10.507734089 -0.077481220 0.099372878 -0.046301996 6.231111548 -0.017543663 0.047239431 -0.013955770 5.040209499
10.513459232 0.008109002 0.098682150 0.004845858 6.252398946 0.069887344 0.046911076 0.055594530 4.947706422
10.593300497 -0.158789682 -0.063167544 -0.094891113 6.278859366 0.015666305 -0.030028303 0.012462355 4.960822023
10.332578183 0.009996509 -0.019836839 0.005973813 6.373119208 -0.032170186 -0.009429947 -0.025590991 5.091234775
10.425050531 -0.014714244 0.094779027 -0.008793084 6.224662478 0.002413436 0.045055627 0.001919859 5.043385540
10.161024235 0.004192858 0.099871979 0.002505610 6.357590785 0.070729317 0.047476691 0.056264309 5.181898513
10.567905981 -0.125205492 0.008960560 -0.074821540 6.265685067 0.002809621 0.004259631 0.002235019 4.989284166
10.149957754 -0.132355132 -0.039444572 -0.079094093 6.472990998 0.040641293 -0.018750983 0.032329653 5.037767215
10.500600512 0.029712078 0.087180678 0.017755639 6.239922254 0.077637703 0.041443558 0.061759846 4.939085140
10.454237193 -0.007393443 0.154859622 -0.004418247 6.300704366 0.004500507 0.073616469 0.003580099 5.154030342
10.057294025 -0.013160991 -0.024304892 -0.007864875 6.459895003 0.033728759 -0.011553950 0.026830817 5.017745605
10.458936228 -0.005837945 0.156891682 -0.003488697 6.317236886 0.001980211 0.074582461 0.001575234 5.170591515
10.359431619 0.042767947 0.058330569 0.025557694 6.365352157 -0.050507114 0.027728923 -0.040177793 5.055785921
10.557294116 -0.146116217 0.146354097 -0.087317579 6.291606823 0.020057846 0.069573151 0.015955771 5.052760371
10.556611510 -0.130775993 0.146818511 -0.078150415 6.288645747 0.021878140 0.069793922 0.017403794 5.044693348
10.226224894 0.101773009 0.030136334 0.060818524 6.452628544 -0.103702311 0.014326074 -0.082493924 4.928655268
10.425065106 0.103633522 0.002332035 0.061930348 6.268966785 0.058432919 0.001108592 0.046482674 5.025955255
10.461743434 0.069522443 0.039784846 0.041545911 6.231642387 0.091444208 0.018912741 0.072742752 4.946349199
10.593919293 -0.243501895 -0.148106521 -0.145514278 6.237677887 0.039890313 -0.070406210 0.031732258 4.964730754
10.397259821 -0.013838740 0.201721420 -0.008269892 6.167798858 -0.038935151 0.095893420 -0.030972437 5.095088244
10.244014857 0.098133800 0.037093431 0.058643770 6.401001812 -0.089978185 0.017633308 -0.071576549 4.921405445
10.561212587 -0.273555645 -0.095996252 -0.163474097 6.296949609 0.052476049 -0.045634266 0.041744057 5.107487360
10.187551073 0.043274329 0.130515165 0.025860303 6.282105534 0.057002011 0.062043711 0.045344404 5.141131768
10.452260857 0.003922776 0.120502155 0.002344211 6.371581913 -0.018917392 0.057283771 -0.015048555 5.182673721