-0.0197362126 -0.0743942206 -0.0924728840 5.1279493691 -0.1342517709 2.4500539559 0.0405073648 3.0054214295 -0.1106189754 3.0413305301 4.7133622557 4.8848603004 2.3063269150 1.6391739931 2.5183135634 7.4525691063 1.5503934070 0.1319530800 8.1938764029 4.4205135565 2.5368218696 1.0364127588 4.7012657246 2.1247051523 4.1098053708 1.6465415646 4.7505460568 9.4430906615 1.3573220216 2.7233090941 6.3210601317 4.6899091210 0.2788117881 1.0328642913 4.6492948659 3.6700702904 3.9883167177 1.5587000839 1.3128085916 9.3959565152 1.3887621891 1.1947032728 6.4555642726 4.6720485039 3.7328920810 4.8921954678 4.4711665791 0.7114481696 0.3286155417 1.5974455264 3.1941267730 5.5906766035 1.6898971660 4.3445736828 10.2328709744 4.5341104576 1.5720365789 1.8039344479 5.9625941253 1.5557962512 3.5199423088 0.2754280673 4.0914473573 8.6411312695 2.5952220813 3.2922238405 7.2619699517 3.5142914015 0.9584657844 8.8276831833 0.0793872748 3.3167266575 6.8969942451 6.0247599412 0.9091661114 1.8356676953 3.4434091134 1.4767656641 3.2524882601 2.7442488932 4.0855958566
-0.0442850951 -0.0401011682 -0.1719171645 5.1720450612 -0.1614055395 2.4815915034 0.0246116342 2.9933692614 -0.1313889775 3.0109148814 4.7062162495 4.8871692321 2.3051301163 1.6434591124 2.5039724490 7.4733043485 1.5127906475 0.0915563082 8.2257435829 4.3887543343 2.5068172933 1.0437427227 4.6761828861 2.1270094045 4.0856339095 1.6202128572 4.7470644375 9.4415752434 1.3761357510 2.6428059176 6.3234917145 4.6574889296 0.2498299776 1.0163101059 4.6301998510 3.6826839647 3.9615317737 1.6164732871 1.3033937487 9.4084851968 1.4165373433 1.0936811082 6.4493072370 4.6241323238 3.6785548415 4.8266830308 4.4235408232 0.6440202066 0.3141776762 1.6397541049 3.2209780673 5.5429397679 1.7742212910 4.3398965250 10.1326491341 4.4841660477 1.5248773223 1.8262229206 5.9613110918 1.4812648843 3.4391526867 0.3448244538 4.1290669357 8.5716991624 2.5321129943 3.3352647371 7.2492174498 3.5534927161 0.9023298399 8.8696167471 -0.0074121834 3.2541814683 6.9086759748 5.9743280067 0.9036635061 1.8544818893 3.4242998693 1.5179295145 3.2276475668 2.7592120536 4.0060455004
0.1497560203 0.0051954000 -0.1893395109 5.1601145254 0.2509012488 2.3517564782 -0.3518124110 3.1252361248 -0.0054389410 3.0645975584 4.8160544811 5.0605413008 2.3064279933 1.6609162380 2.6073019944 7.4483287641 1.6471853143 0.1261171732 8.2132752225 4.7391460506 2.4301278467 1.1572521630 4.6220641896 2.3180515063 4.1501637196 1.7230853404 4.7349338744 9.4108767820 1.5029713112 2.8360816302 6.4161336612 4.8234555110 0.2175175526 1.2451056635 4.6531648241 3.8655122122 4.0082886415 1.6756162326 1.3309601719 9.2892731520 1.4921190195 1.2998656155 6.6975761939 4.9435537896 3.6613229683 4.9629647130 4.6154369082 0.7383079451 0.4077045700 1.6398881663 3.3596808872 5.6163312368 1.5943516689 4.3532703437 10.1681252593 4.6447982356 1.9253443930 1.7781275495 5.8765486554 1.7287660470 3.4093765910 0.3914729256 4.1511568696 8.4821962073 2.6308730659 3.4777286722 7.3512215132 3.6073099959 0.8895926671 8.7541652020 0.2505914468 3.4940373459 6.9722209426 6.0246091704 1.0602226254 1.9414144561 3.4252939642 1.6299296831 3.4494225741 2.9273202747 4.0847419755
-0.0313317666 -0.0593059578 -0.1284770190 5.1446525351 -0.1466382277 2.4597410020 0.0336099569 2.9989452793 -0.1241662777 3.0292346710 4.7144491429 4.8815309517 2.3045257996 1.6420259658 2.5118674157 7.4610200423 1.5346673291 0.1134820240 8.2067747315 4.4089307892 2.5208301471 1.0231591457 4.6955599276 2.1214391875 4.1005063861 1.6404382286 4.7425584487 9.4490189878 1.3708666596 2.6876949020 6.3102792301 4.6832763664 0.2655369710 1.0165702057 4.6410800079 3.6745955778 3.9798482019 1.5854570178 1.2989913508 9.4064935555 1.4006707119 1.1599937098 6.4477123460 4.6533820192 3.7138362688 4.8727895470 4.4498330985 0.6745890719 0.3072715557 1.6177817038 3.1982087579 5.5550082786 1.7279586888 4.3440580427 10.2106161744 4.5176677808 1.5583487467 1.8196196107 5.9773694048 1.5177794424 3.4877763852 0.3064249150 4.1085095457 8.6074934396 2.5779495357 3.3009407912 7.2596892617 3.5282192876 0.9360892816 8.8460801074 0.0373577054 3.2884251670 6.9043374011 6.0129603989 0.9046396143 1.8504028372 3.4237450189 1.4886346845 3.2461183712 2.7479868988 4.0514519964
-0.1195040819 -0.1457446602 0.1115466288 5.1425759890 0.2268511740 2.6005846790 0.0357530801 3.1262457070 0.1814554827 2.9947776132 4.5865471838 5.0966306809 2.2820411842 1.6691346681 2.6613805893 7.2594595876 1.7255852646 0.2386075839 7.9454333304 4.7369060937 2.7229287362 1.2074147411 4.7448259066 2.3419844250 4.0464863197 1.6135381316 4.9060346071 9.0741022566 1.5776736646 2.9806098307 6.2440680795 4.8306194693 0.3515906713 1.3850584135 4.7600509451 3.8957109599 3.8040340963 1.5695805670 1.2926107744 8.9824164694 1.5646017830 1.4601218108 6.4755848277 4.8468410449 3.9253363871 4.7762318829 4.7449203008 0.8445812097 0.4163919504 1.7171645510 3.3532481192 5.5407483006 1.6931974434 4.3974082986 9.8068663248 4.6093498524 2.1221575943 1.6321129812 6.0623945874 1.6415827171 3.3372595257 0.4400383885 4.2541276913 8.2700981221 2.6880572262 3.6971348110 7.2099538914 3.6460280552 0.9322879044 8.5702252735 0.2858045689 3.6113365923 6.9405053965 6.0560439557 1.0441234941 1.9632337229 3.5056415179 1.6046019121 3.3323044136 2.8357081476 4.2141741775
-0.0623180580 -0.1281099603 0.0659838366 5.2812216096 0.2095340031 2.4841234721 -0.0032776530 3.1953531387 0.0982643590 3.0572912997 4.6052554840 5.0729896065 2.2896750350 1.6724900525 2.5921217948 7.2715328051 1.7198541352 0.2362164214 8.1045196111 4.6234946221 2.6848713856 1.1891074925 4.7041916414 2.3741882413 4.0707161205 1.6159676649 4.8261291307 9.1353065633 1.5117399863 2.9807516487 6.2747027514 4.8207919527 0.3554657139 1.2069563849 4.7236268950 3.8847195066 3.9381009467 1.6289143085 1.3349968093 9.0506585413 1.7446744210 1.4939902459 6.3254775557 4.9112103023 3.8623061036 4.8531101831 4.8076607676 0.8244296581 0.4178014113 1.6665592629 3.3600272165 5.5445984239 1.5934668018 4.3497285668 9.9162665843 4.4778591033 2.0524132008 1.6662440018 6.0028829170 1.6556917977 3.2948281449 0.3643156597 4.1499621569 8.2812828557 2.6523521633 3.6873041199 7.0931226778 3.6757608062 1.0200817085 8.6526293156 0.1224083486 3.4936602200 7.0330673778 6.1041815990 0.9668609380 1.9386063685 3.5760842222 1.6844548969 3.2362971134 2.8337615151 4.1953274992
-0.0203746914 0.2369246303 0.0310961143 5.0750734053 -0.1404967160 2.6697491515 0.0757364871 3.1892062570 -0.0823800540 2.9517723765 4.6451069603 5.0380437124 2.2736103981 1.6975410655 2.4239107126 7.2207149920 1.5822200903 0.0376359568 8.0012466488 4.6590228455 2.5774005993 1.1440219254 4.8269720980 2.1775266335 3.9107926231 1.5248984307 4.8224683240 9.1352291255 1.6317720136 2.7133407467 6.3526728239 4.6448651217 0.2354172828 1.2333238894 4.8215286102 3.7500879806 3.7631454542 1.5225083402 1.2764409007 9.0770426753 1.5976062595 1.1318837430 6.4769450052 4.5688215616 3.7820719716 4.8239979187 4.8645457137 0.5346562656 0.4056137143 1.6477165774 3.1313704757 5.3869741247 1.4938797272 4.4037982634 9.8991605577 4.7362807231 1.6523861258 1.9032888821 6.0099125597 1.4173440903 3.2422930214 0.3579109963 4.0461148516 8.6019846853 2.9056471554 3.3546230910 6.8700539891 3.3960642079 0.9131620458 8.4450439752 0.4333698601 3.4284570349 7.1282288944 5.9235168705 0.8046872427 1.8653520027 3.6009205285 1.5640347812 3.1606112819 2.7982540339 4.1972155995
-0.0198066180 0.0731069781 -0.0465116297 5.2774875902 0.0223221450 2.7413229359 -0.0133817524 3.0932896970 0.0600060492 3.1008571425 4.5250587884 5.0787968801 2.3271667578 1.6019118685 2.4770893727 7.3227553294 1.6447262492 0.2359600035 8.0385993018 4.7194448713 2.7882750529 1.2434901325 4.6333209891 2.3563419803 4.0977286799 1.5089420958 4.8582817407 9.1918698851 1.6035372633 3.1341901205 6.3177390255 4.7120363610 0.3896502171 1.3645809860 4.7038216102 3.8592390086 3.8119180091 1.5348675558 1.2894792529 9.0710550439 1.7214947971 1.6162385302 6.5140973242 4.7232765042 3.9371934809 4.7809151309 4.7438901832 0.8790401959 0.4801147550 1.4879922170 3.3884654781 5.5923705965 1.4371443631 4.4485593807 9.8874816119 4.6814424629 2.1960721462 1.8613147785 5.7851665558 1.5708059691 3.3278384756 0.2447782592 4.1506382672 8.5175713546 2.7549846053 3.9249054343 7.0496055122 3.5172021398 1.0858158251 8.4239820579 0.3828158453 3.8544901246 6.9769676365 5.9721178961 1.0408931526 1.8617681748 3.4232008937 1.6796127219 3.3039870000 2.7166603634 4.1600304280
0.1971111152 0.0832538880 0.0203747312 5.0540833923 -0.1221959828 2.5691349909 -0.1005800671 3.3018187220 -0.0997499197 3.0511171926 4.6784397729 4.8868081544 2.1963319085 1.8092538222 2.5645379454 7.2689686696 1.5446866538 0.0255993571 8.0472630245 4.7892868556 2.2724023936 1.1251497618 4.7670835753 2.0976542798 3.9884478658 1.5307281669 4.7041046572 9.1330934439 1.7230629983 2.7112497944 6.3755067463 4.8215209320 0.1877281899 1.2516443753 4.7513153100 3.6639094203 3.9087007774 1.5512410104 1.3246402134 9.0571255647 1.6282823713 1.1376445387 6.4941680375 4.8273028341 3.5723869630 4.8627769961 4.7332918524 0.5863071324 0.3805218726 1.7230195885 3.1443223272 5.4924487072 1.5822690084 4.2466650384 9.9435553979 5.0355993175 1.6487504688 1.9817707841 5.9297522001 1.5270969900 3.2765024076 0.3713645259 4.0446217330 8.6027973977 3.0557876353 3.2871437421 7.1514821255 3.6929655092 0.8154470010 8.4425786872 0.5147534740 3.4146195653 7.0558809661 6.0499780311 0.8634886614 1.7280544375 3.4334844973 1.3626707539 3.1581025331 2.7214455824 4.1435158915
-0.0600356993 0.0625573381 -0.0159880572 5.2833302228 0.0428047232 2.6932502782 -0.0479851781 3.2520937022 0.0566955709 3.0673712315 4.6376914379 5.0935102636 2.3008723932 1.5659645865 2.4608989207 7.2399482251 1.6249295503 0.1536097819 8.0092514479 4.8665258700 2.7475434789 1.1311543056 4.7723461841 2.3161542366 3.9875829393 1.5733340623 4.7589111671 9.1011868840 1.7712765459 3.1532026155 6.2022935694 4.8097805771 0.4188660065 1.1917314006 4.7728009424 3.8584507814 3.7907634539 1.6188876880 1.1937986598 9.0142526564 1.7301529003 1.6388512619 6.4293113571 4.7958194958 3.9650353408 4.6782256498 4.8575535420 0.8565606117 0.4030353730 1.7884810547 3.4817472630 5.5074064605 1.5577678465 4.3913808325 9.8353761592 4.8072531430 1.9444530460 1.9067013745 5.9567811826 1.7253091213 3.2890168003 0.3143564167 4.0981673257 8.4155996434 2.9858663039 3.8478505604 6.9101110475 3.5507644026 1.0511529803 8.4520872727 0.5064171596 3.6989618052 6.9824607861 6.0710227238 1.0020691112 1.7293203117 3.4801857376 1.6104501363 3.2843959249 2.8073101308 4.2235182324
0.1384037866 0.0727851395 0.0116774720 5.2869643657 0.1268395838 2.5286148707 -0.3969532391 3.1532991678 0.0213180849 3.0613895493 4.7335341651 4.9895213933 2.3134201543 1.5693395226 2.6372766313 7.5445509183 1.7150939861 0.1202949424 8.1654947002 4.6429979398 2.5678292518 1.1157565012 4.6207115726 2.2974720802 4.1787228973 1.7278327803 4.8414761464 9.4694292802 1.3935623044 2.8930790942 6.4525151256 4.7075189333 0.2989587252 1.2396061073 4.5776076034 3.8360334636 3.8906556114 1.6581731026 1.4219749593 9.4267305859 1.3427306068 1.3613934117 6.5910427543 4.7391256907 3.7491520339 4.9593026295 4.5817823394 0.6163478860 0.3771973029 1.7267142311 3.2394370859 5.6668571460 1.6887461264 4.3961674304 10.1935212481 4.3994465209 1.9646563770 1.7841588680 5.8755396826 1.6584837541 3.4239396036 0.4667834026 4.1376423993 8.5746411075 2.6904003580 3.5086192331 7.3798239283 3.5535059955 0.8959593548 8.9585439848 0.1116879207 3.6228413136 7.0775132361 6.0212447654 0.9743142511 1.9379239107 3.4678610692 1.5929831741 3.3974329024 2.8543668096 4.0748875648
0.1366940946 0.0744905900 0.0016917686 5.2819827951 0.1334637734 2.5207265696 -0.3986766376 3.1491036644 0.0205321054 3.0614997063 4.7377751455 4.9899388520 2.3126025922 1.5720296786 2.6362042439 7.5436897229 1.7160534975 0.1206154344 8.1675018159 4.6471252613 2.5621158838 1.1175686785 4.6170653554 2.2983663283 4.1769375636 1.7269274568 4.8368838013 9.4697252152 1.3971346828 2.8900614762 6.4545360508 4.7067184898 0.2991975867 1.2434249071 4.5784364232 3.8345402620 3.8952618569 1.6622590746 1.4217978849 9.4265031073 1.3460900050 1.3622112986 6.5944977108 4.7449928573 3.7462882894 4.9643807599 4.5817929401 0.6154556911 0.3782889983 1.7254329239 3.2423906542 5.6710906696 1.6870187204 4.3923761189 10.1844706782 4.4052621738 1.9636272682 1.7895112084 5.8806432377 1.6604342633 3.4256014877 0.4681078044 4.1377387416 8.5711573022 2.6920546612 3.5071756131 7.3769552137 3.5590712153 0.8922553027 8.9527282120 0.1163912039 3.6202065177 7.0728643637 6.0278374430 0.9779551461 1.9426830102 3.4666432698 1.5959233567 3.3999221187 2.8590248519 4.0692107703
0.1353412304 0.1306476188 0.1237124392 5.0625403653 -0.0834137355 2.4949690360 -0.1870943924 3.2139477913 0.0264236914 3.0793335892 4.7453401251 5.0681738172 2.3241009990 1.8130133087 2.6385579453 7.3573369941 1.5406774753 0.0070258859 8.1943650654 4.7184554215 2.4442513573 1.1083474762 4.7211493645 2.2648817411 4.0851045783 1.5329843022 4.8997838496 9.3577835530 1.6703096336 2.9556833927 6.4196969401 4.6960578198 0.1600388427 1.0924501032 4.7353987874 3.7857201512 3.8959092332 1.5872537397 1.3199735734 9.3017031277 1.6430528066 1.4496100809 6.6077614490 4.8601480929 3.7160098664 4.9092604389 4.8007151570 0.6894124437 0.4295332030 1.4360378269 3.4308526635 5.5157720189 1.5743399324 4.3508457690 10.0326436812 4.8433552813 1.7831844706 1.9491117396 5.7768603493 1.5360849310 3.4054313749 0.2703434417 4.3476953256 8.5838603282 2.9200650264 3.4088648316 7.1400965225 3.3911007562 0.6976742745 8.5507000074 0.5823708170 3.6838179585 7.1500303450 5.8850159475 0.9060593124 1.6863633959 3.3871468356 1.6937581325 3.2642649895 2.6996276964 4.3226976476
0.0884011418 0.0097906385 -0.2375327140 4.9822418523 -0.2285379795 2.4948780444 0.2297590560 3.2731102435 -0.0855998476 2.7887369810 4.7301596243 4.8132230505 2.1663697570 1.6112076998 2.3610615195 7.2238794715 1.5511377748 -0.0399567360 7.9021333698 4.6923950649 2.5229597414 1.0100529890 4.8685478220 2.1440905952 3.9285790645 1.4694237041 4.7218981006 8.9963797372 1.6628533432 2.6778343918 6.1634819130 4.6621251959 0.2589566163 1.0345600086 4.9143211430 3.7175771041 3.9138329539 1.5245857578 1.2862203983 8.9401272048 1.7188349572 1.1721191392 6.3307102363 4.6430136991 3.7213251883 4.6530027736 4.7871928075 0.5822918833 0.3735419869 1.5137678572 3.1939189641 5.3589294981 1.4465628470 4.1442269304 9.6276328803 4.7614988155 1.6137132271 1.5861953980 6.1684989582 1.4140120069 3.1976213398 0.2639844926 4.1104667078 8.6178378626 2.8938795574 3.4392820415 6.8791860889 3.4307665817 0.9565314776 8.1719968904 0.5203298975 3.3273811212 6.9537727804 5.8490309986 0.9591842758 1.6836570746 3.6196982306 1.4920297239 3.0908069574 2.6649038260 4.0656663513
0.1363365253 0.0505523415 -0.1674240184 5.1877938144 0.2379620596 2.3849272894 -0.3819611051 3.1057618981 -0.0006873602 3.0655223974 4.7964831988 5.0299324286 2.3042490014 1.6341304735 2.6154025564 7.4876199836 1.6819723731 0.1272700587 8.2037658528 4.7117645534 2.4651005275 1.1604464306 4.5770805443 2.2971789118 4.1628289302 1.7194631787 4.7536826647 9.4131923931 1.5024119157 2.8756216031 6.4483155234 4.7856832398 0.2570327987 1.2690173063 4.6301819962 3.8624127760 4.0069473783 1.6856480222 1.3340337751 9.3357075149 1.4424326866 1.3208798072 6.6962286432 4.8796835711 3.6473622079 4.9706615786 4.5904131563 0.7030777608 0.4321077877 1.6630746145 3.3467349446 5.6270449460 1.6262227439 4.3764167074 10.1023252437 4.5747149009 1.9458074356 1.8080739984 5.9042258500 1.7190888652 3.4323588786 0.4144120363 4.1579949385 8.5493831645 2.5678715823 3.4561124502 7.3599485101 3.5970350954 0.8959855070 8.8115235633 0.2461225336 3.5288104144 6.9751071569 6.0260243422 1.0457336212 1.9736175968 3.4306733191 1.6349231117 3.4508441314 2.9258435768 4.0616423112
0.1799138957 0.0215923507 0.1652316113 5.3643439984 0.0132226973 2.6567757715 -0.3332877253 3.2344148254 0.0242019880 3.0505276637 4.6523578719 4.9842715519 2.3250942439 1.5354311810 2.6473006812 7.5464465100 1.6756803001 0.1142141288 8.1478206802 4.5625413052 2.6601880794 1.1325918282 4.6075894641 2.3026445705 4.1451475970 1.6917491717 4.8982446857 9.4546164283 1.3801105066 2.9231986317 6.4105592270 4.6913533214 0.2961675841 1.1840915186 4.6152284690 3.8601201314 3.8733297128 1.5584094657 1.3607685438 9.3543964089 1.3172211069 1.3765344092 6.5688367111 4.6617371551 3.7509674382 4.9143226064 4.6052354020 0.6991355077 0.4168501334 1.7164617004 3.2345180412 5.6317025545 1.6984041390 4.4822778416 10.1628933045 4.3649597125 1.9611961583 1.7361477822 5.9174025838 1.6173797392 3.4224588912 0.4195540227 4.1681126268 8.6561584162 2.5207317280 3.5121946886 7.3523000303 3.5295235605 0.9440283788 9.0091495729 0.0645961962 3.6231087735 7.1351055258 5.9103312674 0.9329956922 1.8791559643 3.4633510710 1.5494981373 3.3433238757 2.8409252038 4.2005502803
-0.0852098852 -0.1533429801 0.1050401405 5.1982653081 0.2312689088 2.5505324651 0.0234007412 3.1680376921 0.1603176019 3.0141955697 4.5822743974 5.0929375308 2.2811772999 1.6755983500 2.6367193598 7.2626751652 1.7253706235 0.2370281895 8.0131643831 4.6949245687 2.7042968741 1.1915823051 4.7293518426 2.3442742218 4.0776445142 1.6421682766 4.8952870298 9.1271738683 1.5515717635 3.0120557576 6.2708727745 4.8228707249 0.3383121112 1.2991072079 4.7517678154 3.9123765190 3.8529925347 1.6018589009 1.3006068860 8.9873451599 1.6687704166 1.4068818790 6.4011770535 4.8837160902 3.9253180252 4.7533028207 4.7708841434 0.8399417577 0.3519833817 1.6838825836 3.3424665883 5.5164897713 1.6514065045 4.3569724928 9.9272647001 4.5762070386 2.1228415505 1.5927229552 6.0365207162 1.6294064516 3.2978530767 0.3888728201 4.2116990745 8.2526982475 2.6891518937 3.7121684868 7.1821475476 3.6698741973 0.9609512192 8.5977215744 0.1887772897 3.5700263027 6.9947708959 6.0779836224 0.9974628294 1.9583198217 3.4809327976 1.6246124172 3.3010818850 2.8221527777 4.2108939724
0.0183734990 0.0357982685 -0.0076442322 5.2357845481 -0.0048968604 2.6849058034 0.0158997993 3.0602226452 0.0641437424 3.1006260512 4.5106004200 5.0520714470 2.3205036434 1.6035048501 2.5003326454 7.3371957063 1.6520399257 0.2644505919 8.0384846675 4.6451184656 2.7769756367 1.2024586535 4.6423624661 2.3403271000 4.0864841513 1.4895592195 4.8713241466 9.2445303186 1.4799371189 3.1197201196 6.3154653956 4.6908140639 0.3714563284 1.3718648839 4.6344838498 3.8937327732 3.8996859922 1.4507399210 1.2790002364 9.1139785273 1.6241578829 1.5922371531 6.4718937417 4.6796460150 3.9613959489 4.8526687957 4.6909387566 0.8012280601 0.4201540477 1.3680613105 3.2478086668 5.5906538042 1.4380606473 4.4714521351 10.0382566958 4.6302218086 2.2526933413 1.8086098874 5.7950232447 1.4609781420 3.4014931489 0.2467853429 4.2008697780 8.5839650822 2.7158245381 3.8557023399 7.1321561687 3.4807757568 1.0727234795 8.4901825265 0.3377210105 3.7722450291 7.0023736702 5.9382488030 1.1143434842 1.9094265278 3.3661702150 1.6396924895 3.3549295282 2.6521280286 4.1526124367
0.0655267175 0.1168725722 0.0461892352 5.0093421943 0.0514328884 2.3755152306 -0.2038962215 3.3594999228 0.0533255143 2.8010068070 4.7480049866 4.9492987441 2.2258557538 1.4782254190 2.4915518688 7.1323612844 1.6118328140 0.0711682309 7.8032454157 4.8798868519 2.5893906002 1.0209572332 4.9682502930 2.1937474347 3.8564389679 1.6167881707 4.6966199575 8.9949954381 1.7209061478 2.7222213981 6.1552055250 4.8157441668 0.3010753841 1.1474526685 4.9006505973 3.7716805045 3.7748942191 1.5568836513 1.2083365948 8.9209194071 1.6070132458 1.1450166221 6.3630401241 5.0490772460 3.8405099045 4.7137687607 4.9274027303 0.6473461694 0.4373125650 1.6858487392 3.1809956437 5.3455600291 1.6414001755 4.2347369515 9.6012262187 4.9537348181 1.6747386260 1.7339924983 6.2501725897 1.5143702103 3.1578207470 0.4126239605 3.9888053897 8.3715261460 3.0945194552 3.2441880606 6.7891787441 3.4942233180 0.7654203267 8.3015689149 0.5386253345 3.5430388351 6.9553098085 5.9841777345 1.0298815637 1.7367670237 3.7354927014 1.4365702364 3.1565323347 2.9321858809 4.1655290261
0.1518457742 -0.1327095359 -0.0300261716 5.1833687065 0.1328176872 2.4200957084 -0.2150265224 3.2434704559 -0.0087276581 3.0873469234 4.8085080088 5.1746488864 2.3483472087 1.7225050197 2.5847770868 7.3654012490 1.5681651680 0.1331405505 8.2473459848 4.7926917902 2.3835322655 1.1885079074 4.7414447865 2.3355199689 4.1038026518 1.6574119961 4.8033657547 9.2363032063 1.5865776330 2.8265212445 6.4228759947 4.8426682216 0.2437408172 1.2673293043 4.6387337549 3.8961030714 3.8857644066 1.6258697160 1.2981396299 9.2354533054 1.6085921831 1.2601146744 6.4953872542 5.0665240246 3.7545394144 4.9236616751 4.7705980151 0.7145714442 0.3591756214 1.6007389117 3.2680736675 5.5318825558 1.5417449989 4.2928920206 10.0932905885 4.7856528563 1.7941310110 1.9046158190 5.9833399460 1.6451727094 3.3136776587 0.4772327544 4.1006936294 8.5170241365 2.7281985984 3.4620722682 7.2568865428 3.6305489467 0.8017149021 8.7535697261 0.2387648915 3.4304324658 7.1035916552 6.0649110628 1.0204833252 1.8346288247 3.5069507614 1.6319700410 3.3729609469 2.8786232212 4.1404851835
0.0602827622 0.1092549023 0.0562460864 5.0169457566 0.0512062243 2.3751999592 -0.1991637863 3.3594526049 0.0585783810 2.8066495311 4.7417789829 4.9482803024 2.2230350737 1.4764339961 2.4887158418 7.1248816521 1.6116740156 0.0698162004 7.8061706940 4.8793936643 2.5863533163 1.0264336092 4.9533935167 2.1910967598 3.8689194921 1.6164090532 4.6931422157 8.9977187497 1.7244481194 2.7243359174 6.1516045418 4.8129605608 0.3029708051 1.1332032877 4.8883121318 3.7647364662 3.7745719027 1.5470701816 1.2085430100 8.9302269043 1.6191242462 1.1438423690 6.3612867898 5.0402698039 3.8411401842 4.7116707604 4.9293985589 0.6488148012 0.4499503270 1.6940060215 3.1841373566 5.3530305895 1.6496985479 4.2342560940 9.5766302546 4.9601430138 1.6719317492 1.7365917375 6.2415385253 1.5187158622 3.1448373264 0.4034923327 3.9771332133 8.3604349955 3.0900788430 3.2506820795 6.7886652854 3.4876586822 0.7729273457 8.3009654496 0.5383121572 3.5628913980 6.9574590074 5.9748489028 1.0302599162 1.7405081454 3.7383521378 1.4372966241 3.1512386154 2.9388226723 4.1550158490
-0.0587398792 -0.0390743700 0.0159149793 5.3551128370 0.1589428007 2.4339576069 -0.0517717036 3.1679770330 -0.0065662833 3.0926385162 4.6859573272 5.0865890588 2.2944649071 1.6610489700 2.5447339114 7.2683015270 1.7066439460 0.2190938726 8.1420219388 4.5246724006 2.6754628771 1.0788841750 4.7416241096 2.3773976353 4.0315335680 1.5816110041 4.7952649762 9.2366623920 1.4887964088 2.9858552143 6.2883490884 4.8683340847 0.3089408474 1.1410145725 4.7196015615 3.9494014821 3.9379816524 1.6093950236 1.3045620736 9.1413547444 1.6945912981 1.4177168004 6.3967696535 4.8536658984 3.7901590098 4.7854035337 4.8625223857 0.8926875289 0.3759387914 1.6450139772 3.3814700063 5.5072396040 1.5616570598 4.3586776666 9.9403791844 4.4378420875 1.9555165283 1.7758334616 6.0057076199 1.7622486262 3.3122774529 0.3630359505 4.1233700817 8.3286328492 2.5715682018 3.6845707354 7.0124393370 3.5936322482 1.0570943659 8.7057358161 0.1071314786 3.4246907568 7.0447325525 6.0826001554 0.9583002109 2.0207676118 3.5824307254 1.7027519180 3.2035518996 2.7872173797 4.2244608034
-0.0649634973 -0.1368029925 0.0753066194 5.2646451862 0.2167001272 2.4959731168 0.0030956017 3.1934967690 0.1132211207 3.0486503397 4.5976281862 5.0753920194 2.2876134594 1.6746516932 2.6008258662 7.2693739103 1.7225621342 0.2366269307 8.0880271206 4.6400221165 2.6874619104 1.1925756318 4.7029990089 2.3686982905 4.0811521529 1.6284644726 4.8411956889 9.1352193302 1.5211483168 2.9885669649 6.2745635454 4.8146719984 0.3531742535 1.2209425581 4.7303700632 3.8798112957 3.9231350916 1.6256016321 1.3312857810 9.0344103524 1.7395390170 1.4710513899 6.3319802748 4.9119121556 3.8830691002 4.8399466474 4.8018604446 0.8211647913 0.4025675763 1.6690893407 3.3536584604 5.5342023322 1.6033320006 4.3490432885 9.9367004524 4.5004317488 2.0716305021 1.6435734210 6.0094089697 1.6444366713 3.2874698018 0.3573563335 4.1563325888 8.2702729515 2.6674483650 3.6943469337 7.1075195436 3.6871479333 1.0045892666 8.6377222664 0.1222134521 3.5112755552 7.0292423422 6.1042083379 0.9700064547 1.9326367309 3.5632184933 1.6761670475 3.2468510673 2.8356557948 4.1952793877
0.0310577996 0.0188679675 0.0116657096 5.2176765573 -0.0127171599 2.6575832718 0.0267915881 3.0585714608 0.0640693148 3.1026263712 4.5186511790 5.0407744140 2.3189114977 1.6023636609 2.5076713404 7.3414362976 1.6567909781 0.2693936965 8.0443432744 4.6261071073 2.7668667645 1.1913911733 4.6440038905 2.3287136834 4.1009338583 1.4635225730 4.8711548249 9.2621378017 1.4623336882 3.1004046297 6.3099644612 4.6878918634 0.3742431791 1.3713203437 4.6155085523 3.9004058294 3.9227098456 1.4343677122 1.2737489212 9.1311967047 1.5796493000 1.5601130159 6.4662145564 4.6679010051 3.9767806446 4.8756285037 4.6726054450 0.7693748668 0.4257432521 1.3383771004 3.2113640746 5.5853891312 1.4556393209 4.4798640328 10.0491503976 4.6166766217 2.2482043691 1.8122887038 5.8372782932 1.4277277664 3.4240456891 0.2471029206 4.2146883284 8.6108229493 2.7297196418 3.8293601367 7.1491588294 3.4987472152 1.0473420132 8.4991842926 0.2777781112 3.7488298026 7.0241601643 5.9352807713 1.1288306828 1.9170425778 3.3615786655 1.6225092780 3.3600872903 2.6656413994 4.1549008368
0.1305686733 0.0685470414 -0.1377746404 5.2088479764 0.2205358624 2.4125063736 -0.3947711720 3.1053028618 0.0039805557 3.0651090250 4.7846309543 5.0144976984 2.3048334691 1.6180722021 2.6202396781 7.5090617489 1.7000483665 0.1265311719 8.1977258804 4.6969872449 2.4864616081 1.1585664919 4.5644271057 2.2953633660 4.1620715540 1.7152955834 4.7732113540 9.4258249757 1.4848177380 2.8829392681 6.4627406323 4.7513999715 0.2810070462 1.2764030105 4.6140991674 3.8540662557 3.9882644399 1.6889601482 1.3520114410 9.3680150749 1.4141752532 1.3379955192 6.6769920445 4.8438984811 3.6591133013 4.9824253308 4.5841818871 0.6719938602 0.4297520282 1.6814018397 3.3239324097 5.6542218475 1.6444062696 4.3775972177 10.0787325256 4.5291508416 1.9506558865 1.8249705818 5.9241780357 1.7026340573 3.4406773717 0.4383204475 4.1562431579 8.5661559880 2.5843283390 3.4607675929 7.3556519809 3.6030029907 0.8865592852 8.8494704583 0.2218720897 3.5533278118 6.9932650615 6.0415658581 1.0330762027 1.9806249649 3.4411660068 1.6334891240 3.4415300702 2.9209948703 4.0472427409
-0.0406000843 0.0816189251 -0.0528822852 5.2864173082 0.0364404681 2.7486765969 -0.0287691979 3.1405330511 0.0567416993 3.0963191437 4.5648734582 5.0891255872 2.3224516668 1.5961114474 2.4667252477 7.3004337155 1.6407876172 0.2085359674 8.0374974086 4.7802748728 2.7807523714 1.1853079915 4.6611864036 2.3459427760 4.0817298660 1.4928260550 4.8294584082 9.1706293430 1.6736844871 3.1519522109 6.2519201635 4.7398318056 0.3958559717 1.3380669316 4.7478322387 3.8888873324 3.7787266463 1.5952818118 1.2327434505 9.0410339062 1.7509308099 1.5985631243 6.5097438537 4.7510181391 3.9902614871 4.7961975394 4.7797224308 0.8784714775 0.4653219357 1.5945375600 3.4488051568 5.5563357554 1.4747686145 4.4393203917 9.8433478943 4.7229648337 2.1339894832 1.9255650230 5.8894626525 1.6142504335 3.3141277075 0.2964746046 4.1443947665 8.4657705707 2.8557900825 3.9491358738 6.9844853691 3.5586366125 1.0635452803 8.4017613843 0.4005062536 3.8483291423 6.9848261519 6.0311642510 1.0037548125 1.8375699330 3.4106850976 1.6601131415 3.2814484853 2.7737152403 4.1906717668
0.0755898683 0.1315946783 0.0241279193 4.9972133275 0.0510742646 2.3798044725 -0.2118205626 3.3599173020 0.0424857130 2.7924804504 4.7593961548 4.9552597919 2.2332283236 1.4831599968 2.4978881498 7.1489598506 1.6116769010 0.0748202679 7.7999742683 4.8811739705 2.5975583958 1.0183778718 4.9954619204 2.2006458206 3.8362296135 1.6239607345 4.7063167143 8.9884814227 1.7142949938 2.7198758935 6.1710706492 4.8215122467 0.3001845498 1.1738692322 4.9270359289 3.7774756228 3.7756425947 1.5743148023 1.2171303550 8.9013377006 1.5838572829 1.1573423950 6.3671946721 5.0676753995 3.8253554206 4.7004786759 4.9254425246 0.6501311619 0.4143402154 1.6708717495 3.1813025649 5.3327735551 1.6206563409 4.2401218838 9.6495779551 4.9426872662 1.6818293412 1.7266153211 6.2562648905 1.5128073192 3.1829257134 0.4259417415 4.0133465090 8.3994366530 3.0905420764 3.2345662071 6.7965173342 3.5033677437 0.7573329535 8.3053128368 0.5460792085 3.5010676462 6.9512195249 6.0028178671 1.0339783136 1.7266289152 3.7366288204 1.4415311157 3.1678901914 2.9126801826 4.1857826228
0.1897401324 -0.0217043482 0.2396848145 5.3989490528 -0.0740742181 2.7274255665 -0.2476228104 3.2937130759 0.0099323062 3.0113548348 4.6053395508 4.9846109630 2.3182335754 1.5195771536 2.6332779485 7.5109023518 1.6032758422 0.1082698035 8.1433485841 4.4889552080 2.7098229143 1.0824874880 4.6136943891 2.2840853543 4.0760281148 1.5993510702 4.8798947058 9.5132894591 1.3008404510 2.8845230287 6.3644055921 4.6334999025 0.2845812177 1.1684783049 4.6979469301 3.8291146405 3.8799223736 1.4571163638 1.3740682273 9.2323001856 1.3498949987 1.3711764107 6.5295922310 4.6211471699 3.8165465138 4.9202400807 4.6599326036 0.8050463342 0.4246695404 1.6840699374 3.2393068010 5.6003289551 1.6770047936 4.5435526720 10.0907836786 4.4122440883 1.9941417736 1.7198940903 5.9445065983 1.6712732225 3.4303352640 0.3631365623 4.1792327153 8.5783963235 2.4755047572 3.5977777408 7.2172997668 3.5097584795 0.9234307228 8.9552464125 0.0274549154 3.5650969476 7.1122412342 5.9192690750 0.9168532728 1.8568226662 3.4444966068 1.5518841316 3.2801224617 2.8514213740 4.2901765219