-31250.1193366621
-31250.0720560905
-31249.5907943055
-31250.0583011512
-31250.0031615278
-31250.0676917949
-31250.0340448
-31249.9328552392
-31249.9223780455
-31249.9977068727
-31249.868659808
-31249.8879870917
-31249.8783386202
-31249.6328745122
-31249.6519083212
-31250.013414772
-31250.0489475149
-31250.1461921073
-31249.9664041372
-31249.9333040908
-31249.9596694592
-31250.0833203731
-31250.1148412077
-31250.0414027544
-31249.8195314484
-31250.1142500407
-31249.9910554615
-31249.9164982127
-31249.8842579095
-31250.0222633653
-31250.0998435251
-31249.8492389172
-31249.9798088662
-31250.0339643904
-31249.7920646997
-31250.0796302393
-31249.7985522985
-31249.9181450448
-31249.756860262
-31249.8804608349
-31250.0531277255
-31250.1749045924
-31249.9660363756
-31249.6219159493
-31250.0889653718
-31249.671077915
-31250.0091400018
-31249.7811338925
-31250.0567164971
-31250.0956543347
-31250.0407726751
-31249.6551413041
-31249.9234406495
-31249.8599955718
-31249.8924334295
-31250.2090330926
-31250.0106061505
-31249.9471661069
-31249.9321164505
-31249.8289686236
-31250.1344442786
-31249.9986693388
-31250.115555098
-31249.8679793877
-31249.9831725997
-31249.840780399
-31249.6992688942
-31250.0359455142
-31250.0138184527
-31249.9800095501
-31249.847807055
-31249.8927803745
-31249.8799551116
-31250.095116502
-31249.989257062
-31249.847326094
-31249.888165054
-31249.6436834126
-31249.9638151114
-31250.1055546474
-31249.8290827753
-31249.5574518058
-31249.9066517785
-31249.766622477
-31249.9436269961
-31249.988129695
-31249.7787871839
-31249.8496781088
-31249.9207129818
-31249.936576122
-31249.6866596896
-31250.0408751259
-31249.8493869471
-31250.0760113992
-31250.0466179495
-31249.8292542069
-31250.0231436531
-31249.6672461459
-31250.0690765816
-31249.5812395772
-31249.9646639701
-31250.0433536736
-31250.0123821005
-31249.8160232225
-31249.6527211248
-31249.8798083063
-31249.8428873753
-31250.0009814889
-31249.9303390039
-31250.0356830605
-31249.9185375688
-31250.0227169788
-31249.8492548359
-31249.8414742889
-31249.9155864957
-31249.8620671734
-31249.930083353
-31249.9798842417
-31250.009362999
-31250.006902683
-31250.1989471983
-31249.8822005939
-31250.0623293863
-31250.0265782722
-31249.8879268185
-31249.9825314998
-31249.8601868677
-31250.2902916854
-31250.0102856005
-31249.7862709909
-31249.8722873557
-31250.0486434278
-31249.9711236772
-31249.8815458883
-31249.9594551697
-31249.9516646905
-31249.9804506464
-31250.0845137278
-31249.6477240289
-31249.9806476567
-31249.8794421773
-31249.9224349172
-31249.7614442894
-31249.917860686
-31250.0068305729
-31249.8813126869
-31249.9509245413
-31249.9947091321
-31249.9749589837
-31249.9579789529
-31249.730144003
-31250.3119303028
-31249.7366861605
-31249.7563651512
-31250.0979568248
-31249.9974105408
-31249.794788966
-31249.904053909
-31249.9362026459
-31250.0178295446
-31250.0185634353
-31250.0284078286
-31249.9370666069
-31249.9633053064
-31249.8531068774
-31250.1293767052
-31249.7745975853
-31249.8295999274
-31249.8851663611
-31249.8970442601
-31250.0791471014
-31249.8689226699
-31249.5946059382
-31249.8532468799
-31249.954841754
-31249.5675559317
-31249.8685983103
-31250.0903760093
-31249.9285720336
-31250.0871794896
-31250.0274942069
-31249.7972200298
-31249.6750768979
-31249.6944201002
-31249.9225194085
-31249.8775380617
-31250.0799652112
-31250.1887689215
-31250.0783910335
-31249.83466097
-31250.0576814122
-31250.2041716453
-31249.9930308708
-31249.7976804462
-31249.9399688356
-31249.5565621301
-31249.5956479976
-31249.918155249
-31249.9495379859
-31249.9680511054
-31249.9870068178
-31250.0069232276
-31249.9430325637
-31249.9877431574
-31250.0086589048
-31250.0449338378
-31250.137439162
-31249.9880944562
-31250.1505913695
-31249.7523712023
-31249.7580431403
-31249.8856749416
-31250.1462604078
-31250.2978425685
-31249.9911649872
-31250.0161620319
-31249.919521668
-31250.0187382684
-31249.9706723766
-31249.9697176657
-31249.8670257653
-31249.9971118961
-31249.8672986953
-31249.5520342942
-31250.262650784
-31250.0061520574
-31249.6117114135
-31249.6154577388
-31249.8497012384
-31249.860252175
-31249.9401191784
-31250.0202972077
-31250.0418563679
-31249.9804118702
-31250.2816610552
-31249.860458029
-31249.7806153798
-31249.8790881574
-31250.1959732677
-31249.909651832
-31249.6492771178
-31249.7689746279
-31250.0135580399
-31250.2546385322
-31250.0615248822
-31249.9734921549
-31250.1162872199
-31250.0393761876
-31249.9856050241
-31249.8791008107
-31250.2736651302
-31250.1663149153
-31249.8620915275
-31249.5332165434
-31249.8450470057
-31249.7498274835
-31249.7859749312
-31250.0131773528
-31250.0130157173
-31249.9609282572
-31249.9116012545
-31249.5719406358
-31249.8992011693
-31250.0293093413
-31249.9436214178
-31249.8591981426
-31250.0586383001
-31249.9657181386
-31249.9491148491
-31249.8820565097
-31250.0533334435
-31249.9864525222
-31249.8438243989
-31249.9176055794
-31249.8288736559
-31249.8553909998
-31250.0133006203
-31250.0055851085
-31249.7490371292
-31249.8857730386
-31250.0562536317
-31249.8420825991
-31249.9481919755
-31249.8610413047
-31250.1105992273
-31250.0322548361
-31249.8996373676
-31250.1363875786
-31249.944203469
-31249.8390896205
-31250.1082578249
-31250.076676173
-31249.898827149
-31249.7660684536
-31249.8082330155
-31250.0729120242
-31249.9823875517
-31249.9327322439
-31250.0237251601
-31249.9182313048
-31250.0990931716
-31249.8842887944
-31250.1019328141
-31250.0310511411
-31250.0477910317
-31249.9706078857
-31250.153043386
-31250.0156074642
-31249.72399573
-31249.8196585255
-31249.8033598673
-31249.8211001838
-31249.8734732272
-31249.801896984
-31250.2191581712
-31249.8319556156
-31249.5752977025
-31249.9536173784
-31249.9092399879
-31249.8920092043
-31249.8129344599
-31249.9699470576
-31249.9192333635
-31249.7188061136
-31249.9850012038
-31249.9355267155
-31250.0601950625
-31249.7214956854
-31250.1060111182
-31249.7107640653
-31249.9094776792
-31249.9615830988
-31249.8860673295
-31249.7024013311
-31250.0598264845
-31249.9791650452
-31249.9198246666
-31249.8991161338
-31249.9125355569
-31250.013151502
-31250.0671761395
-31250.003848887
-31250.0188951419
-31249.9136483659
-31250.0796948663
-31249.9031102187
-31249.8998002276
-31250.0564212537
-31249.855197527
-31249.9166178066
-31249.9553085651
-31249.8996508372
-31249.8902193764
-31249.8655838348
-31250.2561310759
-31249.9765251341
-31249.627505981
-31249.9290010208
-31250.0003969887
-31249.630430523
-31250.0739573489
-31249.8835551758
-31249.9473738657
-31249.5653199734
-31250.1653887764
-31249.5621151543
-31249.8348311772
-31250.051743211
-31250.2138946759
-31249.9971566588
-31250.0969147654
-31249.9924357582
-31249.8917370906
-31250.1720718888
-31249.9712137468
-31250.0553391936
-31250.0816219755
-31250.2988653078
-31250.029610163
-31249.759406566
-31250.033283698
-31249.9849390258
-31249.893602566
-31249.8860028386
-31249.8518238613
-31250.2936237177
-31249.7315599466
-31249.8594034524
-31250.0059713739
-31249.86439497
-31249.7795560412
-31250.0536829735
-31249.9724721366
-31249.935863048
-31249.8729504968
-31250.0333526788
-31249.772213053
-31249.9027053135
-31249.9757738282
-31250.0479638239
-31249.8232720593
-31250.0215085219
-31249.8570586486
-31249.8742937861
-31249.947312368
-31250.114633721
-31250.1888485147
-31250.1171149898
-31250.0133354509
-31249.9876081891
-31249.8615271637
-31249.6394294591
-31250.1502219751
-31250.0266133749
-31250.0309051521
-31250.1050455227
-31250.1554500956
-31249.879498913
-31250.074074766
-31250.0999888338
-31249.8176783541
-31249.760722916
-31249.9573789422
-31250.3316475254
-31249.7143103871
-31249.8366751556
-31249.957129686
-31249.853124973
-31249.672461341
-31250.0393510171
-31249.947121072
-31250.1009688513
-31249.9322955014
-31250.0783391958
-31249.8407651606
-31250.1916847558
-31249.8966609879
-31249.7613248315
-31249.8412707479
-31250.0137195393
-31249.7894778509
-31250.1007911611
-31250.0504407388
-31250.0643339119
-31249.7672879311
-31249.8390595519
-31249.9917750661
-31249.5775382867
-31249.997573673
-31250.1536549615
-31249.973937605
-31249.8790125098
-31249.9763259469
-31250.0759617384
-31249.7816253298
-31250.2230209612
-31250.0963871369
-31250.0061074307
-31249.9220528696
-31250.1271750332
-31250.2468232907
-31250.0012863923
-31249.8375305451
-31249.9811890269
-31249.773036469
-31249.8284588186
-31250.1122346306
-31249.9740366544
-31249.9629990424
-31249.7880738802
-31249.9908120557
-31250.0867747205
-31250.2149066668
-31249.852383055
-31249.8384528744
-31249.7788311303
-31250.0794204396
-31249.6312065913
-31249.9772349427
-31249.9169376763
-31249.9777901907
-31249.8223591179
-31249.8719638126
-31250.0326575643
-31250.1480901003
-31249.5946980487
-31249.6408145178
-31249.8043262791
-31249.9519934039
-31249.9314772555
-31249.9215825211
-31249.8984128559
-31249.9523127293
-31249.6254456721
-31249.9872949862
-31249.9557595935
-31250.0584676848
-31250.1007783717
-31249.9548089643
-31249.9314022881
-31249.9021372761
-31250.1017692738
-31249.7987295806
-31249.7747166351
-31249.8460071589
-31250.0778912967
-31249.8807639696
-31249.9673830663
-31249.9698288242
-31250.0390229841
-31250.03277158
-31249.775025212
-31249.8241235031
-31250.0276816932
-31250.0103253291
-31249.9501997664
-31250.0098881785
-31249.8846502974
-31249.8379166744
-31249.7748550049
-31249.8298974837
-31250.0677406394
-31249.8292188321
-31250.041614867
-31249.9592276826
-31249.8980008758
-31249.9337011047
-31250.0038182742
-31250.0588286436
-31250.1011220513
-31250.0788540349
-31250.0940023325
-31249.8738042536
-31250.1425139464
-31250.1568403245
-31249.8691579121
-31250.0434612945
-31250.0846210766
-31249.8009504365
-31250.0849024422
-31249.9335662723
-31250.254434583
-31250.122112766
-31250.0845496468
-31249.8633746797
-31249.8927663606
-31249.9862454436
-31250.0227699049
-31249.8873478966
-31250.0390673386
-31249.5574003763
-31249.807899268
-31249.9675845664
-31250.0979062116
-31249.9294773558
-31249.9869508984
-31249.8666588199
-31249.9803071064
-31249.9938136059
-31250.0640672405
-31249.8558692396
-31250.0170083055
-31249.9243622986
-31249.8366388285
-31250.15997902
-31249.9843070417
-31249.9741182885
-31249.6424074714
-31250.1782808431
-31250.0136965457
-31250.0128568029
-31249.8892569102
-31249.9087862383
-31250.0765431094
-31250.1671851349
-31250.0074909928
-31249.7935297599
-31249.9701017542
-31249.6513383791
-31249.9020368662
-31250.3674538786
-31249.7837259115
-31249.9326545554
-31249.9778639335
-31249.9661095741
-31250.1811274246
-31249.5484851152
-31249.9662425017
-31249.9107853216
-31249.9215022475
-31249.928498971
-31250.0315521024
-31249.650471833
-31249.8392307115
-31249.8886873763
-31250.1781905014
-31250.0161327797
-31250.0987769755
-31249.7749511971
-31249.9481416345
-31249.9808663
-31250.1212524786
-31250.2037626584
-31249.7432069572
-31250.0600085286
-31249.9909965488
-31250.1891889289
-31249.8733389391
-31249.8448743496
-31250.0240171381
-31249.96456805
-31249.9733592273
-31250.2040508268
-31250.0341940543
-31250.1190020983
-31250.0132606196
-31249.9619931742
-31249.9202981444
-31249.8181515598
-31250.0140530147
-31249.9256732063
-31249.6359119814
-31250.0080986227
-31249.9103620488
-31249.8337570083
-31249.9599804852
-31249.6465884984
-31249.5984193395
-31250.0575859003
-31249.7646808097
-31249.8528448319
-31249.9339839669
-31249.880446549
-31249.9385675861
-31250.1919223111
-31249.7009213047
-31249.9044578618
-31249.9382230901
-31249.5308018064
-31249.9820450966
-31249.9629355039
-31249.9266781222
-31249.9062894591
-31249.8735505075
-31249.6476384491
-31250.0167217698
-31249.5595953815
-31249.7562590268
-31249.9158108535
-31249.9318382143
-31250.0526799624
-31249.9792178353
-31249.7608065909
-31249.8791938735
-31250.1230989061
-31249.8927063596
-31249.696834429
-31249.8546893546
-31250.1012536183
-31250.0187510577
-31250.053368138
-31249.813774747
-31250.1299032452
-31250.1419569297
-31249.5703618321
-31249.8683207543
-31249.6117261076
-31250.0001641954
-31249.6287654593
-31250.0131482366
-31250.1580985782
-31250.0352161134
-31249.7648843508
-31249.5666344186
-31249.9067579028
-31250.0190760975
-31249.796117153
-31249.9687126138
-31249.8222155779
-31249.9932266567
-31249.8229842991
-31249.8825593758
-31249.969945697
-31250.2169969082
-31249.9473451577
-31249.9696379364
-31249.9057166597
-31250.0548346948
-31249.8609935488
-31250.0086673403
-31249.8470048638
-31250.1927804216
-31249.8359405847
-31250.1051004897
-31249.8764585866
-31249.891989476
-31249.9636415029
-31249.9646401602
-31250.1835195761
-31250.245376054
-31250.0183064239
-31249.9682264827
-31249.9736699812
-31249.9604799499
-31249.8533233439
-31250.0603392828
-31249.9216500053
-31249.953558874
-31249.8972170523
-31250.0786413781
-31250.1803046888
-31249.8627753493
-31249.8421156609
-31249.9932190375
-31249.9273419436
-31249.9612678551
-31249.9212080926
-31250.0276498559
-31250.074883624
-31250.0801392279
-31249.906205512
-31250.1162042252
-31249.8353974458
-31249.8964681954
-31249.8547073141
-31250.1301455624
-31249.8331144118
-31249.8360726959
-31250.0275490378
-31249.8967875208
-31249.9083748024
-31249.9960747347
-31250.0635564831
-31250.0463148149
-31249.8601864595
-31250.1880343505
-31250.2402243975
-31249.900392347
-31250.0900606295
-31249.8865824408
-31250.2358828234
-31249.7686317646
-31250.2004879061
-31249.8399976639
-31249.7747428941
-31249.7337552239
-31250.1442448617
-31250.1210975098
-31250.1238134767
-31250.0140648516
-31249.9323763191
-31250.0034073825
-31249.6145422123
-31249.8638067963
-31250.3691283303
-31249.8321554832
-31250.0806667204
-31250.0425777414
-31249.9692055477
-31249.9082292216
-31250.0451410524
-31250.0193124283
-31249.7919453779
-31249.8547588797
-31249.8215943423
-31250.1055219938
-31249.701041715
-31250.3436466511
-31249.756958359
-31250.134548226
-31250.1201993986
-31249.5419288077
-31250.0322183728
-31249.6942775126
-31249.6039829762
-31249.9876967621
-31250.0740706843
-31250.0862503574
-31250.076094802
-31249.8910120436
-31249.9048435829
-31250.1684697837
-31249.9780725087
-31250.1276657903
-31250.0354412875
-31250.0601385989
-31250.0072734379
-31249.8323622896
-31249.7835626433
-31250.0032809857
-31249.8449125815
-31250.0726761016
-31250.0882827746
-31250.0530956161
-31250.2469762186
-31249.9414359366
-31250.1488868492
-31249.7934945212
-31249.6500922344
-31250.1159638128
-31249.9071331476
-31249.8368157024
-31250.1224186218
-31250.1048071511
-31250.0338152721
-31249.8825230486
-31250.0559796132
-31250.1315431384
-31250.0527655422
-31249.8160947884
-31249.6165497311
-31250.1299550829
-31249.908646644
-31250.019635019
-31249.8425642403
-31249.9048279364
-31250.036426203
-31249.8394319395
-31249.7925445723
-31250.0759131661
-31249.9837221333
-31249.6705716475
-31249.5532654726
-31250.1771644967
-31250.1762473375
-31250.1417880831
-31250.1502320433
-31249.9808809942
-31250.3735157555
-31250.118201948
-31249.7422404093
-31250.0155746745
-31249.9520316359
-31250.2041872918
-31249.9745414253
-31250.2668232394
-31249.7935688082
-31249.608869458
-31249.8912589868
-31250.0881576023
-31249.7153495893
-31249.8292702616
-31249.812958678
-31250.0339220767
-31249.9286460485
-31249.7569337327
-31250.1093050545
-31250.033080293
-31250.0029113193
-31250.1292769755
-31250.2125007735
-31250.2583085297
-31249.6124925158
-31249.7635195645
-31249.7472445802
-31250.2130063608
-31249.9417857387
-31250.214550606
-31250.1170647848
-31250.0458878685
-31249.590455524
-31250.0700703408
-31249.9174194536
-31249.966272026
-31249.8741771854
-31249.8322739887
-31250.0271356971
-31249.9364704058
-31249.8872899364
-31250.0787068214
-31249.8878635521
-31249.7752280728
-31249.8499114463
-31250.1713320117
-31249.9430887552
-31249.9695640575
-31249.9473069257
-31249.9929471959
-31249.6717497637
-31249.7693453828
-31249.9694085446
-31250.0503601932
-31250.0730314821
-31249.6608027656
-31249.6263648722
-31250.0127452362
-31249.8367910761
-31250.3746300611
-31250.0949409887
-31249.9798133561
-31250.2576701509
-31249.863262841
-31250.0795642517
-31249.9712669451
-31249.9353506579
-31249.9211808813
-31249.7991776158
-31250.1454391687
-31250.0517521908
-31249.9562533438
-31249.9114202989
-31250.0663818396
-31250.0341958231
-31249.8922056703
-31250.0384209325
-31249.8568797339
-31249.6706210361
-31249.8496057265
-31250.1979382007
-31250.1498144848
-31249.874518416
-31249.9603372262
-31249.8536448462
-31249.8803160704
-31250.0963751639
-31250.0601600959
-31249.798053242
-31249.9794055937
-31250.0962161135
-31250.0552907573
-31249.7690618403
-31250.0544106056
-31249.7514698257
-31249.9450841649
-31250.0018415043
-31249.768127674
-31249.8177084226
-31250.0067898919
-31250.0378982021
-31249.7757063126
-31249.8289430449
-31249.9487073588
-31250.0340745964
-31249.8669601858
-31250.1578720436
-31249.7949976773
-31250.0974008965
-31250.1779104964
-31249.8558206673
-31249.6426178153
-31249.9091297819
-31250.0003944036
-31249.8158151916
-31250.0918363074
-31250.10113797
-31249.9906664749
-31249.8786320948
-31249.9143034796
-31250.0612699116
-31250.3279711333
-31249.8911064671
-31249.8889891504
-31250.0014726541
-31249.9771444649
-31250.0209844309
-31250.1235612273
-31250.2046372318
-31250.1655668748
-31249.6106086727
-31249.8278452022
-31249.9282688989
-31249.9435683556
-31249.9045162302
-31250.043381021
-31249.8516140617
-31249.7706108475
-31249.7015868948
-31249.9366007483
-31249.9298349132
-31249.899092732
-31249.9920726225
-31249.8582947251
-31250.0349031826
-31250.3552552936
-31250.0534960314
-31249.945496009
-31250.0813542156
-31250.1230646198
-31249.995501119
-31249.9178787815
-31250.0560396142
-31250.3572219954
-31249.553247241
-31250.0790562154
-31249.9723204333
-31250.016557141
-31249.9350307883
-31249.9723680532
-31249.7588744476
-31249.7605620968
-31250.1370260934
-31249.9950730842
-31249.7610121729
-31249.9905227989
-31250.0710337593
-31249.6692988356
-31249.9913572355
-31250.0803671232
-31249.7475517966
-31250.1062622791