0.103431055833325 0.0300893476311904 0.214351988413817 0.213456473645687 0.0678110110510476 0.138463860957144 0.0245902750326387 0.40369795462874 0.587719940279879 -0.657837229674343 -0.134953535625742 0.177644624666733 -0.00659333353830458 -0.0349986094694523 -0.658894209637531 0.0145681200910106 0.359846013110544 0.0420115468267599 -0.155876391005036 0.449147578825419 -0.00172623777008957 3.62735957280872 -0.628723615188445 0.97875547549558 0.539131257856357 -2.11396095481494 0.663997332553935 -0.742523410490369 0.395816241962356 -1.1786432163324 2.30870289244495 -0.697673624351125 0.127262084494937 0.786379465771496 0.176771735594726 0.26373951217658 -0.453294251860272 0.0944393985060128 0.294546968549483 -0.574228854746346 0.0379049829804878 -1.40362439683041 0.482658291664619 0.0473581530866664 -0.856884734432429 -1.43799488612228 0.214499569658981 0.68784147383489 1.50308284322292 -0.147889263163536 0.581130463394322 0.319408494825412 0.145356984969075 -0.35133360916474 -3.72845015464426 -0.164979377041679 -1.17393707153888 0.0510916500570969 -0.19907270155604 -0.084569967013213 -0.198365391442022 0.759035283566467 -0.0221343585625917 0.00352652327294438 -0.379159872963293 1.00181980159085 -0.527013397811362 0.961811914421867 -0.590985496716862 -0.626951611805744 -0.746586008495311 0.49202995784272 -0.0294918235654042 -0.633511006799864 0.193495210351608 -0.253561548463925 0.951714683306741 0.393515105822603 -0.58520386002696 0.78620771616911 -0.515592049252691
0.32717142258715 -0.305426328841942 0.673921528515759 0.0315407346154257 0.180150677622507 0.0110187140117603 0.0502953798196874 0.682386109967485 0.835397522200983 -0.688137407655768 -0.265102710367974 0.0143148665605462 0.266499332883185 0.12413793865872 -0.411705651284897 -0.330650894696567 0.393004484998743 -0.0509931768569265 -0.30673142013193 0.585641975779154 -0.00641952705445284 -0.235172771050375 0.189885383379303 -0.416457047470666 -0.470254782206076 1.29734430305691 -0.019606194131062 -0.691209103014609 -1.64123200131581 0.172130896787738 0.394058893860098 -0.446674435973096 -0.637159400299651 0.83046177801385 0.534386032314984 -0.477059974535348 -0.176326420757402 -0.357156126373773 0.74124145911687 -0.638876124992962 0.0514863141883283 0.177323751158084 0.199000967814923 0.363810395025499 -0.0824385235943803 0.878782808736648 0.82774952269114 0.387695416825586 0.0734754054974049 -0.261710655720849 -0.299009115779139 1.09604811263645 -0.574633803284906 -0.359083681417318 1.47895253830805 -0.0514045531500667 0.120105422545213 -1.03623811337679 -1.37905417639206 0.883766375417858 -0.3033869308687 -1.12005654732448 -0.912854278885435 0.595185648669824 -0.756184960075371 -0.1443794520525 0.111531312155439 -0.53311642223028 0.191560456222933 -0.0771978467299573 1.4618991911861 -0.703916259599527 -0.474461876133984 -0.0129740369550923 -0.0891730106232686 -0.803133793750363 1.21674823103543 0.0400060873977014 -0.101226850232643 -0.203903801898605 0.361772282603173
-0.00664629823604638 -0.525366607087886 1.47899598992901 0.503359260955801 -0.744043188783338 0.653845594079967 0.388393470973008 0.487973787592357 0.25298253633133 0.119725927914791 -0.734753540753683 -0.106541574829831 0.611158875912091 -0.0376175337956561 -0.506327855131174 0.00569833299054143 0.204011531065371 0.0221703539882415 0.159940531671078 -0.328225574338322 0.232542019655743 1.25429788774272 -1.12446675829712 1.11224168330573 -0.585604180582222 -0.941453158784542 1.39427638478917 -1.60684634252314 0.477375191619966 0.195525609468438 0.453179580718559 -2.34244217623703 2.01581788411975 0.148589117082241 -0.458422314464448 0.0706039989712863 -0.983662166232009 -0.0333142806592264 0.0665858810280394 0.510040783286947 -0.0106577313145298 0.00756829535304685 -1.09129465956921 -0.0182499379146154 0.156299337256421 0.382844518998913 0.31308589831003 -0.745758627925733 -0.339912260606069 0.304153119214674 -0.99494904616486 0.75980867099757 0.118422379285903 -0.831095811725652 -2.14762413399279 -0.459139394765428 -0.818459103330935 1.30709160721268 1.84334245968651 -1.18938373712593 -0.0802137491790414 1.28989453549832 -0.463909045774205 0.756369308076735 0.50224674519304 -0.349356174745652 -0.859519342479808 0.958936908353184 -0.853965248302049 0.65704867274243 -0.331287242400018 -0.163317931037759 0.967015053199541 0.726026192694714 -0.181759416038868 -0.562886181903738 0.680034837342006 0.121857114223441 -0.720352285171577 0.183936110849946 -0.576488596146602
0.188210567645856 -0.0993689720487485 0.408358076699468 0.107596497911553 0.152567897167456 0.0905734897912278 0.0363124425056688 0.504794449998494 0.722393740026286 -0.683353872697097 -0.175701643012195 0.0980967908622124 0.198670324119312 0.0610384717150438 -0.680268550498546 -0.151564139012194 0.425545635337049 -0.00505735730379235 -0.329448904590048 0.571798135074254 0.00832522773242482 3.65046915029624 -0.29314777493244 0.683363385773876 -0.436471275462487 -0.956881826658765 0.51704292201656 -1.72143778007917 -0.84534434385893 -0.403150824158863 2.48042909780431 -0.696393472748909 0.0268803554345136 0.864290536149685 0.356772775090603 -0.181037964864773 -0.346760133225754 -0.136123644069543 0.831028191747468 -0.653543489614693 0.0768270938457647 -1.21429539988758 0.415813243571902 0.205025573627962 -0.867535780882195 -1.13304909621276 0.430388562748042 0.807983920246486 1.68471396128036 -0.128379485351179 0.619022333755466 1.53587056222693 -0.111307626296044 -0.614889287560323 -2.67742923417347 -0.111142561558421 -1.11921631124574 -0.675319693692069 -1.08859654530658 0.554894683189123 -0.269500065831459 -0.0632087387715416 -0.464547964579488 0.296405875174111 -0.713512640077755 0.586621051356828 -0.454939242812466 0.63232778573672 -0.381992198741563 -0.253479787425664 0.524415299409999 -0.16097951392144 -0.326951593380504 -0.554406688061385 0.0324789296739685 -0.749690613957604 1.47165729396957 0.448167217696829 -0.595843336518482 0.560356731921292 -0.342259419468617
-0.153253610026084 0.287480038053701 -0.473745567163554 0.148319665610234 -0.293748384320425 -0.0416202251279102 -0.137552405357656 -0.29292203219158 -0.454509354586135 0.707813021536298 0.444006403601899 0.115616278746321 -0.117119859097748 -0.0632524475026877 -0.253456647509174 -0.255971442211177 0.0989133728040957 -0.367965038476032 0.326120356158177 -0.342427055308071 -0.0786271222384363 -1.55133445419625 -0.552847571910384 -0.000332443466893925 1.65740937404355 1.65418752633771 0.540069967135266 2.01924079198886 0.192287306710875 1.22682052246279 0.9933372224263 -1.49372428966416 -0.440625661802836 -0.595889359241277 -0.108915473151433 -0.750354472450659 0.414086234471262 -0.0706993868492582 0.137204535279769 0.17770761666162 0.280396909616377 -1.01410324059383 -1.18224173045665 0.409196255896741 1.36657584787021 0.584741061697177 0.0716429812216486 -0.398470904604027 -0.64122251252496 0.00171698180349392 -0.277446570264012 -0.639358463696669 -0.448913094338329 0.962389641003546 2.03586245111319 -0.131321340067498 -0.202740121209385 0.652409376596542 -0.555494264136375 0.260131999195924 -0.934607600156506 -2.26114779295794 -1.25893384145623 -0.282415224554596 1.01178127852924 0.0525054989545832 -1.2607644659607 0.69142199024631 0.00511392154409913 -0.556522704869225 -1.30763616658073 0.559650964468373 -0.0376748693665125 0.643508222053721 0.160378647423272 -0.856630709571414 1.73919380933184 0.607227404100587 -0.514487761015793 0.397315965661036 0.0192462398745643
-0.205824414967203 0.525329583221503 -0.0532691161987247 -0.16083064712536 -0.142138222585436 0.271907902697245 -0.0302796091667677 -0.641162862962455 -0.399194926879954 0.372253122111652 0.880463280894126 0.0539324604714133 0.0746565696790837 -0.351771467806751 -0.143843891540868 -0.314117167254896 0.229665213815777 0.131934290744276 -1.12370159839188 -0.161195743585522 0.314820363605982 -2.08815197751388 1.42812571173966 -1.09227476358762 -0.462973678927678 -0.473136473139523 0.225082739020379 1.60047000997947 0.383680127094354 1.70755717261807 1.14107813301412 1.31104493338976 -1.38403877151401 0.513702803626445 0.000406748309842374 1.19825223867548 -0.582585964141489 -0.225524968535504 -0.716006094634551 0.0177025503345557 -0.678156133233271 -1.70986087985966 1.29626983960126 -0.667976626859517 -0.12730476478535 -2.35459783147895 0.00495194212867517 1.0553995068909 -1.18559341880501 -0.180764913850202 -0.270584042363884 -0.517683383482943 0.30218802608438 0.064899752446531 0.477712263070158 0.610574721575832 0.0835587526626377 0.366500538872453 0.082897722381598 0.391267191490775 0.520875149297344 0.704396541421768 0.439144450037348 0.20871330498578 -0.342485676429844 0.180303658181518 0.472360514606587 -0.957769113901032 0.0789050583464892 0.0693613854558197 1.02633988554347 0.095987458919136 -0.134262423453267 -0.389371003889582 0.219195430045176 1.46983772520298 -1.60896235933098 -0.871890198945084 0.559107947761428 -0.669648357270765 0.256119280566524
0.445002448451665 -0.942539963528982 -0.335278106663844 0.0965890967478536 -0.115822224003074 -0.313394944750251 0.0137168282743936 0.294996140039556 0.0260396051354083 0.00225999851043898 0.422835951116171 -0.228436484250204 -0.602707407079709 -0.155197877231538 0.870311028199792 0.42988899766206 -0.576415319744386 0.123229054161063 0.459158163808802 0.729231585348825 -0.627676148302037 -1.37038287835304 0.849568149948747 0.62034876519066 -0.731657934147803 0.882704253251007 -1.2646424588541 2.07221603124817 -0.974784665826044 -1.42271431371358 -1.51835775920758 2.74360039647599 -0.167199266363537 -0.253951584611859 0.23641204213346 -1.0131143948292 0.807055238264722 -0.00850520486067366 0.228528786805978 -0.671744833704681 0.37804401476815 1.17594047408647 0.134868689265282 0.274150417715226 -1.37881326415039 0.235776465760558 -0.0214507025854294 0.453709999026527 -0.687760998347545 -0.422897400449959 0.104177189585008 0.970702270336994 0.0810231320357948 -0.024733228294505 1.30809639380868 0.527000542302202 0.552331294662493 -0.928715406087822 -0.458888712336795 0.726847659730078 -0.502696430903479 -0.672315618311413 0.0360139375829589 -0.838328321179424 0.635901103063009 0.779361643320707 1.04921986363738 -1.06078416545792 0.955524284891403 -0.294262347576667 -0.149496973139165 0.0520162182759295 -0.415171496554603 -0.984514743599542 0.439903182188009 0.437922148226355 -0.969900600785737 -0.656202523129478 0.353264506640667 -0.541953299227298 0.287922010458644
0.140543368118968 -0.456874254051324 0.509288478890867 -0.321047572243392 -0.111262889124165 -0.504652268067177 0.167962626497495 0.356815969601383 -0.0589155129322571 0.391659027409991 0.718290518612395 0.0896594630899069 -0.31826949671378 -0.68862411723259 0.809767236477249 -0.473145729106119 -0.111034575281472 0.168846314197197 0.589673977672295 -0.226171600646284 -0.115042665927573 -3.40622990285523 1.06031339671246 -0.727465495500338 -1.03075575294015 -1.0010333015404 -0.358998835056858 0.997930495849394 -1.20541250016777 1.35176681553753 -2.48424615558429 0.0254960742080968 -0.250793757341641 -0.262245702012115 -0.421757116787411 1.38188624506015 0.744148346848272 -0.0773294871437622 -1.30708080858499 0.131094825996087 -0.677505644469743 -0.255648511821062 -0.534767069606506 -0.361439324915912 1.72170928843265 1.52864370919719 -0.266045790519997 -0.973352819215733 -1.37228266549679 0.352958288412461 -0.746154577607881 -0.532343034799177 0.578074451756657 0.382315129131678 1.79006485885174 -0.110269672486414 -0.0550169512242041 0.554123352639485 1.63265711959549 -0.605114215504762 0.96534306567811 1.13902382265025 0.829393485202602 0.0489643204011957 1.21756764118933 -0.123989328972823 0.0628202452847073 -0.112008765765664 -0.296543172011946 0.930627277410191 0.358503126623624 -1.10504568349797 0.61964608305994 0.433812756168068 0.490394479967304 0.446796049089756 -1.69846215699711 -1.02062046951791 0.62529145135274 -0.348281711290006 0.769407879687814
-0.0114717421545809 0.23889701205421 -0.220678184471763 -0.124006298244915 0.11235252208062 -0.313004137271768 0.103005024259741 0.0668530185083973 0.296458839871853 -0.288529818931758 0.0362373663321707 -0.131935576295193 1.38720122676752 -0.414592227311825 -0.801760054041458 0.089079165406396 0.264549152143517 0.241324903514287 -0.0247964773995753 0.138392641436394 0.97298926541667 2.97689446341763 -1.01951720972174 1.12286444763534 1.31687362124319 1.03220739703457 1.95197382608549 0.0867422909511764 0.335017396938067 -1.16726454806415 -2.08431306536833 0.847390683807119 -1.79923109399345 -0.237405001661027 -0.304136407052765 -0.853713537432684 -0.330125618592263 0.0999592970294047 0.348553990974028 -0.113737574637586 0.196432951304996 1.03952758106082 0.134514134322632 0.114570097410829 -0.133617076893403 0.519639991977191 0.420291074522733 0.105640146527488 0.474580661038628 -1.28965542302794 0.204982893337548 -0.417276200514381 -0.0609772794914392 0.00542502486578641 -1.99982871604613 0.0328553389821918 -0.540516567523506 0.116706683033326 0.124683012247131 -0.693706157113971 -0.811878368191608 -2.41512593948032 -1.01867517387172 -1.14791649255703 -0.0558492168872634 -0.172561042124253 1.11572012697441 -2.7217845974304 0.611067344686868 -0.0334070974353661 0.15436252624628 0.090879708019434 -0.115652274171971 1.14895856012959 0.403325401973264 -0.635630623150269 1.64342309429715 1.19091894202989 0.0550184938853034 1.27420490078814 -0.739268909791263
0.279166380279521 -0.12550807882506 0.317681742834956 -0.342151176081484 0.0504527312518136 -0.327958436857964 0.0269173793008962 -0.0350685434392861 0.249741662471935 -0.863768859587946 0.120705003492465 -0.147449347640059 -0.333556239766869 0.238325456116928 0.223917001449693 -0.30449456153798 0.619097409928964 0.507171433642294 -0.243901661770444 -0.352527885965763 0.176615669713516 0.543325239164921 -1.37095520562087 0.493675977235647 1.43368083435815 -1.00351415769822 1.37486893682973 0.993427210990425 0.788562845447337 -1.36885255854255 0.0361291229450382 -1.00970897045255 -0.704570862125986 0.108105833184497 -0.0133507033734988 0.251316719454296 0.0141528871451222 -0.753224593425861 0.720645905000806 -0.153852419642786 0.189888982921868 -1.81806544335451 -0.297724079083442 0.55201170670476 0.369100437045099 1.75302093787483 0.323957545296992 -0.146905816712748 1.54638765427124 -0.592223482249031 -0.0174845208991914 -0.347093605133381 -0.117031670304906 -0.109918202865963 -1.34430522091051 0.659063902358451 0.0168108922191743 0.233086836133971 0.953377929081944 -0.857133359979595 0.126498467250795 0.390641385304836 0.0462055281353242 -0.554852260008893 0.0198337366432052 -0.0217978013327664 -0.16249929221441 0.560397869550606 0.114437171446108 -1.34191641019828 -1.69005979620972 1.41942356047865 -0.33474717413551 -0.336883759758007 0.600242748863433 0.590009249351204 0.452359399234111 0.0629912235565437 -1.0590445579583 1.48138145820886 -1.42471051717605
0.368596758196185 -0.515166017679108 0.0101856770181514 0.0416420794934833 -0.120483117404353 0.0370544624944204 0.630416428634717 0.40374680556355 -0.119554178312405 -0.0150054645126553 -0.33745223037309 0.07600639814095 0.16244247086392 0.569227804572677 -0.355957478699636 -0.546234697998155 -0.93366837665723 0.0136129557603757 0.511610698065644 -0.190188002064944 0.202854535240914 1.48387337010455 -1.21781395274485 -0.104464895880023 -0.608898877401652 -0.536835521030451 -0.137001418235031 -1.31715644244472 1.56443550358185 0.426801875692226 -0.0163460370079259 0.670821293926581 0.288246740620041 -0.085474480637755 0.645864122662498 0.426693632305094 0.736033178135532 -0.416502813083278 -1.39010965716002 -0.866111390467197 0.326994787891283 -0.110699560712746 0.64493672623165 0.32977723429401 -1.26585293359666 -0.248478480141812 0.252833926645433 1.04764892041795 1.0371415985606 -0.293618543677903 0.652772930395604 -0.442849407777442 -0.1530772324404 0.474179826263 -1.57500838853592 0.777589125717639 -0.269660502585784 0.0491563817080555 1.0597490398603 -0.0887801462633197 0.187867839771634 -0.467986813279957 0.346587098072452 0.888086854936563 -2.35859229528534 -0.578065710010428 -0.388795848409736 0.530938698978469 0.30627042157343 -0.285179673244498 0.632239082723511 -0.615892788605402 -0.214207749601034 -0.725863956169106 0.0957532315422293 -0.133150936131239 -0.0339531994645097 0.0133941549944617 0.0010934896092033 0.536984387826531 0.617976409530157
0.38202716572648 -0.534008080345662 0.0735605089680483 0.0691896358534337 -0.13980803299498 0.0535336825772505 0.634608867282182 0.428920977822265 -0.104958033211425 0.0472820484724355 -0.345778229436065 0.0726310556557347 0.195988922018588 0.553244035812898 -0.368720685304494 -0.571323766786226 -0.950203389649817 0.00211036038380923 0.465479217663085 -0.165106646582369 0.243713457116332 1.32926350386202 -0.966688266156678 -0.312200410839046 -0.373666971009138 -0.372834191125713 -0.132995384470395 -1.41007374866612 1.53524167071879 0.593110255270931 -0.0365045038125286 0.949605094253482 0.202227700614242 -0.130182599066049 0.620101168084226 0.492950926518987 0.686114978954618 -0.425346632055243 -1.40057918382044 -0.837925686632513 0.322150574929374 -0.258501406413989 0.648035932380095 0.326125755472025 -1.28698867620765 -0.411669655859247 0.232434033378794 1.06628863737032 1.00932021985553 -0.28234914723751 0.63077921110323 -0.645737367342174 -0.134780757582623 0.491255027750517 -1.17243657650965 0.774869414199616 -0.215456276650715 -0.097188163474739 0.785502205826374 -0.0315559041162352 0.135200104291443 -0.501893732911489 0.301283255349654 0.928951433236011 -2.34357834613664 -0.602139707795176 -0.232270254192088 0.356930897853279 0.403945551735173 -0.232381840011602 0.66785604218359 -0.63014697716271 -0.185798617017138 -0.837751365928294 0.0649180072695391 -0.219924594524767 0.00787528491180273 -0.0061112519447809 0.0256223153080542 0.439269919806756 0.658046517363479
-0.0527708366636586 -0.266816863959452 -0.0588409509791255 0.197238220398818 0.0236055430309344 0.253932558458301 0.168472218880623 0.198366162772572 -0.0899368849775933 -0.0275323868591408 -0.225486659118206 -0.108035384994296 0.299791759176838 -0.551115934826447 0.277944078468528 0.0801255603861995 -0.287208529700229 -0.00903279495662597 -0.583240823778132 0.065419629236987 0.466866327101517 -0.549089135252182 -0.874988633762979 -0.0721191492809583 0.404080277471177 -0.0981207021092512 0.441018011942419 0.257368321836571 -0.183944595485992 -0.180432213273124 -0.993597160821528 0.0711745264678351 0.164165366201628 0.472824855597469 0.190880399788336 1.03804148420185 0.134598466462726 -0.0268289333978711 1.96263130028984 0.181033079771292 -0.650025193867611 -1.87525677539814 -0.346014513694437 -0.243448890737806 0.285127479877306 1.32565444822027 -0.646786891110048 -0.91936996514841 0.263038115596776 0.968073575823828 -0.365975776988516 0.765792396291478 -0.126222330914025 0.171494291974104 -0.201669771516671 0.318830254023366 -0.114565469427531 0.527873688484392 1.27511764193854 -0.306927080981355 -0.950373853701287 -1.45902572777852 -1.41228669601303 0.471882803886178 1.53703989934018 1.03361198996546 -0.264550951914799 0.939674213426894 0.24938427931727 -0.774263405497784 -1.9610865823091 0.619327266432756 0.371637600333041 0.29155754844927 0.350542995351361 -0.0501966495093338 -0.144177620558678 -0.597452589155209 -1.12811155225434 1.86554469533747 -1.20385569800842
-0.637167113605148 0.335073961178374 0.838183568146275 0.200404018084715 0.0248926366080968 -0.0123166062166176 -0.636363901392791 -0.640004581587082 0.0163429516857274 0.586348771672806 0.001405107151257 0.0396577030994483 0.376442475436919 0.0952829770171334 0.4337081123235 -0.0624829167243323 0.0812187928852196 0.322096067570533 -0.529428433762279 0.0834335400034132 -0.507005854684305 -2.27699375065952 1.67546133711709 -0.252618725422085 -0.976038077969205 1.51648445441269 0.00464469545973609 2.96892019108529 -2.33879609672889 0.189258548752631 1.13938403401693 -0.143893256696045 0.699071018196885 0.872243468336818 -0.663792929958281 -1.39754528365853 -0.241306391581095 -0.00236798478738828 -0.194997762262303 -0.257430028280542 -0.343046176629247 -1.72478869709698 -0.0209441955245005 0.212007657763284 -0.489143896036158 0.143777300003416 -0.096837465184837 0.184696899882072 -1.24938914012482 0.616084849912262 -0.43240996300846 1.05593661006363 0.103484020531067 0.616368699554529 2.08551659813595 -0.0915129704006867 0.152803924315645 0.314754029178713 -1.52727871123451 0.781772822618875 -0.625663746898032 -1.7560982896577 -0.74751983268074 -1.30282666349355 2.46063315635804 0.988870704323531 -0.652438172937062 -0.0663704226945072 -0.529546447336373 -0.226226879335675 -0.877868010704777 0.514188741872717 -0.647945943815971 0.500215060525294 -0.256063230546584 0.442486111088563 0.409492961048169 0.424240544047062 0.156431234780409 0.432696383752559 0.338051039989793
0.20503662936584 -0.771026131180954 1.3385834908933 0.373829978865295 -0.57594506521929 0.493794247919925 0.524311941116347 0.629410356487806 0.220913954509769 0.391990185325969 -0.511754936878426 -0.182047636554249 0.581577835113112 -0.044665952358247 -0.380609203066062 -0.467254306367985 -0.496186658174718 0.266517330596009 0.252877892486763 0.035982570140607 0.277856661006236 -0.425486757105093 1.52359277964797 1.03686957598676 -0.734800334807028 0.0424113531616555 0.26880304012477 1.85412617499081 -2.07723945000778 -2.21743186272667 -0.513703832067178 -1.50183714438525 0.136937140689228 -0.306868974079949 -0.305745402579309 -0.621587007833012 -0.971871093229878 -0.172227570216626 1.06567414403244 0.219142722457617 0.225825016119314 0.401591193787495 -0.895359730689099 0.0282985752051145 1.23018583765086 0.488406761140887 0.30758296905873 -0.395336217250298 -0.948760230191445 0.206831258444664 -1.04494180729891 1.28614278370488 0.0329149885446971 -0.898470506795788 1.46078359010114 -0.237399859457363 -0.216024233045431 -0.133613734461021 -0.458591235854818 -0.467859029518901 -0.275351636491195 0.595478497168503 -0.5698186437737 -1.68213360348164 3.66671362878179 1.21008727751894 -0.439926836324864 0.565275506836332 -0.588012017448008 0.156032713996429 -1.11190872561847 0.161213227077981 1.02378112500014 0.571316567701096 -0.0567269910527513 -0.601467878886441 0.181481737040998 -0.33158111933943 -0.421441385482426 -0.348587415297846 -0.138580588980323
-0.351339779809137 0.0620789966265053 -0.687188156859347 -0.191079660180326 0.134588953385947 -0.234900491366353 0.330201980316678 -0.196593902279687 -0.307288320788768 -0.175769777210747 0.412141453045442 0.305824849625922 -0.219525302410238 0.170147291724253 -0.315174404328266 -0.503386000414855 -0.802946617536985 0.496971615564066 1.18451047071332 -0.00150332324124422 -0.510223588627211 -1.39067375690199 0.578898747004037 -0.65717105718964 -0.186201508674233 -1.27095579940288 -1.41560804535977 2.61616964770087 -2.12651461662048 -1.12666556458396 0.114564698096981 -0.989664403459108 -0.299426148496309 0.455078082311401 0.291332062818593 -0.555778627999008 0.171856817332434 -0.100875380612191 1.27825849993667 -0.276778083787659 0.474683505111913 0.0743223264409073 -0.0424517194604199 0.163464226732007 1.03201764971936 0.68197036280123 0.294287801484805 0.194999562033585 -0.311610857188939 -0.261569245120082 0.0151990684806144 0.236216124173852 -0.262287096751612 0.0501699100502797 0.390208925976672 0.709485780388279 0.675447220342943 0.243587730236741 -0.469921053188266 0.889362378555481 0.297978361054639 -0.0207984140506189 0.036980157651472 -1.74288899688497 1.97032326564101 1.37570094538261 -0.851837918646148 0.0897489374336649 -0.586487611171741 -0.588270413182137 0.00110891622019606 -0.1509115933672 -0.348870493609563 1.15936200947292 0.26726243590696 0.454243502656693 -0.224970896090681 0.285658926626006 0.00409782210004283 0.216949058374447 -0.131352450399666
-0.346238970884382 0.46610708073049 -0.440270592639819 -0.042275341874736 -0.310264114049271 0.0892318888552243 -0.0849258075067792 -0.391372863776076 -0.470625792200452 0.453181894710208 0.792904665111249 -0.0592903795793812 0.253184882045519 -0.386554104722305 -0.0866116789781044 -0.159678793504568 0.110546837263917 -0.1828984141505 -0.299837010569083 -0.283898493201549 0.25697365770534 0.988225357763667 -0.565025852848433 0.969424432726427 -1.08420047539401 -1.44765708680741 -0.984390559381051 -2.37927963773681 0.00198154818201971 -1.83955394113687 -0.993886923998009 -0.0473136730249706 0.970256441279303 0.221678085974277 -0.225119762886761 -0.796847706880998 0.208038133644664 -0.132162090366603 0.44815127686547 0.475544052895126 -0.501336060924101 1.97447456665916 0.0996664485307255 -0.146638936342573 -0.63122658282202 1.87733062613594 0.0609366560824916 -0.344257422702362 2.24834087762194 0.343196586086427 0.613592680906382 0.602426642759641 -0.00565051049646388 0.636275198379583 -2.18134696273314 -0.574817637065903 -0.788852608623818 1.35761272977323 0.0518663230391166 0.369844256805133 0.438900452473479 0.513514084751967 0.119604571908315 0.405835054471603 -0.344332755986043 -0.439855102583748 -0.771622369695824 0.0683540277579927 0.0512217478098025 0.00235461505786123 0.668691393168848 -0.162413160303034 -0.412694754159716 0.055812450131064 0.239027881137465 -0.472493954791675 1.74041019760862 0.556752561373017 -0.40383885100914 0.487821578363895 -0.0677367062080991
-0.062504256869539 -0.16644644774709 0.270242342930394 -0.19202916808693 0.0728208029709456 -0.143289819096045 0.0094182031212617 0.168313324787397 -0.0927982642065666 0.418237535489414 0.467171773999173 0.242638736550503 0.282858739620637 -0.613133739229347 0.0929525303164942 -0.415301080086942 -0.209161190924937 -0.135565972082155 0.349383942645439 -0.436455334631127 -0.0779923171960844 2.06827710324136 -0.703138501295309 -0.261550218966525 1.73852737973695 -1.26688265988043 0.0467164060693677 -0.838892163811209 2.16929620844596 -1.12451638056248 0.48585160014012 -0.221736192875683 1.24664731713104 -0.0931103959689868 -0.0704916418212224 -0.766026366558201 -0.534599947987417 0.412376965973265 0.555235868402246 -0.0105379179691527 -0.52063475127604 -0.570321037071697 0.555350282433775 -0.176756566093917 -0.220604908069548 -1.00679308386473 -0.340790548991923 0.300054525784081 1.76724067366759 0.274947716393368 0.838203108520199 0.18022138292289 0.455352161766706 0.0791883937683895 -2.80809545749415 -0.237535356523916 -0.914613426758976 0.515652470145746 0.242111660674917 0.809434793010355 -0.411805410035983 -0.575746319047667 -0.311660993674665 0.255022962745306 0.345107686078246 0.0394023926875181 -0.545216798782816 0.948017695982327 -0.592265648319078 -0.774652670315168 -1.91504071959755 0.691106516051508 0.245853642281394 -0.347490583256261 -0.458946562128018 -0.603784184527004 0.997588025085355 0.19855333898595 -0.574573639502034 1.24833653103475 0.259775644481991
-0.0921313203913131 -0.101150745618412 -0.432869161795678 0.292429666190727 -0.186568919126043 0.283346991858558 0.304662454487618 0.167785734691445 -0.0558402180308509 0.526793054384349 -0.123963103734135 0.283947087026176 0.382494849149744 0.810243918756925 -0.611518573058406 -0.0469565469804883 -0.235555351002995 -0.12387465783111 -0.0363062718612717 0.423403650400705 -0.309400995164227 1.86404137209622 -0.371346037385278 0.0521432307064366 0.571949572972166 1.92605172030381 -0.34896228194497 -1.13749118884812 0.100116134241164 -0.321509599242625 2.18510437095061 0.0864476426812148 0.60577910243855 -0.438885540082853 0.366751735521452 -1.52648938297205 -0.145909257642616 -0.287734834245265 1.14190782757535 -0.534067472797984 0.128435278260936 1.25118222654255 -0.227455866011431 0.264114121713521 -2.70149860397492 -2.99360816798755 0.396567517917704 0.75716120744103 0.0936631828628939 0.250827695885825 0.68284428031397 -0.0558751850157679 -0.607802045360067 0.0991198322812155 -0.164981433923145 0.298038010617145 -0.0943802631638739 -0.487625917514471 -1.58720980939046 0.915983824035499 -0.188012078584416 -0.53547489394089 -0.150736501332433 0.486233665872374 -1.91771800793534 -0.00348281454179823 0.609694376308512 -0.50852280476526 0.792130506349596 0.0566465155654057 1.11746770488971 -0.992338863584886 -0.286520759960135 0.136496968055568 0.503902791883112 -0.533660981598325 1.03558428218088 0.783675695084832 -0.00422483453054987 -1.04528530650368 -0.480222944009229
-0.399744885561845 1.01174374044249 0.0125400349658294 -0.114706365807931 -0.0813710021136815 0.305755944096821 0.102178415020713 -0.56102007619398 0.0263818187892643 -0.226605602635547 -0.405202306310717 -0.624615765791257 -0.662663959143794 -0.0386341474600788 0.330581474947099 0.487967102727594 0.898307241829448 -0.245105194538062 -0.697254020532122 -0.0750214090290625 0.964672779430474 -0.585033138865307 -0.218262891410664 0.0641916710019634 -1.80441906327032 0.527925881851584 -0.69200383059092 3.94686705505467 -2.02276885792291 -1.96265109777395 -0.645407752087296 -0.355187690811097 -0.667946287857898 0.00120584675926722 0.575763288319759 -1.26565213054357 0.574023166599776 -0.212353470959705 0.180360479532008 -0.644644391953337 -0.0939020382230984 0.0993921119652376 0.557220759016647 -0.67319416380745 -0.104796568016367 0.864212631764172 0.146128058408529 0.221178006667929 -0.174302192284969 0.0325565769492987 0.0454290553820221 1.37889476807847 0.313556667055492 0.533996510387417 1.21211073466082 0.242601198463754 0.458240537564916 -0.333363664239643 -0.753993095763484 0.553722517863856 -0.36681806994872 -0.898511644425102 0.0154458942564985 -1.94878411715256 2.35482331710963 1.24383838837945 -0.186439592703887 -0.0201530674907553 0.165221831944449 -0.618426866571146 0.123396947110701 0.356144397802832 -0.175844596274062 -0.438256134354349 0.206401370218333 0.574523503016307 -0.00140536426144021 -0.300209563224558 -0.114745703665963 0.622434185886698 0.0794861273605497