3.88604394813299 1.08117279956005 2.75338672954627 1.08117279956005 -7.12338421652994 -1.21915104255153 2.75338672954627 -1.21915104255153 5.5767922689688
-7.1784446449838 -0.675230812605302 2.08950998412921 -0.675230812605302 -7.57576033654729 0.909914692596169 2.08950998412921 0.909914692596169 1.44309999889121
4.17401186185128 -0.587379018631602 1.19286218509774 -0.587379018631602 4.62661555771467 -4.029178679175 1.19286218509774 -4.029178679175 5.30049217155572
3.98607795538243 0.405608139054927 2.92367288049745 0.405608139054927 -10.2905049695255 -0.319133307378242 2.92367288049745 -0.319133307378242 5.53027137818038
-2.93716345476959 -0.00616619339699705 0.663893489076682 -0.00616619339699705 5.36458825538743 0.72966621864465 0.663893489076682 0.72966621864465 -3.35235381016739
1.97642832062975 -5.66683789173414 -4.00130840805738 -5.66683789173414 2.13793420995599 1.65947301282703 -4.00130840805738 1.65947301282703 4.91987315360032
-1.73099912955614 -2.44462016493806 -2.36347958074012 -2.44462016493806 3.23522072891803 2.7587798627301 -2.36347958074012 2.7587798627301 -0.96536489917554
-5.7555622952453 -2.04855535206921 -3.96026802359142 -2.04855535206921 7.45282001964162 1.38068137387715 -3.96026802359142 1.38068137387715 -3.10449066315573
8.94236226018958 -2.1087056951393 2.88008514235836 -2.1087056951393 9.51032310644487 0.00201404555409675 2.88008514235836 0.00201404555409675 5.98372934122145
2.7050431477623 -1.58550166206495 0.439157157372996 -1.58550166206495 -0.498948507437864 -3.50707194690829 0.439157157372996 -3.50707194690829 1.6741578018163
-1.14593029667557 -0.0430492598035544 0.284945100604479 -0.0430492598035544 -4.31722576887074 -0.442792386550845 0.284945100604479 -0.442792386550845 1.61742218976211
-1.56865468112066 -0.352230555029704 0.428001081402373 -0.352230555029704 -4.50527454107761 -0.534489388736935 0.428001081402373 -0.534489388736935 2.10928762604997
-2.75713257106092 2.55344494014477 1.99067911452076 2.55344494014477 8.29869605547049 0.0650960469938222 1.99067911452076 0.0650960469938222 5.37147381323217
-2.38163618259184 2.65241652376507 0.268728974952223 2.65241652376507 1.96931157216896 3.16115534657538 0.268728974952223 3.16115534657538 2.84319358231894
0.402506485007873 -4.2585186113833 -2.57201643920031 -4.2585186113833 7.19077835466565 -1.11896802832189 -2.57201643920031 -1.11896802832189 4.84014048221967
-7.26977804056595 -2.11844248345432 -3.72445935144181 -2.11844248345432 0.460349841537271 2.81000876123882 -3.72445935144181 2.81000876123882 -2.25592252662835
4.86662594845923 -1.24931840623198 1.7025025339828 -1.24931840623198 -0.559335364881639 0.293957272054584 1.7025025339828 0.293957272054584 -4.91561882713499
7.67317776604521 1.29446712445749 -2.1370919507553 1.29446712445749 5.70298252001556 0.138402145382248 -2.1370919507553 0.138402145382248 -2.49327394254785
10.7949586030434 0.632109571411866 2.76982640676915 0.632109571411866 -3.83970765546949 -0.398904098463799 2.76982640676915 -0.398904098463799 6.687269219888
-0.572329016349107 -4.62991609283131 -0.863621920727505 -4.62991609283131 3.97553273722068 1.57134059685812 -0.863621920727505 1.57134059685812 -1.91186610479343
9.26084250685878 0.351393097546814 2.07975682152708 0.351393097546814 -4.68864627249965 0.0326877300043548 2.07975682152708 0.0326877300043548 6.3659354183481
0.758337238620627 -0.943887839559717 -1.48843851622878 -0.943887839559717 0.994309198510557 0.177483183506955 -1.48843851622878 0.177483183506955 -0.116977552765948
4.01672786960692 -5.67317304846295 -2.83355274185262 -5.67317304846295 0.430797097797721 1.76768386608079 -2.83355274185262 1.76768386608079 3.33918313832882
9.91469530748005 1.02629008728074 -2.23177368186448 1.02629008728074 1.04461669598219 1.79804394259702 -2.23177368186448 1.79804394259702 -2.64921310228621
-2.65771995703808 -4.7645230209316 -2.23797375273746 -4.7645230209316 4.50218164324371 -0.686123603183712 -2.23797375273746 -0.686123603183712 4.54657787639089
-0.898213900213716 -2.98994490071141 -3.40418966747664 -2.98994490071141 -2.84229330067628 0.358875416752056 -3.40418966747664 0.358875416752056 -3.43084898414965
12.2720247013606 1.14735939255069 4.22203626203356 1.14735939255069 -0.311983233752602 -1.22946024353821 4.22203626203356 -1.22946024353821 6.32997561113832
-8.06310486514871 1.90486910243148 -0.971357091968371 1.90486910243148 -3.49015751659631 0.170302866773676 -0.971357091968371 0.170302866773676 -3.32616216340685
-1.9370921131344 5.44280773092654 -1.60862866786378 5.44280773092654 -2.14764560369248 -2.00025816030182 -1.60862866786378 -2.00025816030182 -3.84260120268508
-8.93406915727727 -0.490950925752018 -1.16961838193863 -0.490950925752018 -4.16070595479757 1.34908363631017 -1.16961838193863 1.34908363631017 -4.38349040850016
-2.82987225180961 -3.07167161872744 -3.60444988481759 -3.07167161872744 -0.864740108807859 0.75408616123529 -3.60444988481759 0.75408616123529 -4.02042676180336
-3.39032164961173 0.440196616804858 0.714814689673944 0.440196616804858 -10.2275039638376 1.06212578183191 0.714814689673944 1.06212578183191 -5.80130678935944
5.09730380819198 -2.27961612695129 -2.34122737362565 -2.27961612695129 -5.39303779222891 -0.449762100722822 -2.34122737362565 -0.449762100722822 -0.511373347397181
-2.68330000949169 5.00594141555707 0.100984408959365 5.00594141555707 -2.24432696646425 0.741926269905536 0.100984408959365 0.741926269905536 3.31805915152198
0.365905999868651 0.748444090640422 3.71727231684743 0.748444090640422 2.08940641970451 -1.0249526019048 3.71727231684743 -1.0249526019048 -4.34929177116601
6.98167540381076 -4.00344980991998 -0.251738223341824 -4.00344980991998 -1.65863006830863 1.28508302722077 -0.251738223341824 1.28508302722077 -0.416180127298984
0.502197222612225 1.56493823311942 4.334316278147 1.56493823311942 6.24516629115701 -0.82310333166734 4.334316278147 -0.82310333166734 -1.62536860430513
-0.758163734341267 -5.38684529305547 0.314709474632224 -5.38684529305547 4.33032062821872 0.858298567178793 0.314709474632224 0.858298567178793 -3.08987484184365
-8.07104010283409 3.29757874132625 2.35276685476648 3.29757874132625 4.02831560348031 1.60144585565032 2.35276685476648 1.60144585565032 0.823365478483457
-6.5005129153611 0.831410863263547 0.193852273817925 0.831410863263547 -4.61153020271309 -1.2923484921195 0.193852273817925 -1.2923484921195 -9.13044209682429
-12.3708621403446 -0.0660549955766774 -1.73187941527601 -0.0660549955766774 -0.0516054652942792 0.666742611602088 -1.73187941527601 0.666742611602088 -3.04885088958602
3.31943184131875 0.829353487405476 0.304701646224396 0.829353487405476 3.14992893878333 1.46095358851962 0.304701646224396 1.46095358851962 1.36611267876766
2.89207826468366 -0.54409576614888 0.077429012875033 -0.54409576614888 -3.94678698060303 -2.484006440072 0.077429012875033 -2.484006440072 -7.69476973895936
6.53533962290108 1.33286531782851 6.28350792690583 1.33286531782851 -6.90592122432498 -1.02575349344406 6.28350792690583 -1.02575349344406 1.03803796641944
-0.113481619404242 -1.09355015062269 0.394090714658367 -1.09355015062269 -1.08323363976776 -0.344571462554698 0.394090714658367 -0.344571462554698 0.93261258128577
-1.76711482657031 2.49960891827289 2.85390131277592 2.49960891827289 0.419499583675363 -1.90187635085981 2.85390131277592 -1.90187635085981 -7.10758361978465
-8.28911692299486 -2.26370296034468 -3.71789739662141 -2.26370296034468 0 2.96472065129013 -3.71789739662141 2.96472065129013 -2.05506674280139
-6.77812144791971 -1.02147934975035 -0.147162279201322 -1.02147934975035 -15.3048770369375 1.59065110607311 -0.147162279201322 1.59065110607311 -9.28420849667163
-0.167642735833884 0.668475409137614 -0.264037308938368 0.668475409137614 -3.44924928978217 -2.12068060829864 -0.264037308938368 -2.12068060829864 -8.50996437776756
1.8713414059824 -1.04311115160669 0.433934239068382 -1.04311115160669 -1.56466672741003 0.901248034988179 0.433934239068382 0.901248034988179 -2.5118116530689
0.542547808097438 -5.171347880899 -4.42105871877169 -5.171347880899 3.32587857082779 1.44208804011029 -4.42105871877169 1.44208804011029 5.31253132538532
-5.86048080336587 -1.03633048338387 -6.70742029491984 -1.03633048338387 -3.20900691774718 -1.07676226815655 -6.70742029491984 -1.07676226815655 -7.9373977474781
2.46699000883336 2.81083580351543 0.84925768566052 2.81083580351543 -4.89876689411495 -0.401843880532051 0.84925768566052 -0.401843880532051 -1.50173615147287
-1.00048309093389 -0.811091230098669 -1.84862925032641 -0.811091230098669 -7.76506629424411 0.152336931541374 -1.84862925032641 0.152336931541374 -4.36836444230806
-5.3865388544309 3.01284470072327 2.31409490655826 3.01284470072327 1.23925331141619 1.79208770738792 2.31409490655826 1.79208770738792 1.47765030001367
-0.709881922651009 -0.438576475201054 -1.45240209461931 -0.438576475201054 7.4476405160886 -1.47688078160727 -1.45240209461931 -1.47688078160727 1.82774196176811
7.06317489712805 -2.2179346779044 1.30754275777284 -2.2179346779044 -1.6782168729047 0.696541469093942 1.30754275777284 0.696541469093942 -3.2301601461491
0.829048051853835 -1.99255314174161 3.51889344258743 -1.99255314174161 -1.08850563287411 -2.40809067384439 3.51889344258743 -2.40809067384439 1.01553318821215
-2.65936187994836 4.36645419267623 -0.512127693818362 4.36645419267623 -1.29574476749224 1.90042565898862 -0.512127693818362 1.90042565898862 5.36191525214646
-5.87312987834106 1.53156126118901 -2.18365457127509 1.53156126118901 -12.1688333819682 -1.02104084079268 -2.18365457127509 -1.02104084079268 -5.83666413402704
-0.342071220728675 -0.260137994206837 1.52190968264315 -0.260137994206837 2.68126483792716 0.0716915732066086 1.52190968264315 0.0716915732066086 -6.06715542394213
-4.47934412088508 -0.801266381205205 -3.72497119201504 -0.801266381205205 10.2798602901696 0.511750284179406 -3.72497119201504 0.511750284179406 -2.29981801017677
-3.65364011183554 -2.075561179603 -2.075561179603 -2.075561179603 -0.252818847024334 3.02567071761381 -2.075561179603 3.02567071761381 -4.1470446358669
-8.88328986993542 1.47842413904234 -2.10080671481734 1.47842413904234 2.03070901856965 -1.11306644950889 -2.10080671481734 -1.11306644950889 -5.81386044333172
-8.53809709691652 1.02577844980623 -0.713303922029119 1.02577844980623 -10.0293548432735 -0.715458918772409 -0.713303922029119 -0.715458918772409 -11.658532381201
2.69946155364596 -0.890269731490517 2.61555107320662 -0.890269731490517 -3.10878097042321 -0.476857120545495 2.61555107320662 -0.476857120545495 3.9724449398232
-1.47506587602055 2.58082218072521 2.52433954040631 2.58082218072521 -1.14485967107928 -1.82047894566307 2.52433954040631 -1.82047894566307 -7.12767472639681
-7.04167663473123 -2.44854966042455 -2.39194791313734 -2.44854966042455 2.77138925606272 0.909820678616658 -2.39194791313734 0.909820678616658 -5.4505386276574
-0.88957358352186 0.160970457970622 -0.0931934230356234 0.160970457970622 -6.40704783369911 -0.169442587337497 -0.0931934230356234 -0.169442587337497 -2.11803234171871
-2.876457440815 2.77790643641877 2.38986185660861 2.77790643641877 -0.357247390936339 1.57886921626462 2.38986185660861 1.57886921626462 2.06546480047102
-6.38010281718873 1.22299558023859 -2.18514245280392 1.22299558023859 -10.6520349313788 -0.641431248376883 -2.18514245280392 -0.641431248376883 -5.24049329923914
5.56943189324811 1.46113526068748 3.21979597194731 1.46113526068748 8.65473005877231 -1.73013087353372 3.21979597194731 -1.73013087353372 3.16681198759881
-2.27823813455561 5.26395132753144 -1.49917333808095 5.26395132753144 -2.32456090623788 -1.91186712215942 -1.49917333808095 -1.91186712215942 -3.96059697883466
-0.679058528801121 -2.19964971292633 -1.2102239424339 -2.19964971292633 1.31645702516046 1.59141323927625 -1.2102239424339 1.59141323927625 -1.80387940472936
10.67392872289 1.35253954842879 4.32152880107736 1.35253954842879 3.70092757535012 -2.20818575665737 4.32152880107736 -2.20818575665737 5.29675929864873
-0.370918840210803 0.0870312362505796 1.53962401271859 0.0870312362505796 -3.87289001315079 -0.793641987713618 1.53962401271859 -0.793641987713618 -6.31598114504206
-10.6505367039244 2.98019605018069 0.520419124942458 2.98019605018069 -2.98232020987433 1.50390506309902 0.520419124942458 1.50390506309902 -8.20350473684805
3.05833438323007 -1.87400897118371 -0.46649150355646 -1.87400897118371 6.20313055375724 -3.02013033768018 -0.46649150355646 -3.02013033768018 5.05298770878183
-4.3191764626703 -3.83093934845663 -0.581427600744079 -3.83093934845663 0.0931904865304099 -1.10005291708723 -0.581427600744079 -1.10005291708723 4.36171994565158
-0.29693377079891 -1.51538614062892 -2.78298616907393 -1.51538614062892 -2.86489893343225 3.60211381265713 -2.78298616907393 3.60211381265713 7.8308602726554
-4.78711457977106 0.824635462063035 -1.54143397908706 0.824635462063035 -3.07441015856321 -0.501124626945998 -1.54143397908706 -0.501124626945998 -1.47377158219983
-5.77002793623588 1.25729083051666 2.49932856603571 1.25729083051666 4.80254591067367 -2.21387778822343 2.49932856603571 -2.21387778822343 -6.59805309324858
8.93228972112586 1.84742501561536 3.4247945472205 1.84742501561536 -0.699689208571929 -1.51803916011805 3.4247945472205 -1.51803916011805 4.21859400022023
-14.4259761326808 3.26180256805305 -1.57026111886703 3.26180256805305 4.71716653188103 -0.251071561011259 -1.57026111886703 -0.251071561011259 -9.35347951021606
-5.42170419660888 -1.44878057192033 -3.90150486410094 -1.44878057192033 9.20485797173605 1.03251122449533 -3.90150486410094 1.03251122449533 -2.61188610149017
4.81663968835514 0.879741999478314 2.0603933764504 0.879741999478314 -3.957794173425 0.833769733472321 2.0603933764504 0.833769733472321 -2.12726212700457
5.00507175301057 3.01256075749623 1.76905181844731 3.01256075749623 -5.28646479079868 -1.64283876473352 1.76905181844731 -1.64283876473352 -2.58012586854245
-2.09791882765189 1.359533671645 -0.816542916252745 1.359533671645 2.149338406761 0.639659564117389 -0.816542916252745 0.639659564117389 0.619091732473743
-5.63793589597485 -1.77909120954263 -2.2394155085152 -1.77909120954263 -8.65285270095735 0.389824181111906 -2.2394155085152 0.389824181111906 -6.82814376809311
1.41941694434691 -1.02146946519718 2.65794867089849 -1.02146946519718 -4.6349176983322 1.01295721965387 2.65794867089849 1.01295721965387 -5.73725349619082
-7.52336336101404 4.10478353673403 1.78703202457815 4.10478353673403 8.52260864621899 -1.69581461265073 1.78703202457815 -1.69581461265073 0.67791122046062
1.92291401316396 3.63495471978117 2.04609742985959 3.63495471978117 -0.354935268445031 -2.04400957533932 2.04609742985959 -2.04400957533932 0.691079846207677
-4.49803732556126 2.70215581808844 0.910441089055242 2.70215581808844 -5.16263848667938 1.55420835797531 0.910441089055242 1.55420835797531 -1.74379677697766
7.08760052211342 0.395226933397529 -2.41210664506533 0.395226933397529 -0.755820578816925 2.54860254474386 -2.41210664506533 2.54860254474386 -3.102735152394
1.76130719489026 2.39898651690524 2.74960762322216 2.39898651690524 -2.04836541058832 0.902182963622484 2.74960762322216 0.902182963622484 3.03461542309381
-4.94255019271593 -2.04576438642788 -1.62128898236136 -2.04576438642788 -3.62771174597332 -0.884151207494639 -1.62128898236136 -0.884151207494639 -3.28606081099295
-7.63978071592892 0.137266105649568 0.280678454835683 0.137266105649568 6.30194837280701 -1.83362932173676 0.280678454835683 -1.83362932173676 -0.0491699482923824
-0.209388802485764 -4.5481663924552 -2.71198766296466 -4.5481663924552 6.96419103652171 -0.887889056694442 -2.71198766296466 -0.887889056694442 4.79983562621213
0.426905022030889 -1.49110366546674 -2.67581616679648 -1.49110366546674 -4.38752147044187 3.46222015474812 -2.67581616679648 3.46222015474812 7.41875138763728
-10.4826971458452 -0.940475118621828 0.303308680947643 -0.940475118621828 -2.2540853771145 0.0261849220961994 0.303308680947643 0.0261849220961994 -7.55653210159488
-4.79092341827286 1.93818443015942 -1.00684905462827 1.93818443015942 -0.874700116208312 0.0839040878856894 -1.00684905462827 0.0839040878856894 -5.95719023988394
3.3941319131749 2.28325057444254 2.93502228240728 2.28325057444254 -2.36728403364554 0.614878969778062 2.93502228240728 0.614878969778062 3.34494159559266
-3.42797309566134 -2.0120711648447 -3.85495916868144 -2.0120711648447 6.47528407905476 0.940577811794269 -3.85495916868144 0.940577811794269 2.34036706061015
-3.64851826790556 -0.919667827860493 0.631060125440572 -0.919667827860493 -13.4934869825433 1.37627105855469 0.631060125440572 1.37627105855469 -8.52254237668377
-6.17116696651276 -0.380443195142646 -6.73657701896233 -0.380443195142646 -8.62407972193524 -1.18336750754315 -6.73657701896233 -1.18336750754315 -12.144755699084
4.96980351144068 1.16505229858363 2.95540364553296 1.16505229858363 8.95786714890004 -1.47464661568978 2.95540364553296 -1.47464661568978 3.42997914478119
-4.55363150434507 1.64366809364942 -1.50739459098716 1.64366809364942 -0.138370018087834 1.50529807556158 -1.50739459098716 1.50529807556158 -3.42360968996109
-4.54352438082961 1.88369570359418 -0.910383001514336 1.88369570359418 -1.20825025085774 -0.306257876085468 -0.910383001514336 -0.306257876085468 -6.59083730589411
3.77091440392088 -1.03945893441413 0.135945333474685 -1.03945893441413 -3.92777440408398 -2.52440026929146 0.135945333474685 -2.52440026929146 -7.17582214079453
5.09900126673974 0.041038239571346 -0.861803030998266 0.041038239571346 -3.42874491618596 0.0430901515499133 -0.861803030998266 0.0430901515499133 -0.287267676999422
8.19150914600588 2.81442405691107 3.6863838010886 2.81442405691107 2.73050304866863 -1.20764377714729 3.6863838010886 -1.20764377714729 1.0050052450497
-1.56159912553881 -3.89896039731302 -4.48934561509737 -3.89896039731302 5.04950633367774 1.11226157070635 -4.48934561509737 1.11226157070635 4.69688717629801
-4.10259558132731 1.6247478843501 -1.71477349271779 1.6247478843501 1.49828333926217 -0.632322725439685 -1.71477349271779 -0.632322725439685 -1.97413298349135
2.54037023306938 -0.390513278422194 1.71663128639756 -0.390513278422194 6.20753398825279 1.02713127918337 1.71663128639756 1.02713127918337 3.81157231126662
-0.973310557122817 0.516945026189712 0.268569095637624 0.516945026189712 -6.54258548771354 1.36707727629076 0.268569095637624 1.36707727629076 -4.3354725438645
-4.76834370756535 1.79913759942439 -1.35669233895989 1.79913759942439 -0.215980387809688 1.21200644809709 -1.35669233895989 1.21200644809709 -3.98200734418056
-1.1913429753125 -1.96449192675674 -2.23988799125535 -1.96449192675674 3.85758487382866 -3.08035598068814 -2.23988799125535 -3.08035598068814 5.6221596574679
-8.89216596306734 1.0880891231764 -0.950192679843154 1.0880891231764 -10.9476848215035 -0.506338502864266 -0.950192679843154 -0.506338502864266 -11.8978775013467
-0.832373229197479 -0.890932149844537 -2.59332362865546 -0.890932149844537 -1.44515050596849 0.621142836863445 -2.59332362865546 0.621142836863445 -2.25660983493487
2.26347543667765 -1.40856564944329 -2.23497844376984 -1.40856564944329 -5.47345813779334 2.85987678824829 -2.23497844376984 2.85987678824829 6.58891186018485
0.0248383057668944 4.49780320262179 1.33298907615667 4.49780320262179 -3.68641854756991 -2.10918613137212 1.33298907615667 -2.10918613137212 -1.69107465096273
1.90750171930108 -0.968077589301945 1.98322871888707 -0.968077589301945 -2.55015787794973 -0.202620890784128 1.98322871888707 -0.202620890784128 4.34918578703305
-4.05554390099361 0.329668445939665 -3.07690549543687 0.329668445939665 -3.11422645158099 -1.46588422188266 -3.07690549543687 -1.46588422188266 -5.27884190793954
-0.890844826138659 -4.37158920338179 -4.53282808594082 -4.37158920338179 4.49856482339703 1.20929161919275 -4.53282808594082 1.20929161919275 5.05685445425768
-3.76392506962738 3.99683093028941 1.42030984671575 3.99683093028941 5.09897473520792 -2.26667310822864 1.42030984671575 -2.26667310822864 0.769421146829907
1.55939694585762 -1.63365394327941 0.239272547247994 -1.63365394327941 -0.249586019112132 -3.46945193509592 0.239272547247994 -3.46945193509592 1.39438139603142
-0.9337215781822 -0.638970616416075 -1.41398013826267 -0.638970616416075 -7.69032054789799 -0.0247343464419126 -1.41398013826267 -0.0247343464419126 -5.11588732240225
-5.37786547509207 1.5150368433088 -0.206127461674667 1.5150368433088 -1.36662507090304 -1.35425742320256 -0.206127461674667 -1.35425742320256 2.06951971521366
-7.80725619298714 -2.23689877038056 -3.75248628768407 -2.23689877038056 0.271012898554961 2.92068516058077 -3.75248628768407 2.92068516058077 -2.14308661318846
-13.758456422734 -2.17044069052989 1.81075591700458 -2.17044069052989 1.58466834507438 0.764587061436666 1.81075591700458 0.764587061436666 -1.96901721735572
-1.05028209552813 -1.4884114687114 -2.91130826479727 -1.4884114687114 -6.04372854970572 0.716566731841803 -2.91130826479727 0.716566731841803 -0.118745344133785
0.952750419325055 -1.4607479662457 -2.57058999646589 -1.4607479662457 -4.93308461226549 3.30096397958874 -2.57058999646589 3.30096397958874 7.15276867270588
-4.39192501566179 -3.58491386319947 -0.279817937285931 -3.58491386319947 -0.725904503973648 -1.14360374369033 -0.279817937285931 -1.14360374369033 4.34123336035637
-2.76249373267599 5.01333656821764 -1.381246866338 5.01333656821764 -2.51824885996988 -1.77709200486169 -1.381246866338 -1.77709200486169 -4.03214595889827
0.46019588697521 -1.68394548776579 0.00825463474394995 -1.68394548776579 -0.140328790647149 -3.33899975392775 0.00825463474394995 -3.33899975392775 1.05659324722559
2.69188160344425 -0.85764599923689 -0.987023254596227 -0.85764599923689 -2.49781572040525 -1.96569958949185 -0.987023254596227 -1.96569958949185 -2.08672992515058
6.69048883808304 -1.74464418361334 0.969022924154755 -1.74464418361334 10.9090626492682 -0.501635567805684 0.969022924154755 -0.501635567805684 7.45603709417203
1.41802460128621 1.4875957938457 1.4937344284833 1.4875957938457 3.32918618512649 -2.36746675856874 1.4937344284833 -2.36746675856874 2.4963780859584
1.55074303197572 -3.41927776181416 -1.96306770325331 -3.41927776181416 7.15835856135094 -1.78204711586315 -1.96306770325331 -1.78204711586315 4.90565791827338
-3.83066577624599 -0.825002694234795 -2.36514591487915 -0.825002694234795 -11.4546856490992 0.626007069494744 -2.36514591487915 0.626007069494744 -7.59499967757862
-1.2522643207702 0.539341563896075 -1.73374548700692 0.539341563896075 -1.08281601333925 0.582736862140586 -1.73374548700692 0.582736862140586 -2.09537297237785
8.85384758249494 -2.22606416102811 2.5769112298858 -2.22606416102811 5.68815851291693 0.336732531604795 2.5769112298858 0.336732531604795 5.40183504292962
-4.20050557200092 1.39658753033279 -0.0128915772030719 1.39658753033279 1.06140652305292 -0.969016886430902 -0.0128915772030719 -0.969016886430902 -4.21984293780552
9.04564109902158 -2.1778035697199 2.91918350834795 -2.1778035697199 8.42513832430028 0.104760208719181 2.91918350834795 0.104760208719181 5.75375300196117
-0.317943624183984 0.642121437077457 1.49828335318073 0.642121437077457 -5.40296354822456 -1.34242863544349 1.49828335318073 -1.34242863544349 0.193259849994186
5.58644851497761 -3.56448767187004 -0.231379024314371 -3.56448767187004 -2.80990022320515 -2.16787554312564 -0.231379024314371 -2.16787554312564 -4.06476664336057
-0.323984584384219 -2.50425820256733 -2.29234375743551 -2.50425820256733 3.26633514948366 -3.14611445464927 -2.29234375743551 -3.14611445464927 6.2188739090606
-9.81601321816018 -0.475915207287988 -2.15105287523117 -0.475915207287988 -2.67938165160374 1.82399220414339 -2.15105287523117 1.82399220414339 -2.34183826669904
4.93648316360453 1.48240854002355 2.35219972852821 1.48240854002355 -4.26950386280409 0.798702485598022 2.35219972852821 0.798702485598022 -1.71240140236853
2.46067305939807 0.1416366795358 1.15423323920219 0.1416366795358 -9.75601904563754 0.388972373650554 1.15423323920219 0.388972373650554 -1.01471053995797
4.04098191432054 2.41270993161156 6.11984488595529 2.41270993161156 -6.83054976394273 -0.43420586205573 6.11984488595529 -0.43420586205573 0.770100962891294
6.0427473859691 -0.563510172897912 2.04422307402328 -0.563510172897912 9.95934291391203 0.275760297375574 2.04422307402328 0.275760297375574 6.99991537468576
-2.59029998854169 1.76041799379875 -0.864802771749445 1.76041799379875 3.04837841633296 2.23082140170997 -0.864802771749445 2.23082140170997 1.68441394972576
-2.31032895246701 2.46391823676023 -0.547297027129358 2.46391823676023 -10.1606882862711 -1.7349099437065 -0.547297027129358 -1.7349099437065 -6.59568630718344
6.72766163677877 -2.08559531665836 -0.105088136110693 -2.08559531665836 -3.67606383817981 -1.53388260207723 -0.105088136110693 -1.53388260207723 2.84950522915532
5.00596086154049 -1.48942786127316 0.702482573574201 -1.48942786127316 -1.33080276401447 -3.31258644664902 0.702482573574201 -3.31258644664902 2.08478699254279
-8.9894056738941 0.712053303855075 -1.4369363969688 0.712053303855075 -7.1932351776831 1.25090445271838 -1.4369363969688 1.25090445271838 -5.88887326972035
6.18237946716143 1.74746015941865 3.46637371179895 1.74746015941865 8.12150970240896 -1.88611510789061 3.46637371179895 -1.88611510789061 2.8587387905542
-2.88877595729051 -1.38416261416464 0.653292089281247 -1.38416261416464 -4.43830313155447 -0.814573573822555 0.653292089281247 -0.814573573822555 3.32770657977635
7.38723210683864 -2.63335491632209 1.01549003341942 -2.63335491632209 -1.85393070229477 0.840475719042523 1.01549003341942 0.840475719042523 -2.58654876247711
-0.357809167701968 -3.53539853769161 2.77302104969025 -3.53539853769161 0.544845778091634 -1.33161934570903 2.77302104969025 -1.33161934570903 -1.4292036641732
6.13934787769436 0.0205055039335149 -0.803815754193784 0.0205055039335149 -2.69237266647051 -0.2071055897285 -0.803815754193784 -0.2071055897285 0.145589077927956
8.63805726804923 1.95686794982348 3.62102448037419 1.95686794982348 -2.20659377605618 -0.648877761604646 3.62102448037419 -0.648877761604646 4.24329211295404
-3.91605268616837 -2.41802005777964 0.525125568103659 -2.41802005777964 -3.38482100680769 -1.06246335872136 0.525125568103659 -1.06246335872136 4.04224565214677
4.20218022894271 0.531067912584535 1.8692747558035 0.531067912584535 -11.9153094355276 1.00102086697482 1.8692747558035 1.00102086697482 -0.541604974342165
3.45066463885827 -3.55412371974115 -1.56405786981759 -3.55412371974115 -0.448322683825796 -2.98814168902895 -1.56405786981759 -2.98814168902895 6.81409907226628
-4.88065212298222 1.07765831362455 0.350615379482636 1.07765831362455 -0.550659737101564 -1.22392730629215 0.350615379482636 -1.22392730629215 -6.13254261904906
2.00031272251355 1.19850846228251 1.35802972871591 1.19850846228251 -11.2399523914586 1.47137378644491 1.35802972871591 1.47137378644491 -0.929841066184156
6.60400306248184 2.6963089426701 1.3903164342067 2.6963089426701 -4.66249608927011 0.222121560494562 1.3903164342067 0.222121560494562 -1.21755522048871
-0.544284725840383 -1.82651353690256 -3.06797195651602 -1.82651353690256 -3.16174385684807 0.733867046076922 -3.06797195651602 0.733867046076922 3.55110109518333
-1.1160451625534 -2.34660988469718 -1.61368470331882 -2.34660988469718 2.00929772735828 1.92392860111818 -1.61368470331882 1.92392860111818 -1.53664427232166
-4.26716211836013 1.50807335909916 -2.25996788899093 1.50807335909916 1.25315754981962 -0.653355645632449 -2.25996788899093 -0.653355645632449 -1.85081730434897
-3.41505314911408 2.02421888379611 3.12774466238173 2.02421888379611 3.91348984200581 -2.20052181883642 3.12774466238173 -2.20052181883642 -6.85840183101241
-5.5844849820817 -2.05351562791947 -1.92918572108277 -2.05351562791947 -5.62178395413271 -0.217577336964222 -1.92918572108277 -0.217577336964222 -4.87580451311252
1.9238272961822 -1.00438224182581 2.79868032711715 -1.00438224182581 -2.90485181145392 0.949173069970689 2.79868032711715 0.949173069970689 -5.03889864662292
4.478856062022 0.0926798825249716 2.84486943750565 0.0926798825249716 1.93418885269506 -4.40229441993615 2.84486943750565 -4.40229441993615 5.26059072331959
2.36772511891094 -0.640750354344454 1.53983497853572 -0.640750354344454 4.06825621806003 1.6130635904608 1.53983497853572 1.6130635904608 3.67160123679917
-0.247381984516847 -1.5873677339831 0.115444926107862 -1.5873677339831 -0.307165964108418 -0.0226766819140443 0.115444926107862 -0.0226766819140443 0.57928614707695
5.36967588885691 2.25971261757161 1.99361950345094 2.25971261757161 -3.85419244984155 -3.65462261425104 1.99361950345094 -3.65462261425104 -3.01641491085226
-4.38374770360399 0.825151949814296 0.522118479411031 0.825151949814296 5.49760045968086 -2.23794312939709 0.522118479411031 -2.23794312939709 0.960288497426563
4.97252036839858 2.17995948577507 3.13471617785324 2.17995948577507 -2.54670079024286 0.313471617785324 3.13471617785324 0.313471617785324 3.63053403082088
-4.96716757059298 1.85004941996967 -2.02429826068774 1.85004941996967 -12.8083654029063 -1.36817608267524 -2.02429826068774 -1.36817608267524 -6.14388505050391
-9.25645943204116 3.49358689318855 2.46096917431689 3.49358689318855 6.18540074717335 1.086206662366 2.46096917431689 1.086206662366 0.521461642464132
-11.4045738347351 -1.68649983723442 -0.492440520949586 -1.68649983723442 -11.1823219182003 1.75404698833813 -0.492440520949586 1.75404698833813 -9.33675943481849
-2.46053487288535 -1.02999134213805 0.615133718221336 -1.02999134213805 -4.57160839754528 -0.721402666219707 0.615133718221336 -0.721402666219707 2.97348691033902
-12.9371874192311 3.24652180594346 0.0892952952518829 3.24652180594346 -1.12044334756529 1.48612884240634 0.0892952952518829 1.48612884240634 -9.18678501865205
-2.85648183688688 -0.169106984637383 -3.43511296504371 -0.169106984637383 10.5946544592095 -0.0305615032477198 -3.43511296504371 -0.0305615032477198 -2.19839080028598
4.98866153621008 1.1357295541433 -2.36305020136267 1.1357295541433 7.58781322194662 -0.335834007945599 -2.36305020136267 -0.335834007945599 -2.45464129443874