5.0137336725 0.3700222405 2.0090924678 2.836916402 4.3411732097 4.9136261904 1.9645948787 1.4516056941 2.0542036342 7.406342156 1.5872950999 0.0542740957 8.0583132024 4.7173014511 2.7443965644 0.9913699552 4.6379554339 2.1873957737 4.0413540314 1.7322578508 4.2793011937 9.1663383089 1.5473189362 2.8357650721 6.1597839538 4.5170937836 0.4167969693 1.4092800239 4.6547214464 3.6668543726 3.5331797905 1.6638337208 0.7891256638 8.8534977768 1.508111214 1.3310590348 6.4709999243 4.6252843754 3.8571004476 4.6418460239 4.771555966 0.6867128823 0.2849266638 1.5664561159 3.0652475825 5.5475680846 1.3274606744 4.207463621 9.8655290264 4.6078192463 2.0451884479 1.6282352866 5.8319134855 1.3782019693 3.2350893999 0.7185922145 3.3916156869 8.4359143653 2.7470410406 3.5685397634 6.6654314465 3.1787882851 1.0352111626 8.4687621603 0.3382891377 3.5923317444 6.9635588948 5.6332170402 1.2109089295 1.6637790056 3.4175877967 1.415795049 3.7600725053 3.1320725408 3.668070406