0.216554137133033 -0.0206706302895623 0.25909044584373 -0.0584069489898626 0.141655626771546 0.0357640264848763 0.0876894848661317 -0.0176868666133797 -8.97314539412064e-05 0.0302173885024303 0.0154155552548794 -0.052118291018665 0.00277858974997885 -0.0160462465343 -0.0379219522525798 0.032293296121689 -0.0202546260131242 -0.018421173296635 -0.0296134366820638 0.0133386191948878 0.086655901929617 -0.0662259267715418 -0.0108050554495106 -0.0343067259664271 -0.026516801635451 0.0199460937932691 -0.00902765275296172 -0.0762969326479803 0.00374121027592692 -0.053834244381426 0.014632654746997 -0.145974049408785 0.218488891261708 -0.0196596730491702 0.0136301821426509 -0.0521720270469564 -0.00606445789143621 0.0237364121141896 -0.0818458846220752 0.0151764427844917 0.0709950635599527 0.00350004092407348 0.0605263082300843 -0.010164593983128 -0.103156719267837 -0.0235806033431628 0.00174217860144875 -0.0134903142029833 -0.0478338069256098 0.0207837587701758 -0.0778956437671964 0.018693195870474 0.00576723851964241 -0.0447351149975312 -0.0662732350452529 -0.0473257572035816 0.0898502388458507 -0.00848386471546702 0.0115301061661702 -0.0421437014609311 -0.0210377836311899 0.01620951150064 -0.0591219724093769 0.00746519416957859 0.0244833171964223 -0.0521540293341315 0.0316523204349399 -0.00286986386501933 -0.0574222169881582 0.01714667811845 -0.00775470023587601 -0.0348746823611438 -0.0848327336204563 -0.0834235127062679 0.131382275180919