-6.69765392562053 0.625407422052275 -0.933115866129113 0.625407422052275 2.01209352717777 3.67052215434514 -0.933115866129113 3.67052215434514 1.95414843056589