9.870812921 -0.066573872 -0.163257999 -0.039783875 6.212492656 0.092282498 -0.077608852 0.073409601 5.039275810
9.904043966 -0.078381782 -0.055225416 -0.046840163 6.239054424 -0.014155446 -0.026252809 -0.011260484 5.070486040
10.377735016 -0.083968620 -0.096640799 -0.050178801 6.029459833 0.062721111 -0.045940667 0.049893879 4.937948590
10.298479705 -0.034377997 -0.115275781 -0.020543944 6.054610653 0.086496078 -0.054799281 0.068806575 4.951594601
10.147312018 -0.112141163 -0.135044872 -0.067014429 6.010357092 0.012173859 -0.064197023 0.009684157 4.932881388
9.896857221 -0.066173078 -0.163194394 -0.039544364 6.187589130 0.081805897 -0.077578616 0.065075594 5.026045807
9.977878209 -0.121331048 -0.137359685 -0.072506211 6.162142331 0.021620019 -0.065297428 0.017198461 5.002996484
9.941270030 -0.005680780 -0.018323631 -0.003394777 6.222439417 -0.024009200 -0.008710605 -0.019099025 5.042474519
10.367498648 -0.088760387 -0.089437808 -0.053042313 6.066768287 0.105538650 -0.042516542 0.083954708 4.937129797
10.323217843 -0.072367937 -0.089683783 -0.043246350 6.006179214 0.021428028 -0.042633473 0.017045735 4.930685723
10.386154450 -0.089573189 -0.097655697 -0.053528035 6.049000285 0.087403208 -0.046423125 0.069528186 4.941518206
10.208578002 -0.102573343 -0.138894393 -0.061296796 6.002513214 0.022831610 -0.066026991 0.018162267 4.949436695
10.042676501 -0.121780910 -0.145767768 -0.072775044 6.083906091 0.016708107 -0.069294425 0.013291095 4.948954976
9.969135786 -0.051777695 -0.118529455 -0.030941829 6.182630951 0.090199380 -0.056345998 0.071752507 5.055415421
9.985903544 -0.061531266 -0.101062722 -0.036770464 6.169071402 0.064273965 -0.048042741 0.051129156 5.055030002
9.948490473 -0.040775457 -0.124681332 -0.024367002 6.170068609 0.118064705 -0.059270450 0.093919032 5.021743265
10.129102768 -0.054151544 -0.102131189 -0.032360417 6.056542137 -0.001171701 -0.048550665 -0.000932074 4.975587476
10.291901216 -0.069564304 -0.063339631 -0.041570927 6.090167688 0.105416541 -0.030110108 0.083857573 4.929344950
10.315782208 -0.055727025 -0.127788745 -0.033301908 6.032058739 0.089518750 -0.060747638 0.071211074 4.958524180
10.047332523 -0.058551756 -0.124464818 -0.034989939 6.100016830 0.023356616 -0.059167524 0.018579903 4.999216427
10.232790906 -0.022468220 -0.110685867 -0.013426782 6.079201776 0.065399915 -0.052617349 0.052024834 4.976879837
10.400074973 0.000021832 -0.001421042 0.000013047 6.211631431 0.000909327 -0.000675529 0.000723358 4.946913949
10.182179042 -0.018180685 -0.015749213 -0.010864594 6.005745537 0.038176453 -0.007486790 0.030368903 5.023647383
9.947869140 -0.037625228 -0.120406621 -0.022484457 6.156611551 0.127128982 -0.057238357 0.101129555 5.010050318
10.048398127 -0.121692222 -0.145014953 -0.072722046 6.077596439 0.015986633 -0.068936555 0.012717172 4.945763085
10.027348204 -0.001106465 -0.002776671 -0.000661212 6.188719112 0.009070215 -0.001319961 0.007215245 5.010889231
10.289270226 -0.030850073 -0.113893363 -0.018435693 6.060793904 0.082035161 -0.054142113 0.065257970 4.954776232
10.384730857 -0.090134188 -0.097150187 -0.053863282 6.052321952 0.091878485 -0.046182818 0.073088214 4.941438225
10.025912142 -0.059900602 -0.130649649 -0.035795996 6.110456360 0.030810136 -0.062107641 0.024509087 5.003478071
10.250891598 -0.059147280 -0.050195359 -0.035345818 6.097430294 0.095529951 -0.023861644 0.075992910 4.927950043
9.841520168 -0.053777591 -0.150321289 -0.032136947 6.239896490 0.105167925 -0.071459057 0.083659802 5.056304327
10.050673563 -0.058335511 -0.123500203 -0.034860713 6.098332765 0.022224744 -0.058708970 0.017679512 4.998424000
10.226130121 -0.099180061 -0.140426596 -0.059269005 6.004041792 0.027836372 -0.066755362 0.022143494 4.954050798
10.372722204 -0.082454746 -0.096101102 -0.049274125 6.025176514 0.057361837 -0.045684109 0.045630642 4.936861097
10.122003229 -0.115876504 -0.135950724 -0.069246631 6.021078201 0.010977823 -0.064627642 0.008732724 4.930238302
10.150949722 -0.111594561 -0.135054832 -0.066687785 6.009150735 0.012496999 -0.064201758 0.009941211 4.933568103
9.903802252 -0.065696848 -0.162152197 -0.039259774 6.182336954 0.079114925 -0.077083181 0.062934958 5.023580844
10.255119688 -0.060212561 -0.051551965 -0.035982420 6.096561332 0.096804429 -0.024506541 0.077006742 4.927963989
10.132790551 -0.114311945 -0.135364562 -0.068311666 6.016030831 0.011268449 -0.064348995 0.008963914 4.930892689
10.337412416 0.000019417 -0.011359767 0.000011603 6.140848028 0.013421537 -0.005400155 0.010676669 4.958376739
10.152547976 -0.054025242 -0.095751708 -0.032284940 6.045473445 -0.005872996 -0.045518015 -0.004671897 4.967467337
10.246565387 -0.008487392 -0.013918619 -0.005071980 6.049969271 0.028955375 -0.006616570 0.023033648 4.993732753
9.892213537 -0.066466127 -0.163644887 -0.039719488 6.191370293 0.083618981 -0.077792769 0.066517879 5.027851054
10.023144192 -0.032590315 -0.107379154 -0.019475644 6.103638217 0.104721151 -0.051045418 0.083304398 4.991260669
9.986973848 -0.122141553 -0.141557296 -0.072990561 6.150798148 0.022073709 -0.067292869 0.017559366 4.994576470
9.838321831 -0.050057812 -0.145525227 -0.029914044 6.238879362 0.106861399 -0.069179126 0.085006940 5.056478148
9.994272031 -0.040887124 -0.058233131 -0.024433733 6.014332526 0.064793954 -0.027682603 0.051542800 5.085859103
9.963800340 -0.049241397 -0.122349020 -0.029426162 6.182496041 0.097104276 -0.058161726 0.077245267 5.050378301
10.239522689 -0.061320064 -0.086134934 -0.036644252 6.008458271 -0.006797608 -0.040946437 -0.005407414 4.941805977
9.978261161 -0.062357080 -0.142870456 -0.037263962 6.134965216 0.049005212 -0.067917114 0.038983049 5.008221658
10.083470473 -0.035841209 -0.026394909 -0.021418345 5.979639092 0.049781258 -0.012547493 0.039600383 5.064764463
10.287517663 -0.030296798 -0.113743306 -0.018105061 6.061737188 0.081213519 -0.054070780 0.064604364 4.955564006
10.183534296 -0.106691901 -0.136626337 -0.063758005 6.002608847 0.017163139 -0.064948813 0.013653068 4.942090386
10.182726511 -0.021549243 -0.107507876 -0.012877610 6.090989416 0.064026977 -0.051106610 0.050932679 4.986524897
10.297749424 -0.068563282 -0.087082479 -0.040972727 6.002645076 0.008255898 -0.041396877 0.006567466 4.931206586
10.310622231 -0.001673996 -0.012617878 -0.001000363 6.111652678 0.018181698 -0.005998230 0.014463319 4.967945364
9.994165320 -0.122431030 -0.144002595 -0.073163550 6.141934809 0.021941501 -0.068455304 0.017454197 4.987935623
9.976654876 -0.055802618 -0.111106295 -0.033347082 6.179181955 0.079041514 -0.052817210 0.062876560 5.057927891
10.049606313 -0.038860240 -0.037345471 -0.023222487 5.986804433 0.055571275 -0.017753122 0.044206272 5.076284512
10.087769405 -0.119932413 -0.139362667 -0.071670401 6.041869894 0.011990420 -0.066249596 0.009538233 4.932741960
9.978810288 0.000219435 -0.008696202 0.000131132 6.208274957 -0.010190735 -0.004133961 -0.008106606 5.031486568
10.226271831 -0.011224470 -0.014471806 -0.006707630 6.033883022 0.032176529 -0.006879542 0.025596037 5.002628450
10.290133448 -0.080438790 -0.141251727 -0.048069410 6.013149512 0.059622671 -0.067147610 0.047429107 4.968021364
10.309927284 -0.041486371 -0.119518975 -0.024791837 6.043766624 0.091329750 -0.056816392 0.072651702 4.951982885
10.286530588 -0.003858963 -0.013137702 -0.002306078 6.086782336 0.022298474 -0.006245342 0.017738164 4.977306405
9.896119753 -0.041066806 -0.101081266 -0.024541109 6.112915063 0.085337191 -0.048051557 0.067884694 5.071553572
10.084534168 -0.056185994 -0.114158475 -0.033576184 6.080147459 0.011221391 -0.054268142 0.008926479 4.989227181
9.956866227 -0.041356475 -0.075207785 -0.024714213 6.045128990 0.071622430 -0.035751938 0.056974770 5.082024608
10.122989360 -0.029417540 -0.018895390 -0.017579625 5.982992558 0.044336296 -0.008982405 0.035268983 5.050430958
10.168838252 -0.054537768 -0.091953166 -0.032591221 6.037927030 -0.008058305 -0.043712282 -0.006410283 4.961693472
9.964668340 -0.035996262 -0.109219999 -0.021511003 6.123606194 0.129335467 -0.051920511 0.102884787 4.994514304
10.386293675 -0.088087608 -0.097748359 -0.052640267 6.042875329 0.079197476 -0.046467175 0.063000626 4.940847979
9.944068300 -0.041255712 -0.081467434 -0.024653998 6.058288631 0.074281862 -0.038727622 0.059090315 5.080090648
10.312931542 -0.070746742 -0.088435729 -0.042277540 6.004385858 0.015590158 -0.042040178 0.012401780 4.930460611
10.267065952 -0.088797726 -0.142432943 -0.053064626 6.008771729 0.044265174 -0.067709131 0.035212406 4.963739864
10.045530799 -0.121737321 -0.145402144 -0.072748996 6.080730654 0.016346309 -0.069120616 0.013003289 4.947315429
10.395600338 0.000141081 -0.002480221 0.000084308 6.206538690 0.001742449 -0.001179036 0.001386097 4.946996966
10.311629559 -0.043200730 -0.120584317 -0.025816321 6.041810186 0.091780032 -0.057322829 0.073009896 4.952665070
10.106813369 -0.032343732 -0.021186160 -0.019328288 5.980151067 0.046327012 -0.010071381 0.036852573 5.056510062
10.373648670 0.000683195 -0.007076688 0.000408270 6.181621032 0.006307042 -0.003364084 0.005017175 4.949062635
9.882954159 -0.041293569 -0.105596680 -0.024676621 6.128789594 0.088899072 -0.050198074 0.070718128 5.067403703
10.310024482 -0.070309167 -0.088124064 -0.042016050 6.003961380 0.014053212 -0.041892021 0.011179159 4.930494944
10.382346325 -0.090404982 -0.096190322 -0.054025106 6.055524129 0.095922440 -0.045726522 0.076305131 4.940956460
9.949312925 -0.003848372 -0.016030833 -0.002299748 6.219592794 -0.021379863 -0.007620665 -0.017007420 5.040425840
10.000926479 0.000931273 -0.005112234 0.000556519 6.199522867 -0.001363369 -0.002430231 -0.001084543 5.023350342
10.391591433 0.000265943 -0.003413074 0.000158925 6.201979717 0.002544490 -0.001622492 0.002024110 4.947156801
10.294133988 -0.032567971 -0.114472954 -0.019462291 6.057805019 0.084378713 -0.054417637 0.067122237 4.952839331
9.949435953 -0.041624548 -0.125152507 -0.024874410 6.172234684 0.115926696 -0.059494435 0.092218273 5.024705258
10.015256330 -0.087018217 -0.067404503 -0.052001210 6.110629357 0.015681174 -0.032042449 0.012474183 5.015017617
10.382669080 -0.085813907 -0.097211398 -0.051281526 6.035137575 0.069567570 -0.046211916 0.055340154 4.939281215
9.943896203 -0.005038286 -0.017574881 -0.003010829 6.221526371 -0.023182524 -0.008354668 -0.018441415 5.041826497
9.896845805 -0.065124270 -0.044162333 -0.038917608 6.241776122 -0.020771971 -0.020993691 -0.016523850 5.072586741
9.984691970 -0.060737843 -0.102353046 -0.036296323 6.170697038 0.066208555 -0.048656130 0.052668098 5.055682375
9.981595608 -0.035303834 -0.107871704 -0.021097215 6.112929681 0.123080169 -0.051279564 0.097908773 4.993120840
9.970052284 -0.041320416 -0.068868362 -0.024692664 6.032910459 0.069060030 -0.032738331 0.054936411 5.083936535
9.956238329 -0.036286582 -0.112061883 -0.021684496 6.134066986 0.131428403 -0.053271473 0.104549691 4.998280641
10.110808034 -0.031649414 -0.020526378 -0.018913371 5.980678863 0.045805773 -0.009757737 0.036437934 5.055048901
10.069079723 -0.009685956 -0.003705736 -0.005788230 6.168468568 0.026019390 -0.001761616 0.020698107 4.984800154
9.972670598 -0.000334817 -0.009998367 -0.000200083 6.210693363 -0.012627110 -0.004752979 -0.010044712 5.033508484
10.133476541 -0.027547734 -0.018171432 -0.016462248 6.134207743 0.052551517 -0.008638254 0.041804090 4.949451711
9.840780059 -0.053030188 -0.149374547 -0.031690306 6.239879687 0.105538140 -0.071008999 0.083954303 5.056342074
9.837676426 -0.041380403 -0.133115382 -0.024728512 6.219924937 0.108081903 -0.063279790 0.085977836 5.057688230
9.999370554 -0.034368828 -0.107697090 -0.020538465 6.107399549 0.115616870 -0.051196557 0.091971810 4.992933514
10.236443881 -0.009821532 -0.014183044 -0.005869249 6.041717747 0.030583220 -0.006742271 0.024328578 4.998111989
9.977758785 -0.056444797 -0.109906752 -0.033730842 6.178287529 0.077300083 -0.052246977 0.061491274 5.057873399
10.162367289 -0.054269851 -0.093359256 -0.032431116 6.040933475 -0.007307862 -0.044380702 -0.005813315 4.963968818
10.117178260 -0.023264641 -0.106980579 -0.013902715 6.097442062 0.072489117 -0.050855945 0.057664209 4.989445839
10.260320727 -0.024729702 -0.112508357 -0.014778221 6.071599105 0.071025437 -0.053483716 0.056499869 4.968047457
10.229395442 -0.053682354 -0.043509997 -0.032080034 6.102405523 0.088398266 -0.020683586 0.070319743 4.928614153
9.961877514 -0.036093437 -0.109861028 -0.021569074 6.126445306 0.130195194 -0.052225241 0.103568689 4.995343572
10.271666168 -0.005452542 -0.013391404 -0.003258384 6.072353406 0.024802112 -0.006365945 0.019729777 4.983281691
9.896418475 -0.034253171 -0.028047144 -0.020469350 6.238729859 -0.029417875 -0.013332925 -0.023401560 5.060706915
9.953634161 -0.041341929 -0.076791767 -0.024705520 6.048342328 0.072278918 -0.036504924 0.057496997 5.081531774
9.858942689 -0.064201431 -0.161210138 -0.038366128 6.226777453 0.097368800 -0.076635349 0.077455693 5.048689704
10.215241537 -0.058547926 -0.086812485 -0.034987651 6.016950070 -0.008891311 -0.041268528 -0.007072930 4.947749477
10.022336004 -0.060115804 -0.131659493 -0.035924599 6.112174693 0.032090943 -0.062587696 0.025527953 5.004040807
9.948865388 -0.037098083 -0.118650366 -0.022169440 6.151918681 0.129017294 -0.056403476 0.102631684 5.007254543
9.952153615 -0.036511344 -0.114923415 -0.021818811 6.142153582 0.131238312 -0.054631775 0.104398476 5.002094273
10.159970326 -0.034982240 -0.025207372 -0.020905034 6.123533555 0.062601107 -0.011982967 0.049798417 4.940710606
10.273878301 -0.065470852 -0.086131649 -0.039124722 6.002430291 -0.000091959 -0.040944875 -0.000073152 4.934594183
9.958282550 -0.036213998 -0.111084895 -0.021641120 6.130942082 0.131097907 -0.052807037 0.104286786 4.996972216
9.947348079 -0.038939986 -0.122907242 -0.023270143 6.163843888 0.123026578 -0.058427091 0.097866142 5.015307677
9.836248860 -0.043524818 -0.136755196 -0.026009992 6.229167386 0.108545752 -0.065010069 0.086346822 5.057407377
10.261663413 -0.006613489 -0.013580091 -0.003952154 6.063116152 0.026471654 -0.006455642 0.021057878 4.987385551
10.191091449 -0.056096160 -0.088504431 -0.033522500 6.027527712 -0.009369346 -0.042072838 -0.007453201 4.954447065
9.904588497 -0.040970912 -0.098169337 -0.024483804 6.103024601 0.083240579 -0.046667297 0.066216865 5.073655969
10.273098960 -0.026757035 -0.113037425 -0.015989735 6.067684546 0.075182819 -0.053735222 0.059807016 4.962498338
10.036117642 -0.031324169 -0.107154760 -0.018719008 6.102377904 0.098727203 -0.050938747 0.078536286 4.989940131
10.315470145 -0.050109840 -0.124639348 -0.029945135 6.035833839 0.091590097 -0.059250491 0.072858805 4.955827140
9.892710334 -0.046704389 -0.032900435 -0.027910072 6.242032863 -0.027292870 -0.015640061 -0.021711145 5.069038476
9.995956429 -0.068701158 -0.090630744 -0.041055119 6.152932389 0.048330645 -0.043083635 0.038446439 5.046909500
10.023032294 -0.122140879 -0.147365696 -0.072990158 6.106835661 0.019206353 -0.070054040 0.015278420 4.962653004
10.068986264 -0.121143966 -0.141978914 -0.072394413 6.057114824 0.013614232 -0.067493296 0.010829956 4.937244658
9.885476708 -0.041249567 -0.104704241 -0.024650325 6.125666219 0.088177643 -0.049773830 0.070144240 5.068278435
9.913448760 -0.065057613 -0.160044390 -0.038877774 6.175638276 0.075378746 -0.076081181 0.059962873 5.020472930
10.025966333 -0.097464006 -0.054882931 -0.058243508 6.087818105 -0.000372185 -0.026090000 -0.000296069 4.996628478
10.186401645 -0.017442607 -0.015632558 -0.010423526 6.007994469 0.037686415 -0.007431335 0.029979084 5.021560542
10.201409440 -0.021658035 -0.108388532 -0.012942623 6.087215885 0.063457196 -0.051525252 0.050479425 4.983587616
9.968070552 -0.051255133 -0.119406617 -0.030629551 6.182757427 0.091645453 -0.056762979 0.072902840 5.054619849
9.887639716 -0.066709708 -0.163904941 -0.039865049 6.195330273 0.085421758 -0.077916392 0.067951967 5.029788283
10.009363139 -0.080798480 -0.075180524 -0.048284357 6.124680005 0.025917767 -0.035738979 0.020617267 5.026751563
10.201457833 -0.103813148 -0.138227557 -0.062037691 6.002192336 0.021045753 -0.065709993 0.016741640 4.947415372
10.087958847 -0.055982819 -0.113252278 -0.033454769 6.078246708 0.010163513 -0.053837357 0.008084951 4.988235906
10.018777227 -0.060326151 -0.132651921 -0.036050300 6.113888593 0.033377622 -0.063059473 0.026551491 5.004556686
10.212122061 -0.101929359 -0.139221087 -0.060911958 6.002750605 0.023771771 -0.066182293 0.018910154 4.950411152
10.030741614 -0.001591949 -0.002619182 -0.000951333 6.187250766 0.010412632 -0.001245095 0.008283122 5.009021765
9.974478877 -0.054574233 -0.113420838 -0.032613012 6.180657460 0.082416808 -0.053917487 0.065561565 5.057740876
9.951341207 -0.042980923 -0.125572608 -0.025684966 6.175124475 0.112616763 -0.059694141 0.089585261 5.029515103
9.877529670 -0.066919760 -0.163819182 -0.039990574 6.205098553 0.089493294 -0.077875625 0.071190824 5.034920566
10.233738070 -0.054795840 -0.044823430 -0.032745442 6.101328119 0.089911997 -0.021307960 0.071523897 4.928372084
9.931223244 -0.105934819 -0.095869347 -0.063305580 6.219543371 0.004737554 -0.045573938 0.003768667 5.050145044
10.000975638 -0.072816833 -0.085252804 -0.043514605 6.143241306 0.040212111 -0.040527094 0.031988244 5.040770875
10.272343124 -0.087127323 -0.142423304 -0.052066410 6.009477554 0.047197629 -0.067704548 0.037545138 4.964945387
10.307052310 -0.069872336 -0.087831325 -0.041755004 6.003572586 0.012547871 -0.041752859 0.009981678 4.930585593
10.313714344 -0.045993425 -0.122267073 -0.027485207 6.039094226 0.092055920 -0.058122770 0.073229362 4.953903011
10.197745027 -0.021621381 -0.108178196 -0.012920719 6.088032434 0.063482148 -0.051425263 0.050499275 4.984224250
9.976818304 -0.041241601 -0.065749279 -0.024645565 6.027225120 0.067816818 -0.031255596 0.053947452 5.084755939
10.072059064 -0.027282141 -0.106897689 -0.016303533 6.099855495 0.084306943 -0.050816542 0.067065145 4.988007995
10.299827596 -0.035005400 -0.115595910 -0.020918874 6.053513669 0.087143215 -0.054951463 0.069321365 4.951335690
10.025799201 -0.122081112 -0.147272153 -0.072954442 6.103525730 0.018862043 -0.070009573 0.015004525 4.960491122
10.360609396 0.000687361 -0.009070333 0.000410760 6.166867253 0.008978935 -0.004311814 0.007142633 4.951695445
10.006856980 -0.122462345 -0.146609742 -0.073182263 6.126418240 0.021024145 -0.069694679 0.016724451 4.976385433
10.161851431 -0.109960030 -0.135300682 -0.065711006 6.006090811 0.013702989 -0.064318628 0.010900561 4.936019096
9.916351988 -0.040951646 -0.093797097 -0.024472291 6.089416201 0.080464668 -0.044588841 0.064008662 5.075948247
10.274857287 -0.086293018 -0.142380224 -0.051567838 6.009849139 0.048697058 -0.067684070 0.038737916 4.965498603
9.901563625 -0.065852049 -0.162535254 -0.039352521 6.183982659 0.079980738 -0.077265277 0.063623702 5.024350047
9.849014685 -0.040387189 -0.122944540 -0.024134977 6.184559657 0.102149950 -0.058444821 0.081259039 5.057044602
10.194045252 -0.021592315 -0.107984043 -0.012903350 6.088820742 0.063552666 -0.051332968 0.050555370 4.984838172
9.890693984 -0.041155684 -0.102913042 -0.024594222 6.119347887 0.086749221 -0.048922338 0.069007947 5.069971998
9.950008845 -0.042067333 -0.125332195 -0.025139014 6.173245949 0.114835255 -0.059579854 0.091350045 5.026264180
10.072029097 -0.121003031 -0.141530883 -0.072310192 6.054423269 0.013309078 -0.067280313 0.010587209 4.936333313
9.983496104 -0.059967239 -0.103638428 -0.035835818 6.172222992 0.068122654 -0.049267169 0.054190740 5.056255600
9.871299723 -0.041405408 -0.110173940 -0.024743455 6.144202796 0.092583561 -0.052373991 0.073649094 5.063053884
10.068219228 -0.027711418 -0.106896890 -0.016560064 6.100087976 0.085631698 -0.050816162 0.068118972 4.988029514
9.992145099 -0.065842655 -0.094569169 -0.039346907 6.159572318 0.054377082 -0.044955865 0.043256305 5.050577666
10.236357295 -0.096941130 -0.141176221 -0.057931042 6.005182759 0.031196233 -0.067111716 0.024816223 4.956533012
10.023493085 -0.040011764 -0.046920254 -0.023910627 5.997561125 0.059993008 -0.022304739 0.047723706 5.083156961
10.308993043 -0.040672029 -0.119006716 -0.024305194 6.044786165 0.091031211 -0.056572876 0.072414218 4.951696766
9.902034529 -0.026455225 -0.026454949 -0.015809376 6.235655327 -0.030070374 -0.012576034 -0.023920616 5.054833261
9.999140061 -0.122499235 -0.145269879 -0.073204308 6.135838453 0.021664799 -0.069057741 0.017234084 4.983367349
9.957797142 -0.002296872 -0.013679588 -0.001372588 6.216445484 -0.018344376 -0.006502941 -0.014592728 5.038065752
10.283795101 -0.029221415 -0.113494718 -0.017462423 6.063544394 0.079524796 -0.053952608 0.063261005 4.957324716
9.839336980 -0.040599353 -0.131009150 -0.024261764 6.212995601 0.107293850 -0.062278539 0.085350949 5.057604394
9.869171939 -0.041394299 -0.111127303 -0.024736816 6.147272897 0.093334285 -0.052827196 0.074246285 5.062247630
10.293788581 -0.078727390 -0.140635456 -0.047046695 6.014392185 0.062801700 -0.066854649 0.049957987 4.968200320
10.163865512 -0.036068588 -0.026188339 -0.021554225 6.122137515 0.064059540 -0.012449295 0.050958582 4.939635293
10.105136120 -0.055051356 -0.108699367 -0.032898136 6.068836626 0.005076390 -0.051673015 0.004038206 4.983157186
10.081115189 -0.056392999 -0.115066759 -0.033699888 6.082044176 0.012289510 -0.054699917 0.009776155 4.990210297
10.389402787 0.000333832 -0.003909825 0.000199495 6.199492741 0.002994509 -0.001858635 0.002382095 4.947281378
9.981153605 -0.058493453 -0.106186017 -0.034955098 6.174966065 0.071879362 -0.050478230 0.057179156 5.057159384
10.284076002 -0.082959135 -0.141923787 -0.049575543 6.011553049 0.054872445 -0.067467090 0.043650360 4.967271586
10.254655323 -0.024069671 -0.112208320 -0.014383793 6.073197884 0.069517748 -0.053341086 0.055300521 4.970193382
10.012152992 -0.122375490 -0.147133901 -0.073130360 6.119976465 0.020480280 -0.069943851 0.016291813 4.971719874
10.261467268 -0.090466951 -0.142347942 -0.054062138 6.008088902 0.041430503 -0.067668723 0.032957460 4.962430318
9.861620709 -0.064969873 -0.161814008 -0.038825341 6.223547220 0.096208735 -0.076922414 0.076532875 5.046505851
9.836166533 -0.044067205 -0.137534738 -0.026334118 6.230652980 0.108518591 -0.065380644 0.086325216 5.057304809
9.898902217 -0.041028515 -0.100137465 -0.024518227 6.109650947 0.084636016 -0.047602897 0.067326918 5.072292294
9.853250619 -0.061950934 -0.159354222 -0.037021254 6.233081269 0.099850017 -0.075753092 0.079429470 5.052829426
10.054023500 -0.058118271 -0.122538509 -0.034730893 6.096621569 0.021098064 -0.058251804 0.016783253 4.997598863
9.855366348 -0.062898382 -0.160167271 -0.037587439 6.230879573 0.098925578 -0.076139596 0.078694091 5.051425443
10.225034369 -0.052558036 -0.042213591 -0.031408153 6.103521163 0.086850116 -0.020067307 0.069088208 4.928915909
9.852267489 -0.061458516 -0.158905966 -0.036726990 6.234017051 0.100280637 -0.075540002 0.079772024 5.053397948
9.842307767 -0.054523795 -0.151253298 -0.032582871 6.239820572 0.104783306 -0.071902111 0.083353842 5.056252673
10.051279856 -0.121643601 -0.144609908 -0.072692990 6.074507889 0.015630088 -0.068744006 0.012433544 4.944297965
10.314780959 -0.075588352 -0.070423369 -0.045170838 6.086070342 0.108285643 -0.033477544 0.086139908 4.930720440
9.953748828 -0.044397937 -0.125610573 -0.026531760 6.177582606 0.109216376 -0.059712188 0.086880295 5.034618042
9.916031585 -0.064900160 -0.159384523 -0.038783681 6.173918854 0.074372486 -0.075767496 0.059162405 5.019685069
9.936198084 -0.007062710 -0.019749071 -0.004220604 6.224155307 -0.025503168 -0.009388225 -0.020287459 5.043671346
9.837416480 -0.048607963 -0.143623403 -0.029047629 6.237801613 0.107412253 -0.068275046 0.085445137 5.056595752
10.004160049 0.000854551 -0.004721213 0.000510671 6.198236510 -0.000080546 -0.002244349 -0.000064073 5.022011936
9.968152095 -0.062747503 -0.145258144 -0.037497276 6.140916355 0.053157515 -0.069052162 0.042286155 5.009070656
10.332293707 -0.080254353 -0.075977246 -0.047959192 6.081757316 0.109171138 -0.036117721 0.086844308 4.931999784
10.187130111 -0.106135047 -0.136925737 -0.063425235 6.002361993 0.017870230 -0.065091140 0.014215550 4.943167569
9.899174786 -0.066016616 -0.162894310 -0.039450864 6.185787664 0.080906031 -0.077435963 0.064359760 5.025196564
10.211351458 -0.013397294 -0.014914961 -0.008006088 6.023203484 0.034412003 -0.007090207 0.027374329 5.009475767
10.023032168 -0.094832540 -0.057912990 -0.056670970 6.093462345 0.003561356 -0.027530416 0.002833016 5.000946940
10.042883908 -0.030596587 -0.107056707 -0.018284212 6.101825884 0.095707648 -0.050892135 0.076134266 4.989307882
10.091388433 -0.055784193 -0.112346601 -0.033336071 6.076346359 0.009117144 -0.053406821 0.007252577 4.987236767
9.836202591 -0.045246284 -0.139162350 -0.027038723 6.233264476 0.108356342 -0.066154371 0.086196148 5.057082084
10.013976776 0.000324046 -0.003716878 0.000193647 6.194290051 0.003798304 -0.001766913 0.003021505 5.017646047
10.065544986 -0.008789656 -0.003350186 -0.005252610 6.170370858 0.024541011 -0.001592596 0.019522075 4.987160084
10.353381504 -0.085658648 -0.083499185 -0.051188745 6.074062717 0.108337104 -0.039693466 0.086180845 4.934417856
10.386583517 -0.088756975 -0.097799738 -0.053040274 6.045433202 0.082575377 -0.046491599 0.065687705 4.941221820
10.335576086 -0.081121513 -0.077068246 -0.048477398 6.080766422 0.109199535 -0.036636355 0.086866898 4.932290108
10.316123472 -0.071238702 -0.088803171 -0.042571530 6.004898614 0.017344218 -0.042214851 0.013797114 4.930479854
9.894529466 -0.038303632 -0.029303338 -0.022889864 6.240090186 -0.028895877 -0.013930089 -0.022986317 5.063775443
9.951489792 -0.036576310 -0.115540937 -0.021857634 6.143793118 0.131019375 -0.054925330 0.104224314 5.002919784
10.386553766 -0.089055316 -0.097785247 -0.053218559 6.046655818 0.084219083 -0.046484710 0.066995253 4.941358877
9.885465408 -0.066801487 -0.163963762 -0.039919896 6.197305076 0.086286268 -0.077944354 0.068639673 5.030779574
9.936374669 -0.108801032 -0.102255720 -0.065018400 6.214017274 0.007611792 -0.048609863 0.006055088 5.044727924
10.007925748 -0.033809314 -0.107613566 -0.020204105 6.105727913 0.111778333 -0.051156852 0.088918300 4.992531708
9.908543349 -0.020389925 -0.025559317 -0.012184813 6.233012338 -0.030155836 -0.012150273 -0.023988600 5.050968558
10.321988522 -0.077510854 -0.072669789 -0.046319705 6.084470695 0.108791985 -0.034545437 0.086542697 4.931206468
9.912162829 -0.089531221 -0.067877633 -0.053502955 6.235021101 -0.007699340 -0.032267363 -0.006124731 5.066401482
9.895088733 -0.036943150 -0.028844887 -0.022076854 6.239658386 -0.029086535 -0.013712152 -0.023137984 5.062765318
10.385040566 -0.087035328 -0.097538961 -0.052011435 6.039165516 0.074483923 -0.046367632 0.059251052 4.940152311
10.275404263 -0.027219756 -0.113122736 -0.016266252 6.066888731 0.076051295 -0.053775776 0.060497877 4.961404631
9.975562201 -0.055179422 -0.112279016 -0.032974666 6.179971366 0.080747475 -0.053374693 0.064233631 5.057884853
10.357002880 -0.078633936 -0.094268388 -0.046990848 6.016085699 0.044042387 -0.044812881 0.035035182 4.934136986
9.898387994 -0.068408642 -0.046611035 -0.040880315 6.241255950 -0.019244740 -0.022157744 -0.015308956 5.072315890
9.836500512 -0.046531835 -0.140883839 -0.027806956 6.235409887 0.108062885 -0.066972724 0.085962707 5.056862545
10.167786038 -0.037159325 -0.027166257 -0.022206038 6.120767026 0.065526887 -0.012914173 0.052125839 4.938599825
10.159109680 -0.054167333 -0.094122328 -0.032369852 6.042441060 -0.006870453 -0.044743448 -0.005465362 4.965126988
9.894611661 -0.066319170 -0.163436682 -0.039631668 6.189388179 0.082680757 -0.077693794 0.065771534 5.026900445
10.096148713 -0.024854475 -0.106955976 -0.014852784 6.098526773 0.077209883 -0.050844250 0.061419520 4.988603655
10.324389114 -0.000693760 -0.012107493 -0.000414584 6.126499369 0.015771221 -0.005755605 0.012545814 4.962866258
10.242360980 -0.056991083 -0.047491749 -0.034057297 6.099294910 0.092817181 -0.022576413 0.073834935 4.928057997
9.895512220 -0.061890591 -0.041897508 -0.036985194 6.242179421 -0.022187500 -0.019917049 -0.017649886 5.072651940
9.950424797 -0.041319494 -0.078366328 -0.024692113 6.051610391 0.072941282 -0.037253432 0.058023900 5.081043393
10.098920167 -0.033643179 -0.022686746 -0.020104825 5.979473213 0.047418355 -0.010784723 0.037720723 5.059341463
10.010531714 -0.082012178 -0.073658923 -0.049009651 6.121909546 0.023869465 -0.035015647 0.018987868 5.024476178
10.044499708 -0.004006829 -0.002358143 -0.002394441 6.180995987 0.015906223 -0.001121004 0.012653207 5.000871899
10.404954865 -0.000024731 -0.000291600 -0.000014779 6.217180143 0.000152548 -0.000138620 0.000121350 4.946904061
10.247427113 -0.062256382 -0.086044702 -0.037203787 6.006392797 -0.005698545 -0.040903543 -0.004533123 4.940009394
9.955573432 -0.045358645 -0.125398927 -0.027105869 6.178980813 0.106904251 -0.059611577 0.085041028 5.038065135
9.893019197 -0.043855102 -0.031542918 -0.026207367 6.241526090 -0.027927289 -0.014994730 -0.022215818 5.067485993
9.950645037 -0.042520009 -0.125472763 -0.025409529 6.174209198 0.113731448 -0.059646677 0.090471979 5.027869409
10.360927070 -0.087407642 -0.086571260 -0.052233926 6.070419620 0.107199366 -0.041153856 0.085275788 4.935729154
9.997222493 -0.069698014 -0.089303656 -0.041650831 6.150590392 0.046305614 -0.042452769 0.036835551 5.045510539
10.072098890 -0.037122854 -0.029724769 -0.022184243 5.981050970 0.051673202 -0.014130427 0.041105402 5.068720804
9.895718751 -0.035593001 -0.028426521 -0.021270018 6.239203819 -0.029260071 -0.013513271 -0.023276029 5.061739479
10.219332896 -0.058999726 -0.086643633 -0.035257642 6.015326265 -0.008660142 -0.041188260 -0.006889038 4.946699347
10.179679359 -0.040447761 -0.030105557 -0.024171174 6.116790079 0.069983892 -0.014311444 0.055671333 4.935736254
9.920289726 -0.097927600 -0.080502005 -0.058520547 6.229500369 -0.002004687 -0.038268680 -0.001594704 5.060498266
10.005828460 -0.077262798 -0.079620345 -0.046171469 6.132833462 0.032055172 -0.037849561 0.025499498 5.033218812