5.1575776457 0.4534966236 2.4069296822 2.5435558326 4.6945949544 4.9559931504 2.1028437824 1.7048728619 2.4000064845 7.2254128238 1.5456797789 -0.0070901301 7.6141678716 4.6031244444 2.6187464238 0.9279814320 4.7773426459 2.1559841310 3.7997847541 1.6964475102 4.6268820042 8.8028163979 1.5622823098 2.8133698007 5.9385893604 4.5982269276 0.3106467530 1.1365901585 4.7303774762 3.6840046047 3.6245113293 1.5948609342 1.1007810613 8.6223576761 1.5581319701 1.2910442331 6.0601697180 4.7353695583 3.8265229175 4.4356579452 4.6850668767 0.6784533574 0.4364184477 1.5900699082 3.3064081779 5.3179837778 1.6958743693 4.3229401322 9.2814055099 4.6821258812 1.7171752414 1.5994688350 5.9805738489 1.4375441231 3.1967419295 0.4656197923 3.8376201428 8.0979791576 2.7902541990 3.5217836990 6.6587960989 3.3867866762 0.9992321843 8.0321941640 0.3781305359 3.5007072443 6.6577452338 5.8001923658 1.0518851225 1.6637229651 3.5530825727 1.4587170611 3.0618663053 2.8991729304 3.9315283038
5.0114250479 0.1562602718 2.5152516988 2.5828352539 4.7729561696 5.0367368659 2.1954914712 1.6545792561 2.4985299721 7.2564363487 1.5658797436 -0.0321150546 7.6627974852 4.5236709175 2.5597317193 0.9946021112 4.6673698086 2.1836335850 3.8555332161 1.6279412894 4.7379163274 8.8381474425 1.4731717749 2.7819203384 5.9656825084 4.7141456997 0.2391807511 1.1906958130 4.6803784588 3.7109749046 3.7037838155 1.5354819394 1.1947218261 8.6519870862 1.5729554912 1.2636368312 6.1040461018 4.6915912172 3.7812080229 4.4511788441 4.7836647699 0.5912721588 0.4345362854 1.5637315414 3.2063037140 5.3660478275 1.6061657578 4.3797464065 9.3939039509 4.6143137149 1.7671896729 1.7300047662 5.8530221877 1.4532376703 3.1816280088 0.4191585483 3.9705226946 8.0917858401 2.6768531783 3.5073116291 6.6687853326 3.5110486098 0.9583506202 8.1044991315 0.2609477202 3.4499546355 6.6440834489 5.9480510958 0.9584999583 1.6956282021 3.4317071573 1.5112353680 3.1039939810 2.8297377167 4.0864532706
4.9717881612 -0.2406329239 2.4353399315 2.7056206141 4.6108284327 4.8930111228 2.2440156327 1.6566063843 2.4343177761 7.5188735143 1.5273504192 -0.0047704532 8.1251339188 4.5569278093 2.5183272320 1.0182298984 4.5748176520 2.1530654788 4.0669161141 1.6282162975 4.6151302656 9.2699281176 1.5270360714 2.7304336259 6.2566164908 4.4988542649 0.2861968197 1.2213365168 4.5105042320 3.6814192074 3.8726228570 1.5474400620 1.1991557307 9.0216011886 1.4729409558 1.2149405078 6.4691150834 4.5973534739 3.7141943933 4.7315492168 4.5147078206 0.5816101209 0.4111884096 1.5798249381 3.1077810562 5.5652250301 1.5225832126 4.2214103863 9.8951329379 4.4754314243 1.6974638597 1.8262269838 5.7685306611 1.5094593650 3.2991728187 0.4314756050 3.8809698331 8.5436104298 2.7427387681 3.4379839083 6.9599881588 3.2678569982 0.9758275842 8.5172137002 0.3329535043 3.4408908389 6.9370170476 5.7028529432 1.0676341428 1.7627445523 3.3656428247 1.4474508169 3.3843613721 2.8458237764 3.8818645601
5.1155892512 0.0657761935 2.3822690694 2.7824735993 4.5691208690 4.8282028692 2.1870641595 1.6887035565 2.2827587978 7.4693529599 1.4946913418 0.0657675358 8.0083680923 4.6453192569 2.6662827761 1.0074130464 4.6912668605 2.1105135328 4.0174322977 1.5799972843 4.5671737434 9.2197777280 1.6216843068 2.8066856954 6.2173731573 4.4932473937 0.3460660516 1.2855666850 4.5975079951 3.6231296990 3.8126686174 1.5420138106 1.1287725605 8.9163417735 1.5525478310 1.2985305501 6.4063534564 4.6688357363 3.7807363899 4.7048455195 4.5859977266 0.6545428299 0.4350343432 1.7485295062 3.1522134671 5.5412412401 1.5073887788 4.2992176382 9.7879616642 4.6171129331 1.7762241645 1.7154031932 5.9259887451 1.4572926468 3.3300548238 0.3744028709 3.8203777187 8.4688772182 2.8234067817 3.5137085245 6.9100972423 3.2539825413 0.9786119424 8.5197169194 0.4060311997 3.5486308824 6.9193856183 5.6933752015 1.1411656094 1.7770546590 3.4947595668 1.3727314063 3.3256258422 2.8048278902 3.8531665778
4.9315887372 -0.1243720236 2.4368728827 2.6510947978 4.5323418656 4.7977056819 2.1246673598 1.6336112624 2.3189585560 7.3627445236 1.4903264436 0.0122838396 7.8944638160 4.4049913341 2.4647361982 0.9443191356 4.6203537944 2.0842957130 3.9471552517 1.5930044377 4.5755573230 9.0590059833 1.4143258981 2.7328789250 6.1083476714 4.4179209425 0.2303889082 1.1486412445 4.5434816105 3.6083949353 3.8167838617 1.5904613539 1.1644445065 8.8673632476 1.4743593045 1.2087317258 6.2451476162 4.4101281477 3.6518955485 4.5893396588 4.4532010512 0.5759843938 0.4139741103 1.4843126840 3.2165829061 5.4460656325 1.5444672366 4.1758153399 9.6115888147 4.5516876074 1.5250683403 1.7366627847 5.8311287079 1.4419098789 3.2510742367 0.3579838350 3.8547406032 8.3557911024 2.6361525579 3.4472229653 6.8703824206 3.2484062911 0.9555486292 8.2676088428 0.2100398920 3.3742454915 6.7583689987 5.6448020488 0.9881511974 1.7256847943 3.4261376264 1.3854243656 3.2065242683 2.7689051018 3.8378219237
5.1105109230 0.3412593421 2.4059987068 2.5559562206 4.6763292950 4.9329405973 2.0988949151 1.6904373652 2.3847611456 7.2373885799 1.5435632486 0.0004046774 7.6545567049 4.5788114054 2.6058583136 0.9390468460 4.7591740504 2.1336773569 3.8079815705 1.6772501495 4.6101223909 8.8110562211 1.5556145254 2.7993211808 5.9574766443 4.5999021050 0.3123310989 1.1572395462 4.7157055799 3.6547364337 3.6437851159 1.5769581342 1.1013838741 8.6351746104 1.5528810103 1.2725397881 6.0875269763 4.7139085994 3.8018530627 4.4433415438 4.6603609065 0.6623481636 0.4187230502 1.5935108722 3.2746585348 5.3394847084 1.6975674673 4.3142324390 9.3229950383 4.6558510399 1.6875036485 1.6325939751 5.9720837645 1.4239052244 3.2082494820 0.4553688600 3.8248034735 8.1063172394 2.7763159589 3.5172742754 6.6810492254 3.3880869185 0.9863363315 8.0575399604 0.3726068815 3.4991711008 6.6764838429 5.7935324644 1.0590854383 1.6656463256 3.5294034914 1.4469439968 3.0881749954 2.8878893951 3.9343791968
4.9601694448 -0.0368690851 2.4044430959 2.5306608721 4.7326908302 4.8886714435 2.1662964136 1.6456242556 2.4290390578 7.2757940751 1.5236365752 -0.0451574395 7.7275068114 4.4480575971 2.5206075843 0.9433543464 4.6385863823 2.1529498987 3.8574039515 1.6456439430 4.6881277394 8.9144018835 1.4338597867 2.7198954039 5.9699215842 4.6135237413 0.2011774153 1.0864319981 4.6979349131 3.6858615730 3.7724878912 1.5973183381 1.2241280068 8.7378174591 1.5078795005 1.1989526739 6.0882244143 4.5609369781 3.6664769365 4.4819695207 4.6615668120 0.6250599296 0.4347108433 1.5074875423 3.2106252185 5.3418379919 1.6060494868 4.2348736453 9.4196700136 4.5144140700 1.6651974206 1.6975837272 5.8199471273 1.4518492374 3.1542867442 0.4211155345 3.9554498090 8.1992792291 2.6712027126 3.4211003196 6.7095839156 3.4194541637 0.9188526479 8.1258593285 0.2592790431 3.3945061416 6.6711540890 5.8659960561 0.8613893864 1.6774997147 3.4158990201 1.4863681506 3.1117164768 2.8437449156 3.9993352088
5.1779711590 0.2493462102 2.5214938886 2.6952988508 4.6600226988 4.9809386316 2.1459747512 1.6739738797 2.4389890145 7.2549382606 1.6025218652 0.0044942645 7.7214788592 4.6047187786 2.5057689935 1.0715170881 4.7264493858 2.2351355046 3.8944927153 1.6106572509 4.7276064644 8.8429891739 1.5819224745 2.7628896269 6.0253310625 4.7051526471 0.2787843590 1.2515015118 4.6938537254 3.7622321458 3.7114389086 1.6047138574 1.2161070961 8.7199873229 1.5637421774 1.2306410258 6.1689722257 4.7235811830 3.7804907912 4.5409219612 4.7778046705 0.6988003307 0.3945449885 1.5691553626 3.1687347158 5.4114623497 1.5969354492 4.3968009101 9.5073761077 4.6457024301 1.8895855737 1.7779766235 5.9425620204 1.5280871548 3.2264799800 0.3789848945 4.0062828805 8.1033353339 2.7971231033 3.4496455001 6.7823546798 3.4973532943 0.9660986845 8.0689085178 0.3988457666 3.4657554213 6.7628853215 5.9089208755 0.9756938173 1.8063115992 3.5126558088 1.5402749230 3.1805426483 2.8260302689 4.0357126191
5.0507658161 -0.1339046610 2.3958881777 2.7202848032 4.6399725885 4.9487021733 2.2319238027 1.6636328168 2.4972906118 7.5013494840 1.5066524649 -0.0186275773 8.1126621765 4.6252552842 2.5293729341 1.0336048637 4.6401082014 2.2170124088 4.0437042560 1.6472574484 4.6219382454 9.2629392201 1.5520493233 2.7174384464 6.2487659473 4.4832732497 0.3070904101 1.2378033088 4.6008787899 3.7408081444 3.8640096717 1.5757240634 1.2074942303 9.0078702115 1.5308367242 1.1991344861 6.4616153429 4.6192624628 3.7290646892 4.7275278152 4.5753333900 0.6371224344 0.4007011887 1.6260012548 3.1469704992 5.5520672504 1.5540095430 4.2580727805 9.8939054735 4.6159849125 1.8077174983 1.7821665257 5.8384814869 1.5494692967 3.3076432764 0.4213366865 3.9083545135 8.5197158719 2.7645696854 3.4086999655 6.9941220413 3.2926863606 0.9910738365 8.5187954211 0.3595067421 3.4355154417 6.9330852399 5.7071955716 1.0634230640 1.7674921863 3.4221281442 1.5086594459 3.2872341439 2.8358887815 3.9158181953
4.9134352553 -0.2584540162 2.4713392768 2.7136468150 4.5788158001 4.8368206417 2.2223966797 1.6261859010 2.3642065668 7.4858926222 1.5452181518 0.0249348255 8.0784895710 4.5075591675 2.5091205456 1.0156235717 4.5368970547 2.1037379484 4.0614179886 1.6047491512 4.5933789773 9.2351871553 1.4972539155 2.7293535415 6.2169881607 4.4895902266 0.2674366231 1.1938817597 4.5020780897 3.6332326652 3.8935101123 1.5247219700 1.1830799298 8.9753712810 1.4863029634 1.2145980788 6.4354658137 4.5509973107 3.6838224950 4.6975786276 4.5121517462 0.5562430942 0.4244126275 1.5463648675 3.0976235405 5.5557223274 1.4849590538 4.2283184479 9.8426868845 4.4518115327 1.6607099977 1.8241732540 5.7414064151 1.4678107167 3.2654157932 0.4145799526 3.8823622841 8.5075259687 2.7128583320 3.4490384846 6.9347198154 3.2763197222 0.9594562671 8.5002653928 0.2958200012 3.4442579045 6.9110660796 5.6910315729 1.0447309068 1.7814173116 3.3443171418 1.3767990284 3.3740566084 2.8287331628 3.8728042882
5.0128125597 -0.2031939421 2.4119289646 2.7058908908 4.6289554013 4.9244475360 2.2448347854 1.6666406616 2.4749984841 7.5183215236 1.5152949650 -0.0178329024 8.1303547585 4.5923612487 2.5243326640 1.0199196875 4.6017703019 2.1929792528 4.0642222193 1.6412421261 4.6223429204 9.2813253883 1.5390945202 2.7235280940 6.2586273164 4.4848652787 0.2948966935 1.2394992953 4.5457952183 3.7156144612 3.8642173201 1.5649817818 1.1932267708 9.0230071554 1.4930253284 1.2065952545 6.4795281517 4.6192532304 3.7176834068 4.7412740157 4.5513225873 0.6177742805 0.4040286007 1.6055699715 3.1285583485 5.5559872382 1.5357591344 4.2372106387 9.9080433024 4.5368185036 1.7419103148 1.8031745752 5.8014589369 1.5279552075 3.3095723891 0.4350994913 3.8972289653 8.5411246316 2.7589916890 3.4251741598 6.9823248361 3.2826677082 0.9917837599 8.5187865515 0.3478138991 3.4440569527 6.9338184132 5.7095910791 1.0738598321 1.7621845999 3.3885192951 1.4829470352 3.3395859113 2.8440117431 3.8942271127
4.9460577031 -0.1081012319 2.4401825973 2.6834452597 4.5159924559 4.8235882202 2.1244242843 1.6503082618 2.3110579644 7.4151449574 1.4792089238 0.0280165809 7.9729752061 4.4368944154 2.4676594800 0.9710575386 4.6433768710 2.0898015981 3.9695722115 1.5667836341 4.5635190754 9.1215701209 1.4330932012 2.7498698696 6.1335468937 4.4124938754 0.2644668381 1.1666782657 4.5426118694 3.6084256839 3.8168166977 1.5823953657 1.1365897587 8.9074243043 1.4958792157 1.2270514173 6.3098891291 4.4291475142 3.6901779561 4.6301630284 4.4399328589 0.6252896538 0.4107549255 1.5327872439 3.2269416063 5.4747959620 1.5268786375 4.1846381546 9.6860271928 4.5941858030 1.5872485358 1.7290854835 5.8393459100 1.4205075650 3.2698600305 0.3338221107 3.8650353142 8.3811652342 2.6549998093 3.4388757451 6.8736480955 3.2226002917 0.9777067931 8.3493952545 0.2390055172 3.4268842737 6.7877621240 5.6466277802 1.0371260665 1.7008383055 3.4224075853 1.3697159423 3.2355130365 2.7587152076 3.8238658285
4.9514826876 -0.1150057347 2.3976748733 2.5773485419 4.6378022814 4.8113339990 2.1397892269 1.6337470863 2.3701116442 7.2919335514 1.5076188700 -0.0250172660 7.7707010549 4.4088914253 2.4852398022 0.9422940425 4.6332454969 2.0971685413 3.8936554648 1.6390889368 4.6163554756 8.9684636698 1.4178434542 2.6997676768 6.0350127890 4.5147532479 0.1972322388 1.0503078511 4.6230906040 3.6413350124 3.8184633669 1.5935924815 1.1969711767 8.7939122880 1.4661909499 1.1764283904 6.1274939069 4.4859464942 3.6239131625 4.5298590048 4.5432309156 0.5771590188 0.4269940699 1.4708271861 3.2053101437 5.3876833701 1.5757398925 4.2110952530 9.4860850929 4.4718112260 1.5835045490 1.7476057826 5.8319409189 1.4463220005 3.1783350332 0.4098421687 3.9216820300 8.2878516327 2.6503560851 3.4290123150 6.7810488285 3.3451746210 0.9331439245 8.1604802341 0.2390146588 3.3618025181 6.7176889164 5.7665276726 0.8668585981 1.7016091475 3.4169517733 1.4356971100 3.1363548789 2.8151510722 3.9063280274
4.9379941086 0.0794076490 2.5019290766 2.5762278052 4.7683130693 5.0382720831 2.1564507544 1.6366879350 2.3518949436 7.2928088035 1.6192434564 0.0469863053 7.7279981851 4.6097980873 2.5690017383 0.9625085365 4.6975980849 2.2244404021 3.9075978514 1.7406357012 4.6989724975 8.9106583180 1.5245769346 2.8102426034 5.9943595507 4.6661850430 0.3414415677 1.1496567810 4.6679146608 3.7484942677 3.7700076379 1.5617342838 1.1807105898 8.7014330084 1.6111676328 1.2886317963 6.1655589629 4.7085370542 3.8650637219 4.4945565683 4.7527247732 0.7503607644 0.4600005100 1.5786673054 3.2029880987 5.4188673870 1.6077487844 4.3281987228 9.4241503497 4.6691215224 1.7690030874 1.7204420148 5.9107850220 1.5536061753 3.1634257913 0.5543693406 3.9404671135 8.1705488532 2.7323431545 3.5411244420 6.7088024844 3.4569110196 1.0438937982 8.2039642860 0.2885847695 3.4408661526 6.7293959735 5.8786076231 1.0607705250 1.6589249580 3.4936330077 1.4615769840 3.2441535439 2.9851326606 4.0454224270
4.9634134446 0.0301945630 2.5118277576 2.5960815796 4.7327344480 5.0252066574 2.1698692374 1.6319099977 2.3540037234 7.3098438013 1.6022064473 0.0275840405 7.7284598365 4.5636071477 2.5607476523 0.9614801654 4.6894995384 2.2093883845 3.9222047230 1.7186177904 4.7101871016 8.9320551878 1.4956613154 2.8089352523 5.9918627053 4.6724651505 0.3184917625 1.1456479741 4.6413659445 3.7344665505 3.8030296007 1.6077364751 1.1891608628 8.7387873824 1.5761277865 1.2795731097 6.1439891003 4.6644676967 3.8561241782 4.4978475386 4.7028808293 0.7277635512 0.4598680627 1.5465640397 3.1924712333 5.4236992639 1.6001222794 4.3361980926 9.4467510763 4.6238832044 1.7935286037 1.7249417312 5.8994649648 1.5430219653 3.1756863685 0.5191793271 3.9663092573 8.2140339330 2.6913279944 3.5590308709 6.7367489778 3.4632300115 1.0193461702 8.1958184441 0.2661923286 3.4419764790 6.6760278352 5.8857648181 1.0658362492 1.6489870978 3.4779821731 1.4598917323 3.2541486555 2.9715104185 4.0680367196
4.9379750760 0.1263786256 2.4720886552 2.5740577149 4.7770543671 5.0113997774 2.1393225987 1.6307368546 2.3474908299 7.2540301589 1.6301382359 0.0699903083 7.7224003060 4.6526191993 2.5998676916 0.9822504251 4.6917042250 2.2129829027 3.8763259842 1.7399702352 4.6429360599 8.8818307768 1.5587382554 2.8075882890 6.0100394072 4.6353214182 0.3625558988 1.1771904523 4.7011294868 3.7341572052 3.6990094607 1.5444286880 1.1356768054 8.6848783016 1.6394648481 1.2806335930 6.1614621472 4.7444230667 3.8643619241 4.5163641603 4.7956909339 0.7074402755 0.4427841371 1.6405634196 3.2371673874 5.3904807066 1.6239825764 4.3204109236 9.4451374455 4.6835341822 1.7144861020 1.7306400979 5.8959676313 1.5233878180 3.1411151344 0.5496411554 3.8792998309 8.1393634250 2.7708080447 3.4979139987 6.6578418190 3.3937074340 1.0812942397 8.1960368740 0.3235384075 3.4770730379 6.7863505616 5.8196921215 1.0746491968 1.7178266491 3.4828286618 1.5004135510 3.2322919164 2.9977276531 4.0081116105
4.9206050227 -0.1474023068 2.4835598526 2.6916230936 4.6006421698 4.8173367595 2.1593540684 1.5841400201 2.2942239188 7.3509532221 1.5499776051 0.0538538615 7.9096968793 4.4994158100 2.5264409564 0.9992863466 4.6116335506 2.0822102901 3.9487104128 1.5929787709 4.6110292280 9.0760397913 1.4969015710 2.7759274237 6.1074875625 4.5626841095 0.2778992641 1.2090504914 4.6059081594 3.6018133163 3.8209687277 1.5888955620 1.1712204783 8.8649813134 1.5315362955 1.2476239248 6.2646139629 4.5165915939 3.7255061469 4.5900467344 4.6003542979 0.6168297873 0.4552034836 1.5794204609 3.1926750245 5.4531069964 1.4980132539 4.2207067104 9.6248136768 4.5730093594 1.6598224813 1.7507010020 5.8142460861 1.3764196232 3.2121296811 0.3764995964 3.9112642905 8.3228561755 2.6906052204 3.4913801502 6.8224898788 3.3628988039 0.9995961458 8.3603276218 0.2720667151 3.4578544582 6.7961704331 5.7848998549 0.9978283046 1.7365898625 3.3992269087 1.3979631086 3.2422794541 2.8027617656 3.9169062712
5.0883603943 0.0042909868 2.4004946576 2.7547479273 4.6386386081 4.9633633597 2.1888662331 1.6367255026 2.4791692297 7.4570924549 1.5173771445 -0.0028803945 8.0493354663 4.6530728737 2.5387863777 1.0476919865 4.7191641020 2.2440074696 4.0074314158 1.6302807581 4.6571626212 9.1915327934 1.5789091667 2.7223132584 6.2183816579 4.5013257884 0.3109755266 1.2446183903 4.6754012379 3.7647800715 3.8526382953 1.5668323022 1.2521723388 8.9830901378 1.5737218256 1.1942130441 6.3892112650 4.6160897712 3.7032863968 4.7032969153 4.5630940285 0.6460358215 0.3948181434 1.6418406688 3.1377248410 5.5053226587 1.5860128646 4.2629080739 9.8375653410 4.6933558473 1.8628341715 1.8194833225 5.9104953371 1.5619844937 3.3068818950 0.4129166161 3.9139006676 8.4329017708 2.7809572636 3.4179196119 6.9396127489 3.3021773929 0.9734108626 8.4584093551 0.3578296013 3.4150041329 6.9402048636 5.7292738835 1.0492417609 1.7676482395 3.4911961601 1.5341547197 3.2541184331 2.8203119191 3.9545424593
5.0948782598 -0.0088240373 2.3779856237 2.7536175667 4.5566447649 4.8499810347 2.1723818418 1.7121822967 2.2905115640 7.4953256947 1.4718951764 0.0642943797 8.0416257963 4.5867891580 2.5984499539 1.0090232820 4.6811410075 2.1375274042 4.0025116075 1.5622131967 4.5743726103 9.2348694016 1.5944346303 2.7971549353 6.2064395721 4.4783171049 0.3501682743 1.3270264901 4.6299602444 3.6389528451 3.8111572406 1.5593492287 1.1338190713 8.9634884268 1.5034604210 1.2827727895 6.3826379353 4.6512965576 3.7982596022 4.6752465870 4.5198275816 0.6694868139 0.4403194315 1.7190650797 3.1705808216 5.5222855363 1.4852618720 4.2688017717 9.8040337172 4.6275400306 1.7661256542 1.7540551479 5.8846930506 1.4634240280 3.3105178520 0.3439579268 3.8300194822 8.4725799763 2.7965228997 3.4908270159 6.9062534958 3.2694446879 1.0561436418 8.5397322794 0.3804086911 3.5391011929 6.9134556944 5.6796117098 1.1364888968 1.6978238735 3.4597205544 1.3669655148 3.3058282036 2.7708197157 3.8250521456
4.9798498439 -0.0291017903 2.4581014788 2.6507528939 4.6220293371 4.8586090025 2.1298634199 1.6127963778 2.3156928746 7.3084122950 1.5465422146 0.0407841225 7.8270078250 4.5168412588 2.5556563449 0.9857255712 4.6614086908 2.0944937549 3.9062482865 1.6221492948 4.6179009176 8.9798287801 1.5094013871 2.7888130772 6.0498783439 4.5750847082 0.2806691438 1.1878913613 4.6884801867 3.6203736211 3.7645422895 1.5650418621 1.1478707321 8.7768481918 1.5368037924 1.2662665008 6.2133304132 4.6022495285 3.7618193217 4.5453027550 4.6296198444 0.6467924198 0.4446038311 1.5987632154 3.2355127814 5.4135943166 1.5569662007 4.2620287625 9.5201867154 4.6044830441 1.6620139726 1.7285994682 5.8615067260 1.3884232161 3.2018845700 0.3999834563 3.8948666322 8.2336004785 2.7223801350 3.4938922900 6.7695339095 3.3864285677 1.0227600497 8.2395585041 0.2963385457 3.4690474499 6.7384921657 5.8104402827 1.0022524842 1.7142984044 3.4479302011 1.3802102718 3.1786585702 2.8251751966 3.9207976111
5.1024809994 0.1326335115 2.4099132779 2.7745867335 4.5794207383 4.8114234442 2.1607876416 1.6307994423 2.3033979757 7.4217065007 1.5327906371 0.0505743855 8.0157727893 4.6782297854 2.7012917111 0.9921978265 4.6906142824 2.1236316183 4.0074369435 1.6134767697 4.5972685253 9.1423982819 1.6372851348 2.8193774947 6.1781395369 4.5054566887 0.3287381128 1.2553459647 4.6033997219 3.6410447064 3.8238352950 1.5298921673 1.1404116975 8.8749903905 1.5753701118 1.3111227920 6.3409341795 4.6720186082 3.7721276081 4.6743815238 4.6180102369 0.6569000917 0.4267090496 1.6812251710 3.1731449922 5.5201659608 1.5219030231 4.2522016676 9.7062613478 4.5928892265 1.7512308712 1.6323694847 5.9472648706 1.4348018625 3.2928217377 0.4167065297 3.8471455584 8.3731296543 2.8035604564 3.5538468803 6.8468778293 3.2469873126 0.9478518883 8.4490844195 0.4073944758 3.5534899254 6.9306271798 5.6858541229 1.0853779491 1.8175516976 3.5456904624 1.3859363965 3.3373207883 2.8307504090 3.8744606015
5.7503886739 1.2162279062 2.2359230995 2.8692754868 4.6694492362 4.8996156912 2.1917817603 1.5635656735 2.4378802099 7.5982054237 1.5912603419 0.0001086197 8.1272570417 4.6589266842 2.5433324437 1.1014476993 4.6563346059 2.1865230435 4.0351925140 1.5913538784 4.6615418868 9.2709670206 1.5572555408 2.7552211030 6.2785815586 4.6579019572 0.3250429820 1.3830602848 4.6728679022 3.7057125143 3.7812324455 1.5723656927 1.2532143711 9.0740228570 1.5661096718 1.2298982375 6.5475095745 4.6669390590 3.7469826186 4.7681216328 4.6957408163 0.5952423488 0.3715721063 1.5283792799 3.0919013108 5.5648002673 1.5675437908 4.4222840266 9.9706076425 4.6502592816 1.9291877385 1.8124807501 5.8628824842 1.4639760452 3.3559125478 0.3822038986 3.9449964056 8.5044074221 2.7591598673 3.4417806367 6.9902866943 3.4314083241 1.0437106014 8.5052990448 0.3681791154 3.4307361537 6.9883915470 5.8988777428 1.0184400971 1.8279504046 3.4357983191 1.5188007755 3.3224953425 2.7964722009 3.9448899064
5.6705417934 1.1234816861 2.2883288879 2.7684315998 4.5878025032 4.9900445140 2.1923269432 1.5047131566 2.5247150715 7.4539846667 1.4989465191 -0.0031232228 7.9148574864 4.4946678717 2.6002685591 1.0420129423 4.4828300525 2.2298039386 3.9457446543 1.6066703506 4.7777762861 9.1052718725 1.4910265533 2.7563492974 6.1189245751 4.5030560863 0.3468200666 1.2437956815 4.5760680616 3.7504367980 3.7549287351 1.5231830795 1.2697310522 8.9288324710 1.5296992356 1.2302138070 6.3349757206 4.5111587439 3.8482284672 4.6049527309 4.6053114393 0.6724988998 0.3972229793 1.4616795823 3.1926817990 5.4734614222 1.5864301198 4.4701369539 9.7147888478 4.4219433260 1.8970646393 1.7742488082 5.6800117985 1.4901272782 3.2266113683 0.4130149919 4.0077480450 8.3572327737 2.6851590010 3.4922491817 6.7896344186 3.2929283738 1.1102570373 8.2740275038 0.2978286089 3.4116089547 6.8871055404 5.7086714186 1.0418004768 1.7701777991 3.2677793273 1.5230452464 3.2551200401 2.8171247523 4.0745722929
4.9580294206 0.1323513214 2.4570205102 2.5903323026 4.7683791686 5.0008652817 2.1303502632 1.6246459656 2.3516187136 7.2409056325 1.6293578748 0.0749839986 7.7318313399 4.6626980932 2.6241354652 0.9963254746 4.6888535394 2.1995366051 3.8567842502 1.7354740872 4.6220200889 8.8826263635 1.5713164982 2.8127280734 6.0197453194 4.6175279430 0.3719188745 1.1755311260 4.7130798892 3.7251480113 3.6795890822 1.5557202808 1.1349415486 8.7054237741 1.6286969819 1.2839970168 6.1641017550 4.7374650345 3.8465769184 4.5193383936 4.7992255907 0.6872678034 0.4436568868 1.6634403941 3.2550116563 5.3812558434 1.6254993474 4.3201132440 9.4446640029 4.6654114542 1.7153804454 1.7459339758 5.8950473846 1.5061485977 3.1382828004 0.5382147363 3.8526448239 8.1286745173 2.7885538911 3.5085851714 6.6308627236 3.3710789973 1.0856832776 8.1930322948 0.3447226026 3.4939994909 6.8005596229 5.7918473169 1.1101688356 1.7500545331 3.4686569932 1.5248768733 3.2303664290 2.9995150095 3.9954290686
4.9501799640 -0.1185112734 2.3995234340 2.5825265344 4.6294427626 4.8077554021 2.1384016913 1.6327295037 2.3656819663 7.2941484465 1.5064982294 -0.0228202413 7.7758847590 4.4061997671 2.4830403787 0.9422971460 4.6332120635 2.0927107427 3.8972925911 1.6368809329 4.6107746019 8.9725844420 1.4162420270 2.7000908794 6.0384598361 4.5052634068 0.1996233777 1.0527972617 4.6159469077 3.6376877670 3.8194344682 1.5926902391 1.1952875987 8.7991734990 1.4636407672 1.1777921421 6.1328183943 4.4800526507 3.6217369886 4.5344545365 4.5354369393 0.5718610854 0.4254191057 1.4687405121 3.2053053205 5.3929352402 1.5725459658 4.2096297534 9.4923761523 4.4727037910 1.5768435509 1.7480342903 5.8306253490 1.4482753686 3.1827636428 0.4091810770 3.9185811044 8.2932339024 2.6493670589 3.4323814905 6.7892666556 3.3385360366 0.9349879818 8.1659139787 0.2361160771 3.3595566859 6.7212323728 5.7574823716 0.8717928990 1.7043582666 3.4165647707 1.4325552347 3.1387309091 2.8119898284 3.9002552331
5.1994112287 0.2411017611 2.4981589045 2.7716556868 4.6217073687 4.9771382673 2.1386323842 1.6550700019 2.4097185570 7.3117078017 1.5996846653 0.0267625825 7.8376601760 4.6306341659 2.5367955992 1.0794456542 4.7518719670 2.2685727903 3.9306450944 1.6117261501 4.7454730436 8.9300852686 1.6091686638 2.7794469626 6.0743271593 4.6475248649 0.2887554941 1.2462006049 4.7381049839 3.7931169129 3.7848198975 1.6405046611 1.2686421375 8.7932841094 1.5749963745 1.2433737553 6.1839638129 4.6791344146 3.7535411513 4.5889082815 4.7111729259 0.7424131186 0.3825336919 1.6221682619 3.1973450619 5.4372928836 1.5970016429 4.3734794746 9.6127676829 4.7208234123 1.8892981069 1.7829631002 5.9633280444 1.5363581116 3.2594104305 0.3958770517 4.0083105391 8.1829169925 2.8386532858 3.4230019878 6.8188762346 3.4331373476 0.9323125158 8.1142822834 0.4231099850 3.4435952109 6.8354400556 5.8379962246 1.0114712445 1.8464925506 3.5420418326 1.5891591118 3.2031634409 2.8149248640 4.0399596168
5.1143670349 0.0839102997 2.3877764524 2.7854085718 4.5705644351 4.8229118975 2.1858259795 1.6776333773 2.2848127710 7.4596124540 1.5027074164 0.0628623870 8.0064056532 4.6552512553 2.6777110750 1.0038388026 4.6944012723 2.1107852615 4.0229624293 1.5897907331 4.5717213655 9.2063675110 1.6253493592 2.8102714336 6.2183686476 4.4935233395 0.3412332211 1.2731831887 4.5901499970 3.6269684459 3.8144324831 1.5341107230 1.1295432366 8.9087057671 1.5615080167 1.3009273303 6.4014785157 4.6696258737 3.7820507444 4.6966784238 4.6000842594 0.6525359263 0.4356546007 1.7397209484 3.1525867020 5.5437958256 1.5104243391 4.2973241251 9.7708199668 4.6133358521 1.7715900290 1.7005448891 5.9330069355 1.4468413494 3.3262153418 0.3788383267 3.8240010612 8.4534795493 2.8249444222 3.5223696401 6.9061720960 3.2483862905 0.9605793710 8.5102599473 0.4080898643 3.5483204943 6.9214460003 5.6948575406 1.1283879530 1.7970378856 3.5069972886 1.3687183448 3.3262566434 2.8133149929 3.8566322884
5.0206677180 -0.1921911032 2.4078132428 2.7073871717 4.6316161702 4.9300539472 2.2434438259 1.6671732721 2.4814625756 7.5160983501 1.5130011149 -0.0192007396 8.1285541424 4.5989709404 2.5253287046 1.0215909592 4.6084961080 2.1998950484 4.0613603709 1.6437369911 4.6219622001 9.2810198779 1.5408514891 2.7228004157 6.2583241939 4.4815167029 0.2986695292 1.2400898301 4.5554804863 3.7196439391 3.8636156024 1.5678187481 1.1939381593 9.0205199651 1.4994507506 1.2030897035 6.4790947827 4.6210522729 3.7172215925 4.7393785164 4.5582702600 0.6239980832 0.4014542325 1.6102201874 3.1330342648 5.5555601215 1.5383604994 4.2416618595 9.9089813501 4.5518164375 1.7538233794 1.7965508898 5.8063939950 1.5329896225 3.3096696259 0.4332630194 3.9004423131 8.5385550036 2.7604582812 3.4218564219 6.9853225020 3.2875760897 0.9922689907 8.5195919885 0.3514751800 3.4432594650 6.9324280342 5.7083852524 1.0726321094 1.7631598740 3.3939307927 1.4885804776 3.3284423214 2.8423413391 3.8981771366
4.9965388771 0.0094845625 2.4493968519 2.6367121833 4.6270198301 4.8692703087 2.1228084754 1.6225896391 2.3230467376 7.2987118959 1.5456476658 0.0361321387 7.8048058023 4.5217313865 2.5630120827 0.9810325877 4.6726718833 2.0984950225 3.8911914425 1.6282688488 4.6194197555 8.9521876524 1.5124106038 2.7936469622 6.0408887198 4.5776560835 0.2875682815 1.1849593440 4.7020183538 3.6221358027 3.7471518644 1.5581145558 1.1462973716 8.7534826916 1.5404696568 1.2684119167 6.1951300471 4.6246414186 3.7644836137 4.5315077132 4.6340149166 0.6497574795 0.4371906511 1.6019407994 3.2390920368 5.4066318876 1.5777346275 4.2699146994 9.4946182632 4.6079354077 1.6605466387 1.7222009177 5.8764436669 1.3941910797 3.2036723101 0.4128675040 3.8819090347 8.2140392951 2.7307178332 3.4904290824 6.7556344603 3.3843594749 1.0218350310 8.2080952319 0.3052098661 3.4722294604 6.7212445851 5.8118622787 1.0066836045 1.7061717839 3.4605633659 1.3805624238 3.1669548156 2.8282337605 3.9185850847
5.1021208799 0.0620602773 2.4109446170 2.7685468512 4.6281875512 4.9600246426 2.1701418612 1.6232234339 2.4586801074 7.4350676553 1.5282355969 0.0054574528 8.0142404181 4.6518674812 2.5429428950 1.0568089846 4.7499470788 2.2515667919 3.9952637557 1.6254572984 4.6704026234 9.1464069238 1.5832591623 2.7250565667 6.2028260571 4.5092201999 0.2917482766 1.2573992144 4.7005149471 3.7714645514 3.8373979061 1.5570112944 1.2721165494 8.9690739636 1.5805105692 1.1974339833 6.3561873902 4.6265447933 3.6925143304 4.6925822931 4.5618848892 0.6629005436 0.3943868441 1.6446311014 3.1324981880 5.4976170895 1.5853697483 4.2620656053 9.8063093757 4.7077130999 1.8566428788 1.8330653722 5.9223056098 1.5712497740 3.3010200993 0.4037638424 3.9238330083 8.3879749549 2.7779260051 3.4272372377 6.9078430516 3.3023485904 0.9736910749 8.4116286879 0.3704984788 3.4077410200 6.9240142471 5.7280785291 1.0326240216 1.7702680317 3.5205552386 1.5412217647 3.2419193621 2.8144833556 3.9753155564