-28927.710446682
-28927.7690410609
-28927.7465010668
-28927.7730566427
-28927.830347597
-28927.7775172666
-28927.8225689548
-28927.7981505599
-28927.7584348852
-28927.7881424902
-28927.748679201
-28927.8390930592
-28927.8418488907
-28927.7882875268
-28927.7815280864
-28927.8114433141
-28927.8864695509
-28927.8330275088
-28927.7702782258
-28927.9334799135
-28927.8005218947
-28927.3812915568
-28927.5118424578
-28927.8164412264
-28927.8422698506
-28927.7985579141
-28927.7721699603
-28927.7469629798
-28927.9344723122
-28927.8409458814
-28927.5846930094
-28927.9326042516
-28927.8384221629
-28927.7487106301
-28927.8375463649
-28927.8299289501
-28927.7920825605
-28927.8413194935
-28927.83402603
-28927.4303641331
-28927.8721731053
-28927.4686305302
-28927.7678120594
-28927.8078436581
-28927.823813875
-28927.5685551705
-28927.5108276097
-28927.7925655623
-28927.8340801806
-28927.9108668569
-28927.5136633066
-28927.7726077912
-28927.834100181
-28927.8009044866
-28927.7974455133
-28927.4585775617
-28927.8260785413
-28927.7823995305
-28927.5168415946
-28927.8426702659
-28927.7960682098
-28927.4874601179
-28927.7906270243
-28927.775053277
-28927.4538792466
-28927.5320795536
-28927.9204907022
-28927.5231881024
-28927.5130215264
-28927.8629242327
-28927.8075378023
-28927.745443497
-28927.5287140514
-28927.7914262222
-28927.8097287257
-28927.8420503909
-28927.3761564992
-28927.7752508316
-28927.5104280108
-28927.3893600001
-28927.5295684884
-28927.7920983431
-28927.7445187185
-28927.8003782187
-28927.7960555565
-28927.378087418
-28927.7720495499
-28927.8094522582
-28927.8316540149
-28927.7432557028
-28927.7991278563
-28927.7682243116
-28927.7802584039
-28927.8095888593
-28927.5178135847
-28927.8075758982
-28927.5105403937
-28927.814099552
-28927.7968705371
-28927.8161764598
-28927.5809107651
-28927.5241477114
-28927.8077778065
-28927.4787135673
-28927.7813222324
-28927.8662894629
-28927.7893893151
-28927.7868699505
-28927.8340018119
-28927.8077146762
-28927.4520949971
-28927.780327929
-28927.5245654059
-28927.6649208356
-28927.849991621
-28927.9336083512
-28927.8128513665
-28927.8072206537
-28927.8163537419
-28927.8155335912
-28927.8078325014
-28927.8168532066
-28927.5392882537
-28927.4559515285
-28927.8576958401
-28927.5336556361
-28927.7800774483
-28927.8095899477
-28927.7739064538
-28927.7694240609
-28927.7993624183
-28927.8398028678
-28927.8432108198
-28927.5301048245
-28927.8134472955
-28927.8343390968
-28927.509030843
-28927.8050996635
-28927.7889057691
-28927.757601537
-28927.8223192905
-28927.8379603859
-28927.9184788295
-28927.9324887394
-28927.8394447662
-28927.7998124943
-28927.7845505893
-28927.8074114054
-28927.7311075949
-28927.8358621172
-28927.7893557091
-28927.8072445997
-28927.805445384
-28927.7929750934
-28927.7752644372
-28927.804540742
-28927.5152698659
-28927.8023129471
-28927.7734415476
-28927.8403809733
-28927.3965514209
-28927.8327219251
-28927.8300731704
-28927.5351401524
-28927.8034452122
-28927.787321115
-28927.5094556125
-28927.8038230421
-28927.5310852501
-28927.808659727
-28927.8431725878
-28927.7794374369
-28927.5251357562
-28927.8035759628
-28927.7923428372
-28927.8343216815
-28927.5137744651
-28927.7749491935
-28927.7845349428
-28927.8283961336
-28927.8001565821
-28927.7740933959
-28927.5179859688
-28927.5237247106
-28927.7874000279
-28927.8171425995
-28927.9052781858
-28927.922263795
-28927.3798908515
-28927.7791479079
-28927.7959286155
-28927.7897442875
-28927.8356370792
-28927.8144856813
-28927.676926492
-28927.5426631438
-28927.5326011956
-28927.6381988622
-28927.9316590647
-28927.6479597166
-28927.8320770156
-28927.6339515755
-28927.588760429
-28927.8424962492
-28927.8202148992
-28927.8056528707
-28927.8191010018
-28927.7958054841
-28927.5633852823
-28927.7959941949
-28927.9015311802
-28927.8013200042
-28927.8349103995
-28927.7823301416
-28927.4956974078
-28927.8341692979
-28927.8095589268
-28927.916223007
-28927.5492550982
-28927.7960263043
-28927.8135572294
-28927.775280628
-28927.7475662559
-28927.7971430589
-28927.7907218559
-28927.777846116
-28927.8076172595
-28927.7482718467
-28927.7524041654
-28927.7988607767
-28927.8066505755
-28927.7886773296
-28927.8133779065
-28927.7703248933
-28927.7788119835
-28927.7430569238
-28927.7787522546
-28927.7834998223
-28927.7547067915
-28927.7691040552
-28927.5553315331
-28927.8179845193
-28927.8681843266
-28927.7728643944
-28927.7946404292
-28927.4491776661
-28927.839030337
-28927.7669363975
-28927.52595373
-28927.5110559131
-28927.8246021884
-28927.8062860792
-28927.4067506505
-28927.8297353412
-28927.8039197785
-28927.7724652036
-28927.8079914158
-28927.7666849644
-28927.8014635442
-28927.5152172119
-28927.7796276444
-28927.8474390585
-28927.8203150371
-28927.7750573587
-28927.8153594384
-28927.7698544087
-28927.8267444035
-28927.7725481983
-28927.8020411055
-28927.7257914456
-28927.807853046
-28927.8073764388
-28927.5163625384
-28927.7971153033
-28927.8615363168
-28927.8095285861
-28927.7784068062
-28927.8283411667
-28927.7852895141
-28927.7918097665
-28927.7927888316
-28927.7963022276
-28927.5204740404
-28927.8056500135
-28927.839499461
-28927.8070473173
-28927.8822230805
-28927.897804447
-28927.4573327776
-28927.3853834665
-28927.7483673587
-28927.7740865931
-28927.7689402428
-28927.8069313969
-28927.7661040017
-28927.7428814104
-28927.7507337954
-28927.7656686198
-28927.8023883226
-28927.5168045872
-28927.7732543333
-28927.8418126996
-28927.8070535759
-28927.768955073
-28927.5140956953
-28927.7486514453
-28927.8317702074
-28927.4525005826
-28927.799885965
-28927.7900468779
-28927.5209736411
-28927.9228461183
-28927.8187261652
-28927.4936473032
-28927.7568885991
-28927.6888754127
-28927.7944138946
-28927.9350464721
-28927.8091473548
-28927.8000286887
-28927.7440932688
-28927.8402756653
-28927.4591372996
-28927.8393236756
-28927.5120850472
-28927.5608031954
-28927.770920142
-28927.7922760333
-28927.5289603143
-28927.885364225
-28927.799603375
-28927.7471387653
-28927.8579479535
-28927.7652173192
-28927.8423437295
-28927.8220565647
-28927.7836851317
-28927.3904875032
-28927.7803573172
-28927.7971543517
-28927.787472002
-28927.3870700272
-28927.812948375
-28927.8344378741
-28927.7809589606
-28927.8079116865
-28927.8741942298
-28927.7452100234
-28927.5096413301
-28927.7205533929
-28927.798483355
-28927.5581338961
-28927.8380847419
-28927.7753271595
-28927.7719115883
-28927.7981989962
-28927.8342132442
-28927.8082602641
-28927.7997319487
-28927.8221958869
-28927.7771549472
-28927.7735113447
-28927.838238078
-28927.7418170377
-28927.7971437392
-28927.5351913098
-28927.7977623897
-28927.5140117482
-28927.8414986804
-28927.7805502458
-28927.8075195706
-28927.8276161197
-28927.8107842547
-28927.8077387582
-28927.8051461949
-28927.8215093441
-28927.8323245031
-28927.8349627814
-28927.8215399569
-28927.6829332659
-28927.7832033544
-28927.838585159
-28927.7891932572
-28927.7959861675
-28927.7687320758
-28927.7473515582
-28927.5107059749
-28927.8175975736
-28927.5197639597
-28927.8080186272
-28927.8063017258
-28927.8896594037
-28927.8171998794
-28927.7743464617
-28927.7974893236
-28927.8247435514
-28927.7795495477
-28927.8369414562
-28927.7897761248
-28927.5263553698
-28927.7364622483
-28927.4166091938
-28927.8271603293
-28927.8212497476
-28927.8340087508
-28927.7941313045
-28927.8151168491
-28927.4586258619
-28927.5162723328
-28927.3903589295
-28927.8066635009
-28927.8227552166
-28927.7530083938
-28927.76895276
-28927.7746387118
-28927.7923489598
-28927.8156818932
-28927.8209426673
-28927.878203417
-28927.7710012319
-28927.7721386672
-28927.8411007141
-28927.7492243807
-28927.5144901241
-28927.8155632516
-28927.8416679351
-28927.7767130345
-28927.5013659443
-28927.8701593278
-28927.8065666285
-28927.79022416
-28927.5930776489
-28927.7753146422
-28927.8297522123
-28927.8076135859
-28927.6533732826
-28927.8004975406
-28927.5130294178
-28927.3766197727
-28927.8151662377
-28927.7887275346
-28927.7872212492
-28927.789879528
-28927.7711462685
-28927.8097130792
-28927.5300384287
-28927.8419260349
-28927.8365406327
-28927.4165098723
-28927.6212151578
-28927.5166745168
-28927.8342307956
-28927.8301689544
-28927.9131686667
-28927.4163819789
-28927.7914071743
-28927.5101398424
-28927.8086612237
-28927.8068681304
-28927.3855989806
-28927.8278003407
-28927.8145124845
-28927.7787813708
-28927.5774278458
-28927.7912455387
-28927.7694001149
-28927.8573872632
-28927.5204178489
-28927.404726941
-28927.7975324536
-28927.7754826724
-28927.9192082303
-28927.8079276051
-28927.4974100914
-28927.809217288
-28927.5106227081
-28927.7880117395
-28927.8390412215
-28927.8079842048
-28927.8556885934
-28927.9263552966
-28927.5134660242
-28927.7626541442
-28927.5121530756
-28927.8053630696
-28927.8431577576
-28927.8681026925
-28927.8188209968
-28927.8190785524
-28927.8176345811
-28927.4637735728
-28927.4518213868
-28927.8911949413
-28927.8326579784
-28927.7676100149
-28927.5147683603
-28927.8231176721
-28927.9080778276
-28927.9353091979
-28927.5221396483
-28927.7748295996
-28927.5161506979
-28927.74606827
-28927.5115107512
-28927.807805154
-28927.8241053088
-28927.7444323224
-28927.8102490071
-28927.5186160481
-28927.7996114023
-28927.8165180986
-28927.4233282253
-28927.7930749591
-28927.7730464385
-28927.9342498592
-28927.8125977565
-28927.7798534987
-28927.7708791889
-28927.7745015665
-28927.7882871186
-28927.8391741491
-28927.5167343818
-28927.931157151
-28927.5130242476
-28927.7934315641
-28927.7854840754
-28927.5101538562
-28927.7717759396
-28927.8503411511
-28927.7691941248
-28927.837041458
-28927.5105186246
-28927.7975482362
-28927.6947208231
-28927.8522694848
-28927.8073403838
-28927.7859231308
-28927.7822094591
-28927.7445211676
-28927.8019892679
-28927.3958669189
-28927.6590522955
-28927.7820710893
-28927.597594192
-28927.8189107943
-28927.9173041147
-28927.8091472187
-28927.839499461
-28927.8310921001
-28927.7911973746
-28927.7719423371
-28927.7693307259
-28927.9296610699
-28927.7723169017
-28927.7668783012
-28927.7817359813
-28927.7004509934
-28927.7864971547
-28927.7691690904
-28927.8332982619
-28927.7997254179
-28927.8087953757
-28927.7841192891
-28927.830321202
-28927.7880483388
-28927.3767522921
-28927.7963895761
-28927.7480933402
-28927.8938279135
-28927.8312197214
-28927.9275569507
-28927.864521132
-28927.9296610699
-28927.9137362959
-28927.7934436732
-28927.5110059803
-28927.8096960721
-28927.7796015214
-28927.8447145201
-28927.8298060908
-28927.7984658036
-28927.9023121465
-28927.8088932006
-28927.8077372616
-28927.8111160974
-28927.8155101894
-28927.3838472487
-28927.7959019484
-28927.8244108924
-28927.813182937
-28927.78157489
-28927.8639579927
-28927.53270283
-28927.7956143242
-28927.5113635377
-28927.801274017
-28927.8413005816
-28927.7906644399
-28927.8168827309
-28927.8148911307
-28927.8071835102
-28927.8163960556
-28927.7438819725
-28927.6709023029
-28927.5123226024
-28927.8196067251
-28927.751747555
-28927.8177122695
-28927.8594671643
-28927.8075828371
-28927.8220815992
-28927.7984387283
-28927.5221626419
-28927.7691527636
-28927.8115094377
-28927.7943642338
-28927.9049643027
-28927.8286712406
-28927.7896837422
-28927.8259483349
-28927.7748493278
-28927.4536068608
-28927.7924277367
-28927.3882846067
-28927.8385844787
-28927.7889071297
-28927.7958854855
-28927.5324017362
-28927.8372564278
-28927.414534735
-28927.5156112325
-28927.8197400608
-28927.8430557149
-28927.8457116807
-28927.5345847684
-28927.8119200573
-28927.7956158208
-28927.8094432784
-28927.8357463328
-28927.7832662127
-28927.8587803493
-28927.4737136141
-28927.4534649535
-28927.7959324251
-28927.8189207265
-28927.840801253
-28927.5129665595
-28927.769206506
-28927.7970181588
-28927.5460044279
-28927.7501958267
-28927.763926956
-28927.7446879733
-28927.836500632
-28927.5037074827
-28927.8233315535
-28927.7899660601
-28927.8148497695
-28927.5097103109
-28927.5151441494
-28927.8040162428
-28927.8159991777
-28927.8594477081
-28927.7790751175
-28927.9280470275
-28927.7531462194
-28927.7930335979
-28927.8413201738
-28927.8059455289
-28927.535945609
-28927.7863356552
-28927.7969031907
-28927.8347298521
-28927.5350518515
-28927.7778067955
-28927.4833620856
-28927.8137911111
-28927.7696627046
-28927.8937832868
-28927.5121941647
-28927.7827659316
-28927.8278795258
-28927.8090242233
-28927.8086617679
-28927.8175227423
-28927.8020675006
-28927.8199729901
-28927.4014828014
-28927.5341497946
-28927.8074458278
-28927.8993742709
-28927.8046850983
-28927.8318152423
-28927.7959539221
-28927.5349266792
-28927.8030322797
-28927.8421136573
-28927.8887600679
-28927.7697738631
-28927.8129157213
-28927.8154105958
-28927.8053110958
-28927.935254503
-28927.8028866988
-28927.812840618
-28927.8018562043
-28927.526757962
-28927.515961715
-28927.5113813611
-28927.788271336
-28927.7694688236
-28927.4556190056
-28927.4594551284
-28927.515284424
-28927.8169424599
-28927.7989323426
-28927.7896604764
-28927.5273430065
-28927.836019535
-28927.8182363605
-28927.8414193592
-28927.7744301366
-28927.8103834313
-28927.8303097732
-28927.8256646563
-28927.5218146085
-28927.7854349589
-28927.9246160819
-28927.5273855923
-28927.8102292788
-28927.7971319023
-28927.4001547505
-28927.8337792229
-28927.7485889953
-28927.7595517759
-28927.8425234606
-28927.9264245495
-28927.8810082289
-28927.8224274557
-28927.4908955534
-28927.8357708231
-28927.5094188771
-28927.7496909197
-28927.8095264092
-28927.8015103478
-28927.8219406443
-28927.4567578014
-28927.8078522296
-28927.8409124114
-28927.5121070884
-28927.3938521891
-28927.5742340473
-28927.8266347417
-28927.5158940947
-28927.7953524147
-28927.4372566371
-28927.87620515
-28927.802786425
-28927.7809416814
-28927.3783295992
-28927.5168296216
-28927.7996207902
-28927.8222003768
-28927.7455892138
-28927.7855029873
-28927.7690164346
-28927.7876894209
-28927.7896012917
-28927.5218246767
-28927.5712949472
-28927.8357138152
-28927.5191357852
-28927.8325145745
-28927.7750973594
-28927.8409226157
-28927.7835671704
-28927.7777033923
-28927.79093737
-28927.7743218354
-28927.840174303
-28927.5227142164
-28927.529622639
-28927.5118401448
-28927.8723382783
-28927.7436131242
-28927.8802012757
-28927.7924182127
-28927.3818892545
-28927.8431040151
-28927.765326845
-28927.5150621071
-28927.7895539439
-28927.9110502616
-28927.7694749462
-28927.705624147
-28927.8582898643
-28927.7715138941
-28927.799067447
-28927.8251623344
-28927.7960539239
-28927.8141836351
-28927.817940709
-28927.7959076627
-28927.7967991072
-28927.8203806165
-28927.9286269018
-28927.8843009407
-28927.5165360109
-28927.5341385019
-28927.530601568
-28927.7880771829
-28927.8096802895
-28927.6117553971
-28927.7902010303
-28927.8201558505
-28927.8190151499
-28927.765003846
-28927.9251929629
-28927.824192113
-28927.7680534242
-28927.7861130662
-28927.9306725165
-28927.7762319375
-28927.8341148751
-28927.8395949729
-28927.8047814265
-28927.8375675898
-28927.7508442736
-28927.934893
-28927.7662657733
-28927.5315746466
-28927.8083824432
-28927.642882075
-28927.7863462676
-28927.7739780197
-28927.5145638669
-28927.6069897338
-28927.7659566521
-28927.7883653513
-28927.7428084839
-28927.772317718
-28927.9210474468
-28927.6165063662
-28927.3919031747
-28927.8226417452
-28927.7815708083
-28927.7747494621
-28927.7829086553
-28927.8149143965
-28927.602251418
-28927.8014791907
-28927.7739855029
-28927.5104444737
-28927.5116485768
-28927.8410169031
-28927.8305138585
-28927.842713532
-28927.8176322681
-28927.7737912137
-28927.79389062
-28927.8965178934
-28927.8083016254
-28927.8093137523
-28927.4992767914
-28927.773220047
-28927.5178797084
-28927.8029667003
-28927.7845462355
-28927.8250220598
-28927.8072949408
-28927.7904237554
-28927.79458968
-28927.7649784034
-28927.7959229011
-28927.8429108144
-28927.8055991282
-28927.809219737
-28927.74659481
-28927.4102279915
-28927.8230089627
-28927.5192989174
-28927.8174423327
-28927.7454256735
-28927.8054781737
-28927.8048704077
-28927.5312806278
-28927.7689308548
-28927.6301611677
-28927.7477668037
-28927.8010268017
-28927.8217647228
-28927.7814184246
-28927.9238197411
-28927.814951676
-28927.5226636033
-28927.7766050054
-28927.7726679283
-28927.5062841273
-28927.7941209642
-28927.7467963102
-28927.8075331763
-28927.7890646835
-28927.8297618723
-28927.8159155028
-28927.833351052
-28927.5109654353
-28927.803451879
-28927.7870544435
-28927.9153028545
-28927.4112288257
-28927.8185731012
-28927.7696131799
-28927.7774613472
-28927.8352204731
-28927.7947804317
-28927.8430142176
-28927.8196746175
-28927.8223105829
-28927.7889720288
-28927.8315016312
-28927.7958629
-28927.8373904438
-28927.8298081316
-28927.5130106419
-28927.5109707416
-28927.8069953436
-28927.8427967988
-28927.854914566
-28927.7154290838
-28927.7754173651
-28927.8345093039
-28927.7694213398
-28927.521009152
-28927.5331318173
-28927.8169586506
-28927.7557390548
-28927.820872462
-28927.7751044344
-28927.6258700707
-28927.8093474944
-28927.5195360645
-28927.8309998536
-28927.8402411069
-28927.5105995785
-28927.5171183342
-28927.8180865619
-28927.8541876143
-28927.8223541211
-28927.8429046918
-28927.7904837564
-28927.8252804318
-28927.8054769492
-28927.5659443756
-28927.7732707962
-28927.83911891
-28927.8170376997
-28927.8328864178
-28927.8082972716
-28927.8151866462
-28927.5347031378
-28927.7915850006
-28927.8432083707
-28927.810622211
-28927.8603816023
-28927.5523717524
-28927.7838935708
-28927.9082117075
-28927.876650328
-28927.4436390639
-28927.7957827626
-28927.7611752062
-28927.8300709935
-28927.8233538668
-28927.7751576326
-28927.8364111066
-28927.7693024261
-28927.7763209187
-28927.8005810795
-28927.5145864523
-28927.8148801101
-28927.7898961269
-28927.7702895185
-28927.8318598689
-28927.7722322743
-28927.7627327851
-28927.8120453657
-28927.5220552931
-28927.5164568258
-28927.5142521607
-28927.7441140855
-28927.8178503672
-28927.7960801828
-28927.8045818311
-28927.5333646105
-28927.5165184596
-28927.8069036413
-28927.5282442471
-28927.7852142747
-28927.8567498369
-28927.8047954404