-0.0746753387224583 -0.3680696823206 -0.0392388706109949 0.0594161064589721 0.264242419694944 0.0306272221344712 -0.0455966912214767 -0.213955267401119 -0.329809630177095 0.208623573531839 0.0356521835551788 0.226468048687528 0.0855770676008568 0.0580693633193044 -0.219817122468184 -0.0417595788472115 -0.152480222594981 0.15707632423009 -0.429313070851664 -0.157193566473634 -0.0982446292175597 0.0581884053341318 -0.151498318805292 0.00869340951478531 0.0371927877729888 0.141836889450711 0.465102037024312 0.0325300946004278 0.199344209909512 -0.0390087569970196 0.112848487624037 0.0189647042239465 0.238530630043132 -0.0545873201080558 0.0476862256804457 -0.178324166880964 -0.0415027257741821 -0.059189849497745 -0.261029570845519 -0.119872994939589 -0.0776161649980443 -0.115433473406057 -0.0443659047744379 0.112705277251987 -0.00216923861576492 0.158280628328257 0.0433148383454647 0.0163835750946749 0.0363494663720514 -0.0915980738713301 0.00771819058985982 0.321717087160478 0.254610558011433 0.0449518588819794 -0.110900363765835 0.120774680352116 0.108979493587053 -0.0164630221412876 0.0555442842099732 -0.0508509949256099 -0.202407420632308 -0.0487246937104415 -0.0321488001987235 -0.0626330690713285 -0.101065642147769 -0.0301184010818934 -0.0695313352869233 0.326190804348377 -0.0359879694544545 -0.0888269403166644 -0.119198594929022 -0.000923282667916539 0.291711814559198 -0.138346361603416 0.128573860649687
0.123424200790122 -0.205066454147093 -0.0710446858253128 0.0656114334336636 -0.387836827426353 -0.532870624895129 -0.281927229426858 0.184121230181859 -0.277499792071937 -0.2482198272975 -0.0436827630176419 0.220797483596774 0.101945730304905 0.113550398424207 -0.15294353514513 -0.221334072549139 -0.176176268410406 0.235221621985185 0.12432922863503 0.00960897887720547 0.252611783447138 0.13853070960478 0.172904027108659 0.192799984416201 -0.16450963673695 0.219163548382458 0.465882109320179 -0.0581860913424829 0.214482857497072 -0.0574659257193044 -0.0806834894837709 0.147211263610404 0.189219210894599 0.0967901569111258 -0.0758169079359223 -0.153693525549561 0.158778907863324 -0.053352934118452 -0.299485540948632 0.0876828000013682 -0.0887654909828766 0.173670729674999 -0.199792867179218 -0.119848826582367 -0.0815756618195187 -0.0638396871611454 0.0112747957542401 -0.128753580667753 0.0398140260908415 -0.0333343352535169 0.218382704756041 0.0355776216020471 0.328593756120683 0.18369956948139 -0.0495744428659592 -0.20358010017794 0.00534609203954013 0.0659842431993219 0.172284134456933 -0.0973812532223317 0.126558373923484 -0.159183342181517 0.0293105608862393 -0.0956920393186247 -0.0166370857353226 0.12032525175186 0.0231910814155956 -0.175546348461535 -0.247431013255403 0.178224665240061 0.0421658129366874 -0.0866276198094636 0.0973164614561621 0.123466623970352 -0.10049434332067
0.0965513015509213 0.233251900871593 0.0316793170041773 0.297706081370617 -0.0768124385653216 -0.101464934262298 -0.243783905306532 -0.25257193136874 -0.227020835581435 -0.0473121303638714 -0.00566053779360917 0.207658124793876 -0.156728968372569 -0.0737062904419299 0.0290387954225836 -0.046767570995827 0.00760454788887983 0.144618050302522 0.119356203471332 -0.00110917333037927 -0.097962065126209 0.292301368209304 -0.174615352488122 -0.0808953482747381 -0.125656688510957 -0.449024937268026 0.173974891021739 -0.0610832088869228 0.223785361035888 -0.0611135478885419 0.155770204499369 -0.0159020077215177 -0.187546709152801 -0.0780409110207115 0.189652698663496 -0.154673629567968 0.0645505968177283 -0.0702368456296587 -0.257229225227453 -0.0374108172083531 0.215321036694345 0.117969608253266 -0.0856398024855607 0.0124189360695363 0.0991491428421017 -0.0520362728702201 -0.0884849837729916 0.197681221244493 0.10969631677785 0.276533829113607 0.156331218919139 -0.160870499203758 0.0442666602437178 -0.0128966467899453 -0.0566524290996196 -0.0626125002566715 0.136524221734988 -0.0463543949314043 -0.00970693785700948 0.00127166696616965 0.115697525564216 0.244668621446967 -0.0387174511594397 0.0989478255686462 -0.0761161841891818 0.0384266595422262 -0.00649228923630202 -0.0430800967481915 -0.0486457608841952 0.152263735820716 0.0150005794191742 -0.140563679823442 -0.29801127115809 -0.0628639540158534 0.0744076870217339
-0.0637083038575237 -0.000542245376395428 0.0463675075507482 -0.245614786921189 0.0900387006101455 -0.152866659200349 -0.288461684733207 -0.167339391413388 0.203319647562346 0.162972632061705 0.227679294760643 -0.0565850662316179 0.956921678737163 -0.169369019199668 -0.417765738303218 0.0712606583792114 -0.0928064917324294 0.304566552389279 -0.0402729677678761 0.359368816610501 0.0221873232603335 -0.21746790672417 0.177943900919993 -0.0884849837729916 0.064079828072266 -0.0368901690873476 0.260688899852762 0.219780355711985 0.154305190675424 0.280046468436658 0.0619478704330669 0.00430171047533044 0.217813719920591 0.198803250084033 -0.0752625783809159 0.0707592935219468 -0.195782205431285 0.0458805408637434 -0.0735851915456367 -0.191609564267927 -0.0921097231359232 0.0984230636847092 0.145131756448581 -0.293712646004958 0.0634342244022191 0.00872451984695403 0.0016331638837666 -0.339031658228566 -0.291306094690088 0.0374990060011951 -0.143445113646706 -0.0244699474668952 -0.0228861487383055 -0.0938002225905462 -0.135645162018584 -0.00545073588410767 -0.00658202069024322 -0.156352559064346 -0.132411230134136 0.0204492584218162 -0.131172987491784 0.1824358729309 0.149784422323996 -0.0185782676185779 -0.0542438209032837 -0.045878741092461 0.09239357277819 -0.148593745065539 -0.202443930278324 -0.0656996222265055 0.11068310566102 -0.0418598518186644 0.0841254235064383 -0.100151101226081 -0.0755109468178993
0.222570772530391 0.0332469177912246 -0.206241190574191 0.0263982738409899 0.110927617445255 0.0349047642525797 0.162088944362003 0.00730732851708604 0.11651976393013 0.0490795057632749 -0.227136792274064 -0.0275922935318294 0.0432662445208375 -0.00371138549467425 -0.0209688781020889 0.241454229936443 0.268291905080543 -0.192109386464092 0.0211907641902014 -0.237537156295198 -0.246100468057278 0.232570815996263 -0.0854330858982578 -0.106122742341378 -0.469331242427976 0.173670215454632 0.452723210143357 -0.336434588267935 0.0356115601462312 -0.165527793062472 0.0105062934166175 -0.115130854720415 -0.0373771357743523 0.0224038100345986 -0.0314183501682165 -0.0327578942227542 0.017114025125182 0.171414587817308 -0.310023458917784 0.192378580825916 0.0352811735608029 0.0993664009469164 -0.124407904351093 0.113710320958166 -0.0915494800467029 0.0846180466174737 -0.134040537365154 0.122167446214578 0.114223512883858 -0.248006425845433 0.499187648233176 -0.0423820426007692 -0.213380111921273 -0.102789565926209 -0.11685272161739 0.0316068119325113 0.258824079693921 -0.0712380326830887 0.111274459082409 -0.0670723334946777 -0.167907862028471 -0.0157479987217733 0.0862450398568432 0.150209939677213 0.208563666859151 0.168486874161066 0.0611009494895645 0.21869715051011 -0.204164511624383 -0.182383422453525 -0.237941076393025 0.00177868824746495 -0.140237407000945 0.0298800599420553 -0.0298065264296565
-0.0852333112859015 -0.23626240400683 0.0398201967352386 0.043981525050535 0.203959337698179 0.00763771510251426 0.010462070465105 -0.171011439050031 -0.341541567837087 -0.0311216450167891 0.0686949558609326 0.065188744292462 0.00734692348530078 0.0983323037900352 -0.169134020492212 0.104492149559443 0.0514768011115495 -0.00509463828035818 0.325114284011266 0.084631673457184 0.332055230517274 0.122923607263407 -0.125818153706015 -0.0757531446104856 -0.0745102739848358 -0.12469818174794 -0.220150851485994 -0.0421465296729465 0.211025753973595 0.174259769104739 0.0569226519021761 0.0172464368695365 0.202757861812026 0.0154782901395833 0.0503591431451242 0.12102870521313 -0.152589494422846 0.0332816276659584 0.259683856146584 0.271979379328178 0.0853127583325142 -0.0193372568794216 0.200136880604357 0.0934919474808743 0.0754032176511332 -0.253736640498693 -0.181807495643129 -0.0689245552545415 -0.0649000095567142 0.0126763033629321 0.0363998599679611 0.0180627617012366 -0.170827605269034 0.151049404425402 -0.209221611817992 -0.0798175423867108 -0.00433719168061379 0.0407285670125288 0.124398648384498 -0.157251416264857 -0.108472729415941 -0.122602733754757 0.132778640585947 -0.0605281080013667 -0.215221792163625 -0.0918731817673676 -0.156515566920503 0.357023200409052 -0.135693241622845 0.0380862456596527 -0.0583958932519844 -0.147830642041763 -0.0167396726984244 -0.00544765056190912 -0.161141493336864
-0.0287472324748205 0.164489067922293 0.181839120195664 0.429941705249619 -0.26131856269145 0.464875265842718 -0.12954805113388 0.0760153969973625 -0.0911388750841123 -0.117763405886329 0.0626225275538168 -0.0270266511287616 -0.204780033402994 0.121999039044574 -0.173597710382966 -0.122624845230514 -0.0663827639833014 -0.0893725281254416 0.156782447290677 0.150377575516668 -0.236820333104401 -0.0901191760974911 0.197261874535673 0.0854747377479382 0.406574503358522 -0.197088582272188 0.0422881973838966 -0.0625392238544559 -0.173548088117606 -0.173749148280879 -0.0464675234120179 -0.143689111210575 -0.356478898151191 -0.0631496034294027 -0.0213278039178537 -0.207493060056253 -0.0702435304944222 0.136370469845427 0.254053914464777 -0.250089275439639 0.0335384807389878 -0.258254580638105 -0.119725927914791 0.0358164769622516 0.0413996245907138 0.098316362958676 -0.0918862943867114 0.240095659728347 0.0685584303536467 0.121378889282665 -0.0682570972189215 0.227344023081734 0.485153545992698 -0.075081315701751 0.0123317757174272 -0.054501702417046 0.0296640873881567 -0.0278799998268443 -0.110168113964045 0.193316518774276 0.1314223843695 0.00263075139463159 0.0535046291265474 -0.0167296454012791 -0.17951073037649 -0.0111354420349388 -0.0943206136013686 -0.201698053636824 0.0806670344320453 0.0120170728531749 -0.0423614737861122 0.0736908638309371 -0.098560617632728 -0.044172557916662 0.027536243511889
-0.300468473179053 -0.0778182536020494 -0.00255798921278241 0.175606512244407 0.202404078199926 0.29312052125302 0.09608541789894 -0.213437961712496 0.0641775299418868 0.234520739625748 0.029116699808097 -0.0425221676506201 0.150734187340784 0.0887325808794254 0.361749399796867 -0.0474275728361338 0.0305842847338747 -0.164127056784329 -0.258753117283355 -0.131183786119479 0.23492106018101 0.0195982237153824 -0.189198127859576 0.237451024383822 0.208382661290169 -0.170343723904227 -0.449751530645785 -0.103773012376998 0.145312247797196 -0.0782478847181977 0.10983875581935 -0.00390524657281657 0.0650478479120615 -0.0836399994805329 0.109297538883687 0.0791966212942523 -0.0228524673043046 -0.10826858393047 0.188373575502013 -0.178542196316328 -0.173388936914198 -0.0807323404185813 0.0918754957590165 0.100945314582025 0.0653756633956576 -0.126546803965239 0.0535835619527937 -0.111348249704991 0.000934595515977895 0.239869145656937 -0.159780352026937 -0.0878139261948067 -0.247857559049353 0.0415502911580764 0.0810992366500257 0.228368607161836 -0.116388380626508 0.0786194089329399 0.0179591462974019 -0.0564711664204547 -0.313331952755364 0.0744683650249721 -0.224414509654209 0.0667386044768677 -0.10049434332067 -0.152288161288121 0.116381181541378 0.173401021092809 0.0881276006183261 0.0337691085733295 0.0696118107742688 -0.11088879380759 0.0589646209772508 -0.147757365639548 0.030427447522115
-0.000979846908223317 0.219696023571891 0.121257019055823 0.170514445065881 0.0269397478868357 -0.00955395729799796 -0.325423844671854 -0.235217765332437 -0.649213754129392 0.192087532098519 0.139585118466135 0.203285966128345 -0.117722011146832 -0.281812044064779 0.14738301321279 -0.197094238696219 0.146708870312407 0.0694128074924622 0.0903204933709466 -0.218914665725108 0.424069308665042 -0.00676199781849206 0.112693707293743 -0.0125629177721353 -0.101282900252583 0.163761188993618 0.0382016881319152 0.00588962296685162 0.023768293776908 0.101136861668518 0.0381255835176842 -0.102584134889822 0.0454182567543271 0.15239691889562 -0.0875128501702647 0.046010638616449 -0.134100444037843 -0.0269829423976154 -0.151186444153055 0.100768165665792 -0.268556471459069 -0.103812093124846 0.00110737355909678 -0.0108148256364727 -0.138590616277468 -0.246740158193111 0.100314109082238 -0.101465191372481 -0.047582610276611 -0.190715592160897 -0.0960180550309383 0.386587271935939 0.276147392508238 -0.0802510301556073 0.0797625208075033 0.142411016489825 -0.0714622327628501 -0.124485037406057 0.102966714842443 0.155113287981261 -0.173510550030857 -0.129998765285052 -0.0510921642774634 -0.132372406496471 -0.218110167961835 -0.0401708950251407 0.202689727613475 0.175815542823359 0.12268140947082 -0.0358784405164059 0.0793688851170048 -0.000664629823604638 0.223685345174618 0.0610436139187081 0.0320739811354087
0.230649688707298 0.179082899031625 -0.106079804940781 -0.00540754137332795 -0.0714545194573537 -0.175851795359192 0.00531729569902032 -0.2428593370877 -0.00847846540161955 -0.115788542569073 -0.209976487315904 -0.081731984810912 -0.0431281763524523 0.00443823598261635 -0.0685838842617847 0.071290483160464 0.125391093691698 0.14386960255919 -0.276036063798907 -0.0236443666685995 -0.0159395458082667 -0.0343429785022601 -0.0307871446684295 0.170541441635118 0.26313684590713 0.0589149987118907 -0.0144593624835117 0.21963508845847 0.0192292706024723 -0.00984372047447859 -0.116908257416964 0.13583285245233 0.189908266185609 0.137025586592253 0.0727953490628075 0.0372336682921196 -0.090362145220627 -0.0944319423106997 -0.0370148675262057 -0.0182720493903717 0.166160284113175 0.223776105069292 0.0661169120538596 0.0846275596942526 0.0597151256020484 0.131878754944703 -0.052387999600855 -0.186992636707978 -0.0321567706144031 0.180314713919396 -0.0142241066658721 -0.161578580648326 -0.0313401886725198 -0.117645906532601 0.0564212870449115 -0.00110325979616538 -0.035444438527143 0.0164319118091189 -0.137215076797281 -0.111040488815686 0.0615616909378815 0.0278658587667676 0.144033381745896 0.0550377771490443 0.0368731998152555 -0.0516246394668967 -0.159764925415944 -0.0884376754992805 -0.0989709654851353 -0.100426209122119 0.112365120479597 0.193787801740104 -0.160331082039378 -0.220252924228729 -0.0289385224511307
0.0203435861365158 0.280468643357493 0.109308337511382 0.371831204301 0.00035249806118451 0.0658158360293176 -0.261456116639469 -0.26936405454454 -0.483563319509528 0.0726917336589729 0.0191145994607595 0.257014538224471 -0.183333187470313 -0.132096527269884 0.0679642487202423 0.214075852077046 0.231046666830179 -0.220764316383139 -0.246803407298181 -0.00827637679761443 -0.0928391447256974 -0.213719497363113 -0.0278707438602486 0.0386058653399254 0.0874904815843252 0.263889664523576 0.0394003358060524 -0.221448486580668 0.173955864868182 -0.0327964607502361 0.128219819927404 -0.0621718134026451 0.233970523833673 0.0406676318991075 0.0919960804349432 0.00209493377281648 -0.159846686454206 -0.16427438091931 0.21043877142532 -0.158630041067243 -0.135279294227873 -0.151564396122377 0.0286739560726049 -0.0271402938297416 0.0257848089438446 0.217474077368567 0.0599961470322998 0.0505105810430364 -0.0629919948870933 0.0632267364843665 0.136289994358082 -0.00234690175236485 -0.0246553239089915 0.12144085283682 -0.0819361302963828 -0.134821638101754 -0.0359522311389879 0.0250345614292302 -0.122011123223185 -0.014283242008011 0.0168905963759702 -0.0641633888818101 -0.153936494672697 0.172728935073891 0.00901659701508358 -0.12285907260742 0.116705397482409 -0.106012184962596 -0.125168436273036 0.0460929138750771 0.0907403543001328 -0.0541890564342595 0.0335917025469128 -0.00566670843800627 0.129276542780408
0.309758378318892 -0.00534866314137226 -0.19756809276388 -0.100660693609209 0.0115761288889653 -0.168901592886588 0.245130391336017 0.0533542196693681 0.0437395843681319 -0.103814407116495 -0.0628171599625088 -0.168749640768309 -0.317639833875092 -0.119395798439546 0.254314367080372 -0.0562577649683882 -0.279180778449781 -0.00491671803357504 0.0854125170836007 0.266496247560986 0.129616185332431 -0.211453071098094 0.377990278739859 0.0133082801932687 0.263807646375132 0.106392965143934 -0.282863110493752 0.0799941770825779 0.0971321134547986 0.0876989979429106 0.00463543949314043 -0.13839546964841 -0.0409219138703047 0.114360038391144 -0.203485740740701 -0.0549465030340038 -0.196670521114284 0.275154690090854 0.376682616348039 -0.372578623603599 0.0932780318084414 -0.117616081751349 0.158898206988334 -0.0104700408807846 -0.101447450769839 0.00529852665564579 -0.181904940402566 0.13614498421475 -0.181376064755698 -0.246051874232651 0.152515960910447 0.225532424730818 0.0564739946324701 -0.0422743134340032 -0.16105227610329 -0.065440198051644 0.0627587959509195 0.0791629398602514 0.0244090123534738 0.0522234490835989 0.054073613961997 0.15422882895101 0.105470968026934 0.0896952014053734 -0.0113694123016623 0.0357928228253961 0.109984794403415 -0.0768168094384362 -0.3357627593592 -0.0416402797222008 -0.00755955360681762 0.0307251811142752 -0.0826007601199875 -0.108250329107462 0.0349762408835128
-0.113428785307548 0.275218196306108 0.0470290520521542 -0.0423265068011953 -0.0610233022142343 0.16744840613107 0.0771158285815125 0.0153649045487865 -0.0744390544640859 0.218877898968908 -0.0720600139388194 -0.0622520317798074 0.338306607511906 0.152683339639719 -0.162301060263153 -0.282809631575644 -0.0310668805477648 0.37430331871259 0.0407236819190478 -0.20968003927466 0.0965075928197752 0.172298018406827 -0.114790955058208 0.171464981413218 -0.36414181005166 0.166088550372058 0.389800892115914 0.393499164991244 -9.05027844908443e-05 -0.197316639004698 -0.218460352031371 0.011656861486494 0.0798162568357947 -0.0347474128204535 0.114323014524761 0.00688438226570127 0.166775034561236 -0.0617000162164499 -0.269521663086849 0.0656949942432077 0.0883744263942102 0.0481405393741824 -0.228571467096391 0.10670715378782 -0.0867608028843677 -0.0222415735089914 0.0126346515132516 -0.206450221153143 0.181773814209128 0.291214820575048 -0.0547032768006847 -0.270400979913436 -0.186028730631114 0.0318526092676626 0.021492611545293 -0.204561489747263 -0.290042398139598 -0.214793703708576 0.0843406247297873 -0.0549768420356229 0.0788955452697103 -0.166001132909766 0.00697797037239067 0.0906015148011979 -0.0550259500806165 -0.0612382463274 -0.110159886438182 -0.150006308412109 0.221154352531073 0.0509777502459337 -0.0582498546679197 -0.0609651953128282 0.00504938688811276 0.0516796610461042 -0.0604126655291043
0.183494395555187 -0.112916878932771 -0.0278339771040492 0.213843167361239 -0.135732579480877 -0.16441039220623 0.0199039277232222 0.00222863106808704 0.191560456222933 -0.252251572080457 -0.0353518788611864 -0.234917717748628 -0.281737225001464 0.0830324481176015 0.462267397254393 0.104861359782537 0.0955431725225446 -0.123589008417561 -0.0118972595077978 -0.245328623287274 -0.0799946913029443 -0.101519441621139 0.122244065049176 0.0392771800282936 0.170185344031368 0.110797262582366 -0.265370876289064 0.127260798944021 0.105308474391143 -0.00359491458167893 -0.12912150533993 0.285524972220552 -0.243463031797883 0.110834029338566 0.00589065140758447 -0.170403887687099 -0.254991338192771 0.0585725279478515 0.231634420709003 0.112123436907377 -0.000438372862377527 -0.359372930373432 -0.143333270717008 0.140616644521184 0.213965808918631 -0.249453699066737 0.126378139685052 0.162267378829152 0.402019796462911 -0.0765733260949339 -0.133315486648495 0.014742697905412 -0.0826413835289351 -0.114680140569244 -0.0532608886728619 -0.198055830781434 0.0349063069136789 0.191788512955443 -0.0916389543904609 -0.107061451620287 -0.0138106734912662 -0.21718379997172 0.0498986588069904 -0.143037079785947 0.0222868249012368 0.260508922724514 -0.135725894616113 -0.103007852471757 0.0381767484441435 0.164872676315646 -0.00149175328299966 0.239184204128858 -0.0457902951894358 0.14193690531198 0.104361023366005
-0.027589465319814 0.0689484665015802 0.0162791883602906 -0.0133018524386884 -0.165546304995663 -0.247910266636912 -0.00998153153268056 0.0561052986297432 0.211894786392853 -0.211191332931584 -0.0106818996717518 0.0556769530645109 -0.180623760359618 0.075891469889054 0.363094086055069 0.361038490140284 -0.133519889244149 0.270732909159964 -0.163270879874231 -0.0573558825608894 -0.213795344867161 -0.0698262406670681 -0.230608036857618 -0.235083810926983 0.236881525328006 -0.541300496472122 0.431260166269133 0.345461469690347 0.202499980298264 0.148017046924593 -0.346027883423964 -0.0731900131940389 0.232649491712326 -0.128071210241507 0.0405732724618684 -0.00102946917358335 0.0816543375355818 0.17720342359234 -0.401888670269472 -0.206805547426343 0.168990810120163 -0.14812888985429 0.0108310235780151 0.0903554603558635 0.23161899409801 0.114918224598898 0.0105533445801454 -0.0557330030844513 -0.157067325373677 0.0968469782616159 -0.329967495829588 0.0432783286994485 -0.092190455733452 -0.197692276982371 0.0329322149269724 0.0539499439638717 0.0726014879846652 -0.0675194481032845 0.311962583919574 -0.180310343046282 -0.00509952337383922 -0.0376324461862824 0.0456560836737988 -0.0557921384265902 0.0915785334974059 0.198193641839636 0.21128543525864 0.0370873725978716 -0.160718032865113 0.346286793378459 -0.0137376541992338 0.0445448534619539 -0.142399703641763 -0.126784116664344 -0.149962085460596
0.214021858938572 -0.191097143672784 -0.124950921058038 0.494489730965515 -0.124678898484199 -0.0404316047509183 -0.228617232709003 -0.00581814633591851 0.132276247287949 -0.024590532142822 -0.0828187895553518 -0.34086793915707 0.250716881396861 -0.0280607482856428 0.168657595322719 0.182484980975894 0.154206203254887 -0.18326016817828 -0.175774919414411 -0.0508214272545405 -0.0874755691936988 0.0817145013184535 0.0412625848630615 -0.0523399199965943 0.120947972615601 -0.041289838542482 0.039958522013807 -0.208573694156296 0.0523792578546258 0.0176159042028131 0.107856693416964 0.181840662856763 0.38704107140931 0.196946400340871 -0.24718264481842 0.0534087270282091 0.0649663439839831 -0.175797802220717 -0.38431364658579 -0.397013604085578 -0.0716260119495565 0.118052654842444 0.177778321962004 -0.0461461356830021 -0.015517885107798 -0.072613315053093 -0.0507388948857292 -0.0798401680828335 -0.405498240131594 -0.177067155195238 0.242406051834696 0.0813265220519857 0.123523959541208 0.000903999404175593 0.0884052796161957 0.0646632110779754 -0.0189125108567543 -0.123585151764813 0.119879679804353 0.307281635924005 -0.129218435879002 0.232345330365586 -0.230249111041853 -0.0775827406742266 0.121833460086585 -0.1554205346502 -0.162715264768309 0.119620769849857 0.31672734983487 0.015167186817896 0.0150604860918628 0.0215723157020889 -0.0710392865114653 0.0665282883469998 -0.0923223532574401
0.142655271163877 0.207216409499117 -0.038718993820539 -0.194586128858979 -0.216132733542747 0.157266328655484 -0.0390457808634022 0.273327150908579 0.265315597599674 0.136750992916582 0.0731884705329397 -0.153274693061108 -0.0505779439110381 -0.0316921725133379 0.154158894981176 0.00191649930566691 -0.0162537344521526 -0.00103666825871331 0.360882424259074 0.11254381205693 0.181590237538314 -0.0863170307081427 -0.0689091286435487 -0.115177391663577 -0.124121483606994 -0.371290758695887 -0.414200134282426 0.00718468695969362 0.0378944414629761 0.110103322197876 -0.025622058197871 -0.190540500126129 -0.120674407380663 -0.0993615158534353 0.0182273122184927 0.107185378728596 0.0630179630155978 0.231213788449267 0.124246696266219 0.152554527437929 0.0339822529152128 -0.000851034706433792 0.040258312487433 -0.044438666956287 -0.0616995019960835 -0.088831311189779 0.0371441939483616 0.152787212153737 -0.0218553940138061 -0.0795406347193908 -0.0678945718605917 -0.00265543397222 -0.0847946813133408 0.0849800577554371 -0.0134502050144021 0.0420619404226695 -0.150910050706101 -0.0219309844076706 0.151721233334137 -0.0574065332669822 0.0543317525859425 -0.072972497979041 0.0544230267009829 -0.160860986126979 -0.039771088690245 0.0652517362873491 -0.0270934997763969 -0.00443772176224992 0.0943522381539037 0.0683756250133825 -0.0205693288773765 -0.211633048226343 -0.0716180415338769 0.0228221283026855 -0.158184212009553
0.0469092387067772 -0.00565668114086098 0.0916410112719266 -0.0333759871031974 -0.0589710487318311 -0.178584105276192 0.111622329160296 0.163858119532689 -0.35987455234088 0.0810552708086964 0.183215173896218 0.0750041826467872 -0.0723801161169191 -0.308604210706451 0.181202772492213 0.154474883396344 -0.132298615873889 -0.0925046443773378 0.154949251684371 0.248935622047564 -0.149168900545385 -0.317195033258134 -0.0707852616504512 -0.18957942226128 -0.147125645919394 0.211337114405465 -0.607397611041874 0.125889887447131 0.0241084505492983 0.178213352391999 -0.0900099042696257 -0.0223392753786122 -0.015936203375885 0.00391990185325969 -0.0939627162263366 0.199735531608362 0.029613693792247 0.218931377887017 0.300546891784933 0.0747265036489176 0.140311711843893 0.228694365763966 0.146255842169586 0.0183854349811685 0.0773243449400979 0.251756120757406 -0.119712301075081 0.0245378245552634 -0.131104596183049 -0.122155104925784 -0.267932465044412 -0.0792462435596123 -0.115932267161489 0.134394320977255 -0.0856984236073332 -0.064700234944358 0.105058820403244 0.0180334511403504 -0.0983148202975767 0.0162606764270993 0.142187844850796 -0.224038614566352 0.238339340066822 -0.168326694516924 0.212214888570953 0.0185235031495536 -0.221222486729624 -0.134817781449006 -0.0919405446353693 0.0674685402870084 0.0141372034239462 0.0152684882300818 -0.0631776284393728 0.136854351210233 0.0681725079686445
-0.144304632989186 0.143914082620886 0.145358527630174 0.302209109119403 0.0847237189027741 0.15845931990559 -0.00289943153608878 -0.37841296788106 0.177956242208787 -0.144636819345896 0.239744190107895 -0.0770726340707328 0.132683766928341 -0.0443772176224992 0.114841605764301 -0.0154281536538568 0.112992469326636 -0.294764997984848 0.109498856157143 0.180347881133031 -0.287027267021064 -0.0254737056221573 -0.156961395978193 0.00887158687175166 -0.310989421876114 -0.246929391287955 0.266050932723662 -0.562713146750435 -0.202597167947518 -0.0796591625138518 0.0676749997641281 -0.0756495292066509 -0.0821947831406947 0.0467719418689416 0.167326021683861 0.0197913134629751 0.187160529657616 -0.155375283257955 -0.212897001887016 0.371502874597038 0.0662711781637872 -0.00921354341542445 -0.184796401522976 -0.136694942896641 0.0814383649816832 0.146571316364388 0.122821534520671 0.0353950733719661 0.100157271870478 -0.0309771490938236 0.0434212819613147 -0.14032585290397 -0.000390550368299979 -0.063156031183983 0.0935729371885863 0.314347280868871 0.283861983555533 -0.014797205264253 -0.0609991338570123 -0.0103371149160636 0.0388961427367725 -0.102335766452839 -0.274432724696393 -0.103364207185689 -0.0809776235333662 -0.0545968331848347 -0.0449749987984686 0.0789328262462761 -0.128315979135925 0.123043677718967 0.142152877865879 0.101748269684198 -0.0250399607430776 0.019104315053431 0.136473313918712
-0.0347381568538579 0.149725286981857 -0.00961694929288506 -0.1402626037989 0.0479934723493848 0.0354516376122729 0.100197123948876 0.0703407181436766 0.11290556608471 0.0431037508850471 0.00826069307643846 -0.0496004109944637 -0.023426080123052 0.0874647705660039 -0.0500994618600794 -0.0611701121288487 0.0558525593196451 0.0118314393008954 -0.152123610770865 -0.117951867650624 0.0986068974657063 -0.019569941595229 0.0203690400446539 0.13668363004858 0.316182019136276 0.114155121575123 0.351922134374114 0.0300165854493412 -0.207316939580753 -0.14778076266622 -0.0188484904211344 0.0733419653123176 0.0249373737799758 0.0320737240252254 0.0333376776858987 -0.0921074091442743 -0.114569068970096 -0.0949816438824082 -0.101392686300815 -0.108621339101838 -0.081874680962595 -0.124112741860765 -0.190156120402226 -0.0424537763418856 -0.121347007619947 0.039066092567876 0.0984996825193066 -0.046864244424715 0.145782759432475 -0.0639049931476814 0.00570270386365604 -0.0742189681472559 -0.0106926982994467 0.0785217070633191 0.055622702815853 0.0155790773314026 -0.113709549627616 0.10611734302753 -0.0853135296630639 -0.0231293749716246 -0.0503414025424825 -0.0594855262084395 -0.219850032571635 0.0975033805593577 0.109195209030769 0.0100769194106524 -0.017577080565148 -0.146018272360298 0.0267086058321276 -0.0674716256092069 0.000430145336514723 0.196443235712324 0.107429119182281 0.0254482517140193 0.00981929500707339
0.142308429526723 -0.242924128853869 -0.0843012868717558 -0.154799356447558 0.143713793788163 0.198757741581604 -0.104257665072353 0.0480538932424398 0.0186831685733287 0.133795511360553 0.00753718502087813 0.0701846522624665 0.0428659239655754 -0.0937968801581645 -0.344982730529205 0.281639008911477 0.0966304914873508 -0.188457650531923 0.0520576130154268 -0.146806315071844 -0.0939886843548411 0.00575926810396282 -0.42726158869981 -0.0410149877566277 0.327848393699549 0.0748632862663867 -0.315473680581525 0.0691909214043498 0.219741789184503 0.00402171748581189 -0.0792164187783597 0.214302109038273 -0.0462865178430362 -0.0388583475398402 -0.0153417646322974 -0.0881270863979596 0.0761146415280825 -0.0347474128204535 0.11735691468667 -0.422780672426781 0.0127017572710701 0.106811283412021 0.0789197136269323 0.151698607638014 0.161524330399668 -0.0473311565174291 -0.0119589659517689 0.106922097900986 0.0256053460359622 -0.0808243858641714 0.0964281457731625 0.164678043906954 0.154942823929791 0.183805498876874 -0.231904129291193 -0.230722193778964 -0.0784353180417597 0.150530813185862 0.156963709969842 -0.128550463623015 -0.141992698221738 0.101002135932515 0.149071970006314 -0.0123430885654885 -0.00397543765283362 -0.0473270427544977 -0.0212529848545389 0.160422099044235 0.12810669144679 -0.13711660359711 -0.465789806764405 0.0708821921895224 -0.159460249848837 0.211574684214754 0.0443893018011102