3.72637298634335 0.7749622040921 0.252537434666828 0.7749622040921 -1.78703970943626 -0.713273670433027 0.252537434666828 -0.713273670433027 -0.146510267440297
1.62296072682775 0.244421796208999 -1.24166272474171 0.244421796208999 -1.04612528777451 0.312859899147518 -1.24166272474171 0.312859899147518 -1.13020638567041
-6.88293276024316 0.370174535004674 0.260278969925161 0.370174535004674 -0.0636237482039284 -0.539837863548483 0.260278969925161 -0.539837863548483 -0.321974725759274
-2.70853749359616 -0.373724234536028 -0.508573185141811 -0.373724234536028 -0.552880697483712 -0.785976740673708 -0.508573185141811 -0.785976740673708 1.94567771588344
-0.0469300865609036 -0.00750881384974457 -0.752758588436893 -0.00750881384974457 2.69003256167099 0.99304063162872 -0.752758588436893 0.99304063162872 1.79836091701383
3.63674206673332 0.192013836680746 1.12520108294917 0.192013836680746 -0.303381861955578 -0.645166491247305 1.12520108294917 -0.645166491247305 0.0864062265063355
1.51241509465421 0.950057705398269 1.17653610789725 0.950057705398269 -1.00763696027089 -1.31280701109579 1.17653610789725 -1.31280701109579 -0.735095153873812
3.02732044553125 -0.928637847278716 0.432196230808962 -0.928637847278716 -1.32579114045452 1.31995065084899 0.432196230808962 1.31995065084899 -0.990936403070999
-6.08902498697602 1.29413575924276 0.780743579303638 1.29413575924276 0.193732898090233 -1.5827977773972 0.780743579303638 -1.5827977773972 -0.149174331529479
-3.72608570116267 -0.0267102917646069 -0.114472678991173 -0.0267102917646069 1.05505652470197 0.352957426889449 -0.114472678991173 0.352957426889449 1.0645959146179
-6.12091937972685 0.811602917754921 0.877460911081096 0.811602917754921 -1.02273589635942 -1.00723989792974 0.877460911081096 -1.00723989792974 -1.21643587673053
-0.685051638471643 0.427684172084506 0.0927279842130124 0.427684172084506 1.42687551217574 0.773994807002491 0.0927279842130124 0.773994807002491 -0.791026477572229
0.564094927904218 0.00565981533014266 0.507496774602792 0.00565981533014266 1.04140602074625 0.0698043890717595 0.507496774602792 0.0698043890717595 2.12431735391354
-0.128310786670543 -0.272174395967818 1.07314476124454 -0.272174395967818 -2.87727218594551 -0.966219105685754 1.07314476124454 -0.966219105685754 -3.05224144049625
0.691779264539871 -0.643199260007577 0.0680120063452121 -0.643199260007577 -3.22571230094434 -0.509118447498445 0.0680120063452121 -0.509118447498445 -2.16083860159645
3.53243767143104 -0.424969366024093 0.661490777883656 -0.424969366024093 -1.62295993178432 -0.503809836643948 0.661490777883656 -0.503809836643948 1.33067330899852
-0.645764602833481 -0.485752134874742 -0.030478565325474 -0.485752134874742 0.798157429460851 0.821016353454956 -0.030478565325474 0.821016353454956 -0.36764769423853
-2.12625594193167 0.0616864824495135 0.383612812732912 0.0616864824495135 -0.283372278752452 -1.64818570294794 0.383612812732912 -1.64818570294794 0.0231324309185676
-4.86071940908202 -0.186728626804339 -0.0462008973536509 -0.186728626804339 -0.231004486768254 -1.77680951072582 -0.0462008973536509 -1.77680951072582 0.119352318163598
0.403433224907035 -0.0401521219101789 0.00573601741573984 -0.0401521219101789 -0.967474937454786 0.154872470224976 0.00573601741573984 0.154872470224976 -0.980858978091512
-2.57330483872705 -0.548662593242105 0.173871948562639 -0.548662593242105 0.185463411800148 1.2267631926364 0.173871948562639 1.2267631926364 -0.77662803691312
-7.00121186788947 0.25132555423193 -0.646265710882105 0.25132555423193 -4.8051052392438 0.817805374881675 -0.646265710882105 0.817805374881675 0.123668129860156
-0.862799426763424 -0.442903705738558 -0.0517679656058055 -0.442903705738558 2.36790509345073 -0.364293091300112 -0.0517679656058055 -0.364293091300112 0.0575199617842283
2.75817063869866 -0.61632959449061 0.361758675027097 -0.61632959449061 -1.00105707428133 -1.29965153620846 0.361758675027097 -1.29965153620846 0.547423180199734
0.684077591366137 0.111186164987884 0.358057141486408 0.111186164987884 1.33988751366756 0.124377743884752 0.358057141486408 0.124377743884752 2.15022736018943
0.999533958809343 -1.45175029357163 -0.675413238185731 -1.45175029357163 -1.21690833431739 0.250368700361952 -0.675413238185731 0.250368700361952 -1.93307926791089
-3.75948884898371 -0.296903221919739 -0.389444485894723 -0.296903221919739 -0.973611214736807 -0.480057806870227 -0.389444485894723 -0.480057806870227 1.72550898453355
-5.91781368914605 0.922357339893098 1.09287718424308 0.922357339893098 -0.579379925689152 -1.23045569502546 1.09287718424308 -1.23045569502546 -1.28858746014477
0.719202417661442 0.0306043581983593 0.330909623019759 0.0306043581983593 -0.42080992522744 0.168323970090976 0.330909623019759 0.168323970090976 -1.29494690626808
-1.46065816066613 0.174894595553444 -0.0749548266657618 0.174894595553444 1.17237036579781 -1.42414170664947 -0.0749548266657618 -1.42414170664947 1.0090072820391
2.22564762792474 -0.081355265772706 0.300239671304034 -0.081355265772706 -3.23677735967123 -0.377720876801849 0.300239671304034 -0.377720876801849 -0.468761293261782
0.38427538000934 -0.051619080896777 -0.0363245384088431 -0.051619080896777 -0.99988071514868 0.151033607068348 -0.0363245384088431 0.151033607068348 -0.892818917733143
-1.56197647276267 0.453599486014919 0.318848174269901 0.453599486014919 0.31505236267145 0.723102109504955 0.318848174269901 0.723102109504955 -0.759162319690241
-6.56144569601249 0.298422559531085 0.338854003080457 0.298422559531085 0.560264289184165 -0.573741437033956 0.338854003080457 -0.573741437033956 -0.288796025352663
0.984289225374272 0.36184346761378 -0.558701312688634 0.36184346761378 1.92920688173357 0.879298374667683 -0.558701312688634 0.879298374667683 1.91608302539525
-0.138954453778533 -0.0337997320001837 -0.751105155559639 -0.0337997320001837 2.79035565290406 0.99709209400542 -0.751105155559639 0.99709209400542 1.68810883712029
3.53277094760862 0.00959470653886101 1.15136478466332 0.00959470653886101 -0.485492150866367 -0.683143105566904 1.15136478466332 -0.683143105566904 -0.101703889311927
-1.50525921960826 0.149949194290478 -0.00192242556782664 0.149949194290478 1.12461895717858 -1.50333679404043 -0.00192242556782664 -1.50333679404043 0.893927889039386
0.483884128463248 0.174423348632101 -0.677062675872995 0.174423348632101 2.23561969429532 0.947137538271086 -0.677062675872995 0.947137538271086 1.99555314994146
-5.57740461899767 -0.803507745392761 0.601157384083581 -0.803507745392761 -3.00578692041791 0.19449209485057 0.601157384083581 0.19449209485057 2.10601541090719
-0.882871839743675 -0.605071648789846 -0.553697640873727 -0.605071648789846 0.256870039580595 1.01986919418666 -0.553697640873727 1.01986919418666 0.0304438565428853
-0.699430062610985 -0.467574793237178 -0.181619961009482 -0.467574793237178 3.24790589847808 -0.16809507029601 -0.181619961009482 -0.16809507029601 0.740004734751401
3.71345202835954 0.330426150480001 1.03162117911489 0.330426150480001 -0.288162340534884 -0.633957149176746 1.03162117911489 -0.633957149176746 0.234372036968373
2.1889541052277 0.485799213953928 0.0361968041769593 0.485799213953928 0.605820196224898 -0.493419593780656 0.0361968041769593 -0.493419593780656 -0.514375638304159
1.76304069259828 0.832706516048046 1.36295871132462 0.832706516048046 -1.26150251511647 -1.14281790823146 1.36295871132462 -1.14281790823146 -0.932248444403215
2.63705936783072 -0.315595210687523 -0.154893354938662 -0.315595210687523 -3.36312196910569 -0.505339570487384 -0.154893354938662 -0.505339570487384 0.187808192863127
1.36977353077601 0.15452876879228 -0.337673976249798 0.15452876879228 2.28359180548592 0.0572328773304742 -0.337673976249798 0.0572328773304742 -2.35227125828249
0.00388201457895097 -0.0912273426053478 1.23448063610641 -0.0912273426053478 -2.25350946308104 -0.729818740842782 1.23448063610641 -0.729818740842782 -2.57571667313397
-1.50847620894207 -0.032256723964799 -0.280823243928838 -0.032256723964799 3.14787676809421 1.29026895859196 -0.280823243928838 1.29026895859196 0.525594855191136
2.53662577136514 0.107127483556899 0.237210856447419 0.107127483556899 -0.0975625296678902 -0.292687589003671 0.237210856447419 -0.292687589003671 0.214254967113798
0.958661539845133 0.991061631649044 -1.05967359076321 0.991061631649044 3.7641283125132 0.312565591520083 -1.05967359076321 0.312565591520083 -0.333530356804967
-3.94322891339247 -0.308516687600389 -0.343224814955432 -0.308516687600389 -0.96797110734622 -0.41264106966552 -0.343224814955432 -0.41264106966552 1.59850208762951
-0.356264595357151 0.133834847991311 -0.371344578229412 0.133834847991311 2.77660184635494 0.90291397447659 -0.371344578229412 0.90291397447659 0.041469952898716
-2.14995486520084 -0.237382808276215 -0.33194994328056 -0.237382808276215 -1.28341111791612 1.04602830963991 -0.33194994328056 1.04602830963991 -0.864613805754018
-3.45455675394661 0.0171206006528191 -0.460353928664692 0.0171206006528191 1.48568767887241 1.1014253086647 -0.460353928664692 1.1014253086647 1.44954418860535
-3.43302774256784 -0.777657963313604 0.365382007888553 -0.777657963313604 -0.556865626995922 0.119188783321934 0.365382007888553 0.119188783321934 1.20751914906484
1.78615687861621 0.668614874348315 1.46713206714145 0.668614874348315 -1.36015368724572 -0.941791808724912 1.46713206714145 -0.941791808724912 -0.815710146704944
0.501956211668121 -0.521411878787041 0.55059537946542 -0.521411878787041 -3.53314914879577 -0.953327688827052 0.55059537946542 -0.953327688827052 -2.67904536227521
-0.019060422929372 0.558470391830598 -0.314496978334637 0.558470391830598 2.71039214055669 -0.0476510573234299 -0.314496978334637 -0.0476510573234299 -1.13409516429763
1.99029140957491 0.767228262503429 -0.195089827140236 0.767228262503429 1.69202907769705 0.51961425113313 -0.195089827140236 0.51961425113313 1.43691161143674
1.04279505362259 -1.05057710626157 -0.647855882194633 -1.05057710626157 -0.451359053060525 0.291826973961546 -0.647855882194633 0.291826973961546 -0.842407198168997
-0.92476225452609 -0.489353359686723 -0.102109165603922 -0.489353359686723 3.13455872523739 -0.306327496811767 -0.102109165603922 -0.306327496811767 0.928615430586615
-4.20808740064721 0.197553784077786 0.765281163563462 0.197553784077786 1.02421088055862 0.0383599580733565 0.765281163563462 0.0383599580733565 -1.78182005250741
-3.02830844746527 -0.795099420726737 -0.248348245214889 -0.795099420726737 0.752745456426523 -1.23596568548805 -0.248348245214889 -1.23596568548805 0.889433250304485
-1.6863718588347 -0.626311117122001 0.0311210492979876 -0.626311117122001 1.55216233373713 0.0544618362714783 0.0311210492979876 0.0544618362714783 0.672992691068982
2.28760938021297 -0.160802667730452 0.382863494596313 -0.160802667730452 -1.16581934104577 0.0689154290273364 0.382863494596313 0.0689154290273364 -1.06436051497775
0.225271716684882 -0.17372649337563 -0.0286362351718071 -0.17372649337563 -0.230998963719244 0.271089692959774 -0.0286362351718071 0.271089692959774 -0.250089787167115
1.17965562888833 0.24814762419981 0.0610824921107225 0.24814762419981 1.81338648453707 0.187065132089088 0.0610824921107225 0.187065132089088 -0.0858972545307035
1.5864220137171 0.519262079098739 -1.09006855575507 0.519262079098739 3.50883713743927 0.341720265289244 -1.09006855575507 0.341720265289244 -1.34779054354305
-0.764287595950919 -0.598882071454079 -0.887866436092237 -0.598882071454079 0.00380242585050209 1.06277802521533 -0.887866436092237 1.06277802521533 0.465797166686506
4.38968720794855 0.0912537834480427 -0.754744833934853 0.0912537834480427 1.09124316039951 -1.27184960680709 -0.754744833934853 -1.27184960680709 1.30036641413461
-6.62114526331253 0.638509040588292 0.474044590739793 0.638509040588292 -1.36215261992169 -0.686880937602557 0.474044590739793 -0.686880937602557 -0.835866380406492
0.893768228177606 0.11840519262182 0.46216220345936 0.11840519262182 1.09047362882353 0.133683281992377 0.46216220345936 0.133683281992377 0.156600416048213
-3.58584905460131 -0.0190533956142471 -0.320097046319352 -0.0190533956142471 1.05174743790644 0.691638260797171 -0.320097046319352 0.691638260797171 1.34707506992727
-4.4232792137245 0.0229284451683343 0.536907757691829 0.0229284451683343 0.042035482808613 0.601871685668776 0.536907757691829 0.601871685668776 -0.764281505611145
0.612798551516599 0.0546804861353273 0.429901753063953 0.0546804861353273 1.19919962696787 0.0980477682426559 0.429901753063953 0.0980477682426559 2.14950876531976
-6.79335972245389 0.207187510596834 -0.519960964093978 0.207187510596834 -4.63382836200227 0.836718792794907 -0.519960964093978 0.836718792794907 0.448242210425843
-3.40747769386001 -0.827805315457515 -0.18866260677869 -0.827805315457515 0.833580701379312 -1.34373979113801 -0.18866260677869 -1.34373979113801 0.664169381006611
1.65369421585808 0.823986045271845 -1.24170119322216 0.823986045271845 3.86434196231657 0.425344648369494 -1.24170119322216 0.425344648369494 -0.944150676873989
-7.03390490979258 -0.356548263520885 0.192139897564033 -0.356548263520885 -4.73813025745532 0.540764866340009 0.192139897564033 0.540764866340009 1.95507297830619
3.11781486207541 0.0900106256250272 -0.112992061954821 0.0900106256250272 -0.75264203980076 0.128313019508018 -0.112992061954821 0.128313019508018 -0.346636664641062
-3.56176179387176 -0.0133327981588782 -0.365699606643517 -0.0133327981588782 1.09138476357675 0.780921035020011 -0.365699606643517 0.780921035020011 1.39803912123095
-5.83943566953839 1.03881099199223 1.21517629100583 1.03881099199223 -0.104656331282799 -1.43224127440719 1.21517629100583 -1.43224127440719 -1.20548588996113
2.50349478561059 -0.905229452028714 0.109016880244318 -0.905229452028714 -1.22449317274422 1.12910340253044 0.109016880244318 1.12910340253044 -1.02203325229048
0.91559276490224 -1.3840807826123 -0.612339110284938 -1.3840807826123 -0.480151619810729 0.0933088168053239 -0.612339110284938 0.0933088168053239 -1.41712765523086
-6.79194034991376 0.115421195515675 -0.38208395756913 0.115421195515675 -4.61883784123933 0.805958347997385 -0.38208395756913 0.805958347997385 0.756207832688904
-3.18746483221683 -0.302558632804137 -0.48178126242697 -0.302558632804137 -0.857570647120006 -0.649441141751555 -0.48178126242697 -0.649441141751555 1.9560319254535
3.34749327488127 -0.331091916779516 0.721857376699527 -0.331091916779516 -1.64583481887492 -0.383065647901882 0.721857376699527 -0.383065647901882 1.20117067482801
0.948116821066523 -0.339023590563181 0.135992513728734 -0.339023590563181 -0.440539128980405 0.0881078257960809 0.135992513728734 0.0881078257960809 -0.204946464351753
-6.99284968382932 0.471211080600484 0.237536733253523 0.471211080600484 -0.836206548770531 -0.531078062152185 0.237536733253523 -0.531078062152185 -0.43065602858159
2.85986502038215 -0.920841493969202 0.327064209274474 -0.920841493969202 -1.30825683709789 1.26542700016909 0.327064209274474 1.26542700016909 -1.02012884321324
2.62840768572523 -0.385265114648713 -0.97587457974471 -0.385265114648713 -1.02672175223642 0.741195322090672 -0.97587457974471 0.741195322090672 -1.44914441601369
0.748329066180816 -0.639481202009061 0.0971855930104956 -0.639481202009061 -3.33152212839979 -0.573394998761924 0.0971855930104956 -0.573394998761924 -2.17306985971468
4.24209951672265 0.169151817647095 -0.311695484203635 0.169151817647095 1.54897450991441 -1.19926738129569 -0.311695484203635 -1.19926738129569 0.193859386516895
1.4636231367108 0.276695377865796 -0.249979962071857 0.276695377865796 2.22692073082334 0.188916154542854 -0.249979962071857 0.188916154542854 -0.831994377582669
3.12281468787239 -0.057124658924495 -0.584575676327332 -0.057124658924495 0.472230513775826 -1.47000788965701 -0.584575676327332 -1.47000788965701 0.801649380240414
1.68645069745859 0.759284363787915 -1.22286753062325 0.759284363787915 3.80214506791285 0.417797175049129 -1.22286753062325 0.417797175049129 -1.06261655937153
0.150726995429142 -0.616434763357646 -1.18069479752828 -0.616434763357646 -1.06281855751318 0.195172135106966 -1.18069479752828 0.195172135106966 0.0405803449232306
1.2239409150914 -0.978763561670866 -0.581809751370952 -0.978763561670866 -0.579863899359678 0.430033294491573 -0.581809751370952 0.430033294491573 -0.80947443669002
1.2058335674848 -0.205452534587378 0.0153609371654114 -0.205452534587378 1.22695485608724 -0.02688164003947 0.0153609371654114 -0.02688164003947 1.38248434488703
2.29522243444285 -0.116213794149005 0.21112172603736 -0.116213794149005 -3.23074347734235 -0.389316210399167 0.21112172603736 -0.389316210399167 -0.284723795665063
3.32270569566908 -1.29548839151305 -0.121633038249362 -1.29548839151305 -3.87681175880506 -1.14296442291464 -0.121633038249362 -1.14296442291464 -0.71435276432165
2.89714606875382 0.317677868340045 0.0475565671167731 0.317677868340045 1.32968161658498 -1.07668067952374 0.0475565671167731 -1.07668067952374 -0.852213682732575
-0.787142544727863 -0.47267138102531 -0.150483133550915 -0.47267138102531 3.25275080983132 -0.239229596927096 -0.150483133550915 -0.239229596927096 0.846949943959637
0.593376373839046 -0.548629958762659 0.46886461014823 -0.548629958762659 -3.56804022826495 -0.914383264604431 0.46886461014823 -0.914383264604431 -2.58167360027677
-0.83299600061172 -0.612385187664324 -0.775941480021876 -0.612385187664324 0.055152703236849 1.05360681355912 -0.775941480021876 1.05360681355912 0.298585324420183
0.257362506135004 -0.606914566706428 0.0537772400879113 -0.606914566706428 -0.326504671962319 1.04673556599684 0.0537772400879113 1.04673556599684 -0.633803186750383
-4.2718220071034 -0.652746762387409 0.318648567437641 -0.652746762387409 0.16415229231636 0.662402779582489 0.318648567437641 0.662402779582489 -0.467351232241873
-1.09812621527426 0.251493940910712 -0.378200811903896 0.251493940910712 1.08084800559337 -0.886948096952283 -0.378200811903896 -0.886948096952283 1.43601120458941
4.08310403308314 0.0665620126492361 -0.756905172411314 0.0665620126492361 0.924261089929393 -1.31982962224485 -0.756905172411314 -1.31982962224485 1.25897292496555
-1.01072460443932 -0.53543184419434 -0.118338197448749 -0.53543184419434 2.50644182137351 -0.011639822699877 -0.118338197448749 -0.011639822699877 0.580051164543869
3.50433348178338 -0.278864600943252 -0.778090739694808 -0.278864600943252 -0.624032673439445 0.370519399854671 -0.778090739694808 0.370519399854671 -0.0351018378809688
1.0976914481013 0.225265375436441 0.158449374247666 0.225265375436441 1.65703682948162 0.177539660301602 0.158449374247666 0.177539660301602 0.0286354290809035
2.9349831756077 0.489163862601284 0.340287904418284 0.489163862601284 -3.41061286019235 -0.663174722815179 0.340287904418284 -0.663174722815179 -1.93152054837424
-0.761062803419981 -0.22964737958558 -0.588352790673801 -0.22964737958558 2.03835773285052 1.12356403896416 -0.588352790673801 1.12356403896416 0.611127737409561
0.809128619822637 0.0439951731818455 0.378741056087192 0.0439951731818455 -0.306053378656317 0.16450369102777 0.378741056087192 0.16450369102777 -1.28542419035653
2.41640832910598 -0.541015472418508 0.198818406825176 -0.541015472418508 -0.682482415736421 -1.47010918123616 0.198818406825176 -1.47010918123616 0.288669032986553
2.40132820742256 -0.272748160175875 -0.236508894138521 -0.272748160175875 -0.0267026170801556 -1.57545440772918 -0.236508894138521 -1.57545440772918 0.30326543683891
1.33898772803763 -0.172648847454709 0.0863244237273544 -0.172648847454709 0.815286224091681 0.222525181163847 0.0863244237273544 0.222525181163847 0.98409843049184
-2.93605258130103 0.062671238798793 -0.345641377617586 0.062671238798793 2.68536762610586 1.41105243719707 -0.345641377617586 1.41105243719707 1.00273982078069
3.51499857786466 0.00380617063114743 -0.681304542975391 0.00380617063114743 0.66037060450408 -1.40828313352455 -0.681304542975391 -1.40828313352455 1.02385989977866
3.40108524432165 -0.600417192031966 0.537114420987062 -0.600417192031966 -1.42335321561572 -0.901584920942569 0.537114420987062 -0.901584920942569 1.11451242354815
3.33466422530387 -1.07869138418525 -0.462020144839203 -1.07869138418525 -4.12531794597012 -1.01296466901984 -0.462020144839203 -1.01296466901984 -0.409825400443142
-0.770815328826448 -0.49386409258981 -0.172368251923502 -0.49386409258981 2.93800717042644 -0.0697219895420908 -0.172368251923502 -0.0697219895420908 0.60813068656157
-0.552702338059232 -0.461534942090699 -0.945861733173532 -0.461534942090699 0.579292828550054 1.06172029888354 -0.945861733173532 1.06172029888354 0.750231695991054
1.73570450167438 -0.244950580170144 0.673614095467895 -0.244950580170144 -1.13289643328691 0.0306188225212679 0.673614095467895 0.0306188225212679 -1.12906908047176
-4.65556575221747 -0.517285083579719 0.0868575700040573 -0.517285083579719 -0.397614653796351 0.185296149341989 0.0868575700040573 0.185296149341989 0.322338093126168
2.39484697840874 0.469054424115087 -0.072455561448672 0.469054424115087 0.276475168685722 -0.0419479566281785 -0.072455561448672 -0.0419479566281785 0.163978375910152
-4.63189089495919 -0.604494489200825 -0.0866313758408826 -0.604494489200825 0.37925291201453 -1.67872354962777 -0.0866313758408826 -1.67872354962777 0.204065018647412
3.82514067752398 -0.402440745439194 -0.797067107471801 -0.402440745439194 -1.39096024637236 0.783391936510275 -0.797067107471801 0.783391936510275 -1.83638010054778
-0.276999210036157 -0.610173085044682 0.164649880091422 -0.610173085044682 -2.05715497243636 -0.141405191137339 0.164649880091422 -0.141405191137339 -2.46006291430713
0.801681921159638 -0.0265332077925176 1.127661331182 -0.0265332077925176 -0.265332077925176 -0.18762768367566 1.127661331182 -0.18762768367566 1.1996800380474
1.518060800304 0.576787952590751 -0.0112727287151287 0.576787952590751 1.81303053501653 0.313757615904415 -0.0112727287151287 0.313757615904415 1.71721234093794
2.97586710110606 0.0344695031016146 -0.026809613523478 0.0344695031016146 -0.87322741190757 0.120643260855651 -0.026809613523478 0.120643260855651 -0.541937187653163
3.4574036670402 -0.153406707356193 0.974132591711826 -0.153406707356193 -0.916605076453254 -0.761280785255108 0.974132591711826 -0.761280785255108 -0.170664961933765
2.88346313042143 0.0723244877597455 -0.744180913527908 0.0723244877597455 0.902152821003141 0.532917278229704 -0.744180913527908 0.532917278229704 1.86140392181661
-0.964779568327602 -0.468004402926312 -0.0249346608116478 -0.468004402926312 2.40139964124485 -0.387446267996373 -0.0249346608116478 -0.387446267996373 0.247428557284812
-1.98135645395632 -0.249117916725502 -0.260704796573199 -0.249117916725502 -0.886396308348878 1.19151747767159 -0.260704796573199 1.19151747767159 -0.598655458797717
-0.155489039576429 -0.233233559364643 1.1234083109397 -0.233233559364643 -2.74632516151867 -0.932934237458572 1.1234083109397 -0.932934237458572 -3.01454375478801
3.7866272720736 0.469003580906578 0.891875662051853 0.469003580906578 -0.374818435560585 -0.6362302675413 0.891875662051853 -0.6362302675413 0.359441268973484
-0.228852512725418 -0.488475111195431 0.417319287911057 -0.488475111195431 -0.873101183002857 -0.0384626071807426 0.417319287911057 -0.0384626071807426 -1.54619680866585
-0.497126925620908 0.362921557867736 -0.0321336796028724 0.362921557867736 1.88832623078056 0.807122422966266 -0.0321336796028724 0.807122422966266 -0.661575756529726
0.185149680845973 -0.192784719231374 0.00190875959635024 -0.192784719231374 -0.0858941818357608 0.303492775819688 0.00190875959635024 0.303492775819688 -0.244321228332831
0.910530103273868 0.0554734726784499 0.42083324100893 0.0554734726784499 -0.193200715190464 0.156856026194238 0.42083324100893 0.156856026194238 -1.2548482095539
-0.814209876154997 0.448762187555196 0.147693884511837 0.448762187555196 1.19101863279417 0.761191558637928 0.147693884511837 0.761191558637928 -0.821783921514579
0.970157053735982 -1.41642929845453 -0.715975905657155 -1.41642929845453 -1.30389108022116 0.273584289153547 -0.715975905657155 0.273584289153547 -1.90344813943
0.297661660836039 -0.461083749138177 0.715944386847465 -0.461083749138177 -3.40851784173032 -1.00387854242742 0.715944386847465 -1.00387854242742 -2.85988654528743
2.83045305163399 -0.190882051847252 0.832939862606189 -0.190882051847252 -1.64852681140808 -0.273790417801108 0.832939862606189 -0.273790417801108 0.736534785915658
3.85219864587603 0.723851419714837 0.479359051885623 0.723851419714837 -1.0049213858807 -0.67957327435994 0.479359051885623 -0.67957327435994 0.336898932048129
-1.19626257293843 0.245781074375792 -0.334108647979592 0.245781074375792 1.13289713970092 -1.00808643786946 -0.334108647979592 -1.00808643786946 1.37675804943315
1.52416257764432 1.01610838509622 0.367901311845182 1.01610838509622 -2.8497752409595 -0.081755847076707 0.367901311845182 -0.081755847076707 -1.69935367852298
-0.651308193586643 -0.577866913597645 0.332418425213361 -0.577866913597645 -1.51134423556307 -0.0831046063033402 0.332418425213361 -0.0831046063033402 -2.46801354068292
-4.58011926727273 -0.00573710137862973 0.587096707746442 -0.00573710137862973 0.300241638814956 0.533550428212565 0.587096707746442 0.533550428212565 -0.984869069998104
-3.53772861694226 -0.00761620800202854 -0.403659024107513 -0.00761620800202854 1.15575956430783 0.868247712231253 -0.403659024107513 0.868247712231253 1.43755926038289
-4.00424770946701 -0.796999303711223 -0.125132740920844 -0.796999303711223 0.762347160071605 -1.50351801014122 -0.125132740920844 -1.50351801014122 0.398499651855611
-2.01012860129734 -0.233646071812659 -0.287712931405671 -0.233646071812659 -0.994444024657185 1.16436844052094 -0.287712931405671 1.16436844052094 -0.629492722404354
1.54171473777131 0.2537723516381 -0.337727114586042 0.2537723516381 2.31448016945124 0.166001463101614 -0.337727114586042 0.166001463101614 -1.29939076289884
2.7955768731437 -0.0344188671112083 -0.112817397753405 -0.0344188671112083 0.0152972742716481 0.946518845558229 -0.112817397753405 0.946518845558229 1.01918089834856
-2.59267603151384 -0.410282314050853 -0.500814092268647 -0.410282314050853 -0.417987146239601 -0.826343252243267 -0.500814092268647 -0.826343252243267 1.89538871843211
0.710212756962981 -0.0568170205570385 1.0397514761938 -0.0568170205570385 -0.0757560274093846 -0.140148650707362 1.0397514761938 -0.140148650707362 1.39959260638838
-6.82047351430183 -0.60029645290902 0.460095636604611 -0.60029645290902 -4.44693293404971 0.367286645529861 0.460095636604611 0.367286645529861 2.3676166020984
1.46378458950985 0.317882999282372 1.47139855356451 0.317882999282372 -1.15161206326847 -0.561529849031735 1.47139855356451 -0.561529849031735 -0.0970780416970119
-0.315799740322862 -0.0545130504128749 -0.691751812135792 -0.0545130504128749 3.00009753306719 0.986874188508943 -0.691751812135792 0.986874188508943 1.22184423339202
1.13415869587004 -0.237159659844663 0.898911613927353 -0.237159659844663 -0.722954446945828 0.0133880453138116 0.898911613927353 0.0133880453138116 -0.809020452534617
-4.62028724261609 -0.00765264967721092 0.616038299015479 -0.00765264967721092 0.428548381923811 0.491682741760801 0.616038299015479 0.491682741760801 -1.10963420319558
3.56222614230272 0.0633369949870635 1.1592589385511 0.0633369949870635 -0.408811513098319 -0.667917401681761 1.1592589385511 -0.667917401681761 -0.0499018748382925
3.19976423382098 -0.365138260916508 0.413182768931838 -0.365138260916508 -0.87633182619962 -0.557316292977828 0.413182768931838 -0.557316292977828 1.19726913974202
-2.04466080591307 -0.223966622744018 -0.310850226394715 -0.223966622744018 -1.0889411657554 1.13527908770244 -0.310850226394715 1.13527908770244 -0.671899868232055
2.65181154395984 -0.070842618863909 0.170405218348322 -0.070842618863909 -1.06072461758393 0.0976479341097124 0.170405218348322 0.0976479341097124 -0.859684753240409
3.20484398470134 -0.283120231821573 0.754987284857527 -0.283120231821573 -1.64864570366848 -0.337047895025682 0.754987284857527 -0.337047895025682 1.08047925205376
1.63777062749161 0.631067581235298 -0.0488326104527314 0.631067581235298 1.81056294140127 0.34558462781933 -0.0488326104527314 0.34558462781933 1.64152698214182
0.779609937246689 -0.631853440411905 0.138035674674601 -0.631853440411905 -3.41978523595243 -0.637685933708015 0.138035674674601 -0.637685933708015 -2.20468246592954
3.53114255647738 0.318051906877507 -0.327631783590685 0.318051906877507 -0.111126569872864 0.107294619187593 -0.327631783590685 0.107294619187593 0.779801964452682
2.85195752445722 0.0363184939441603 -0.128070478645197 0.0363184939441603 0.0172034971314444 0.883112852747477 -0.128070478645197 0.883112852747477 1.06088232310573
0.133844886085608 -0.632368592230553 0.0659525525639227 -0.632368592230553 -2.52171524509116 -0.238593057804779 0.0659525525639227 -0.238593057804779 -2.31609846356834
-2.29844470989799 0.384024674441186 0.391629123440022 0.384024674441186 -0.14828675547729 0.711015981391107 0.391629123440022 0.711015981391107 -0.60835591990683
0.368059261722064 0.179262023843907 -0.0915380547288036 0.179262023843907 2.22170486998034 -0.120143696831555 -0.0915380547288036 -0.120143696831555 -2.4867838201325
-2.86088501335845 -0.766239727669355 -0.281082915175191 -0.766239727669355 0.675754131688301 -1.18401364953933 -0.281082915175191 -1.18401364953933 1.01266858480925
3.3700265488233 -0.428558289445738 -0.31362674818529 -0.428558289445738 -0.153891385755515 0.399338406074437 -0.31362674818529 0.399338406074437 1.00905997242224
1.70541815822757 0.534135441055613 1.50130211468131 0.534135441055613 -1.34296910893983 -0.789757402132228 1.50130211468131 -0.789757402132228 -0.600902371187565
1.95623219113946 -0.897336358323673 -0.210221966809017 -0.897336358323673 -1.00828684080621 0.872031862318884 -0.210221966809017 0.872031862318884 -0.936266352177195
-4.26845102163907 -0.351042966985229 -0.23338570881985 -0.351042966985229 -0.885322647506704 -0.262317821483468 -0.23338570881985 -0.262317821483468 1.28265699475372