10.037461 0.000000 0.000000 0.000000 7.284071 0.000000 0.000000 0.000000 5.022123
10.068372 0.000000 0.000000 0.000000 5.923268 0.000000 0.000000 0.000000 4.721020
9.962652 0.000000 0.000000 0.000000 6.160092 0.000000 0.000000 0.000000 4.897825
10.061344 0.000000 0.000000 0.000000 6.314543 0.000000 0.000000 0.000000 4.994471
10.433846 0.000000 0.000000 0.000000 6.190228 0.000000 0.000000 0.000000 4.909585
9.919377 0.000000 0.000000 0.000000 6.162476 0.000000 0.000000 0.000000 4.911927
10.163346 0.000000 0.000000 0.000000 6.214909 0.000000 0.000000 0.000000 4.823226
10.104008 0.000000 0.000000 0.000000 6.173150 0.000000 0.000000 0.000000 4.961676
10.136021 0.000000 0.000000 0.000000 6.267941 0.000000 0.000000 0.000000 5.045048
10.072068 0.000000 0.000000 0.000000 6.198908 0.000000 0.000000 0.000000 4.956410
10.141548 0.000000 0.000000 0.000000 6.730909 0.000000 0.000000 0.000000 5.003533
9.893141 0.000000 0.000000 0.000000 6.204615 0.000000 0.000000 0.000000 4.906133
10.230726 0.000000 0.000000 0.000000 6.334132 0.000000 0.000000 0.000000 5.135813
9.936849 0.000000 0.000000 0.000000 6.258527 0.000000 0.000000 0.000000 4.971165
10.039181 0.000000 0.000000 0.000000 6.666749 0.000000 0.000000 0.000000 5.200776
10.000344 0.000000 0.000000 0.000000 6.300519 0.000000 0.000000 0.000000 4.950604
9.987581 0.000000 0.000000 0.000000 6.570060 0.000000 0.000000 0.000000 5.128385
10.071590 0.000000 0.000000 0.000000 6.140871 0.000000 0.000000 0.000000 4.922088
10.089948 0.000000 0.000000 0.000000 6.267820 0.000000 0.000000 0.000000 5.053207
10.070156 0.000000 0.000000 0.000000 6.182761 0.000000 0.000000 0.000000 4.950847
10.157019 0.000000 0.000000 0.000000 6.426661 0.000000 0.000000 0.000000 5.127464
10.154092 0.000000 0.000000 0.000000 6.269255 0.000000 0.000000 0.000000 4.986355
10.036362 0.000000 0.000000 0.000000 6.571781 0.000000 0.000000 0.000000 5.169793
10.344103 0.000000 0.000000 0.000000 6.172892 0.000000 0.000000 0.000000 5.045072
10.195787 0.000000 0.000000 0.000000 6.304401 0.000000 0.000000 0.000000 4.969842
10.036993 0.000000 0.000000 0.000000 6.650271 0.000000 0.000000 0.000000 5.128710
10.258205 0.000000 0.000000 0.000000 6.348000 0.000000 0.000000 0.000000 5.004636
10.085534 0.000000 0.000000 0.000000 6.613320 0.000000 0.000000 0.000000 5.212492
10.063930 0.000000 0.000000 0.000000 6.324149 0.000000 0.000000 0.000000 4.932239
9.908666 0.000000 0.000000 0.000000 6.555243 0.000000 0.000000 0.000000 5.037631
9.928022 0.000000 0.000000 0.000000 6.638940 0.000000 0.000000 0.000000 5.217800
9.872830 0.000000 0.000000 0.000000 6.724383 0.000000 0.000000 0.000000 5.319532
10.372290 0.000000 0.000000 0.000000 6.248047 0.000000 0.000000 0.000000 4.962295
10.190849 0.000000 0.000000 0.000000 6.421320 0.000000 0.000000 0.000000 5.127350
8.981631 0.000000 0.000000 0.000000 7.917939 0.000000 0.000000 0.000000 5.322998
10.023547 0.000000 0.000000 0.000000 6.686485 0.000000 0.000000 0.000000 5.248068
10.201801 0.000000 0.000000 0.000000 6.328690 0.000000 0.000000 0.000000 4.957334
9.871159 0.000000 0.000000 0.000000 7.223912 0.000000 0.000000 0.000000 5.311120
10.406300 0.000000 0.000000 0.000000 6.218700 0.000000 0.000000 0.000000 4.946900
10.406300 0.000000 0.000000 0.000000 6.218700 0.000000 0.000000 0.000000 4.946900
10.406300 0.000000 0.000000 0.000000 6.218700 0.000000 0.000000 0.000000 4.946900
10.406300 0.000000 0.000000 0.000000 6.218700 0.000000 0.000000 0.000000 4.946900
10.406300 0.000000 0.000000 0.000000 6.218700 0.000000 0.000000 0.000000 4.946900
10.406300 0.000000 0.000000 0.000000 6.218700 0.000000 0.000000 0.000000 4.946900
10.406300 0.000000 0.000000 0.000000 6.218700 0.000000 0.000000 0.000000 4.946900
10.406300 0.000000 0.000000 0.000000 6.218700 0.000000 0.000000 0.000000 4.946900
10.406300 0.000000 0.000000 0.000000 6.218700 0.000000 0.000000 0.000000 4.946900
10.406300 0.000000 0.000000 0.000000 6.218700 0.000000 0.000000 0.000000 4.946900
10.406300 0.000000 0.000000 0.000000 6.218700 0.000000 0.000000 0.000000 4.946900