4.82144 6.36117 2.50409 2.97174 4.42284 0.126099 2.40484 1.61746 2.55136 7.34674 1.88292 4.81024 8.22848 5.31303 2.64346 1.41497 4.80932 2.32005 4.10748 1.31809 4.75599 8.9726 1.15023 2.56356 6.35295 4.81127 0.192828 1.7788 4.99775 3.85441 3.82457 1.18668 1.23652 8.65559 1.26701 0.998254 6.69601 5.03828 3.78352 4.72266 5.06352 0.383478 0.490373 1.11418 2.60923 5.61357 1.08995 4.4734 9.95573 4.67535 2.18541 2.18911 5.82469 1.45083 3.25471 0.332987 3.81754 8.36212 2.41016 3.20867 6.74433 3.39293 0.629998 8.42387 -0.160261 3.24072 7.00672 5.74827 1.20069 2.14481 3.44717 1.69545 3.58499 2.77345 4.14649
5.30657 0.204344 2.49011 2.85469 4.70128 4.53308 2.34294 1.74098 2.39088 7.52471 1.6086 0.27207 8.12868 4.49602 2.68954 1.08163 4.53755 1.97542 4.21184 1.7619 4.5191 9.33331 1.62819 2.93229 6.2126 4.50495 0.450569 1.22656 4.50273 3.45281 4.00837 1.76097 1.33572 9.09041 1.68535 1.44588 6.42335 4.52767 3.65645 4.75037 4.65929 0.810618 0.706862 1.6239 3.34988 5.73698 1.5286 4.18471 9.67015 4.56013 1.56522 1.82832 5.8057 1.33278 3.4523 0.551202 3.80121 8.63608 2.81944 3.65625 6.83986 3.24894 1.20805 8.52823 0.390289 3.5688 6.92834 5.73007 1.16465 1.77878 3.33244 1.25084 3.46828 2.94082 3.81301
5.13512 6.20796 2.48539 2.92902 4.64181 4.8908 2.4858 1.44046 2.5036 7.5227 1.57598 4.86565 8.0132 4.66703 2.44106 1.31032 4.57026 2.22189 4.13971 1.72989 4.70844 9.12688 1.55279 2.68217 6.20504 4.6587 0.329573 1.39491 4.70061 3.78422 4.14682 1.62344 1.33412 9.0039 1.46838 1.1355 6.34542 4.71205 3.74845 4.73446 4.60885 0.843226 0.668626 1.58706 3.06123 5.61068 1.6842 4.29446 9.82979 4.5 1.74283 2.10454 5.86812 1.66437 3.48579 0.408224 4.06742 8.29772 2.6516 3.30648 7.03513 3.42243 1.0333 8.41276 0.282525 3.41602 6.83924 5.98902 1.00446 2.05864 3.46078 1.4566 3.40549 2.92567 3.97268
5.40384 -0.0882241 2.59835 2.90601 4.53273 4.83685 2.2278 1.50912 2.3819 7.57496 1.49685 0.129632 7.95878 4.62842 2.45784 1.25671 4.76129 1.9658 4.20919 1.53032 4.76619 9.20111 1.4836 2.8539 6.26093 4.67811 0.27386 1.48783 4.63907 3.54833 3.82825 1.59117 1.25853 8.99572 1.53624 1.35119 6.31226 4.65872 3.7422 4.71826 4.88141 0.695676 0.650875 1.57351 3.22074 5.76917 1.37984 4.55263 9.79829 4.83287 1.94645 1.91116 6.01802 1.33896 3.49741 0.326051 3.99273 8.53086 2.79628 3.39089 6.89286 3.47874 1.07146 8.41516 0.339799 3.5184 6.97426 5.95127 1.05726 1.82296 3.47659 1.1764 3.5882 2.78107 3.90227
5.16383 -0.0024324 2.34779 2.98973 4.43416 4.80736 2.16516 1.64248 2.31866 7.49464 1.72664 0.0557412 8.24263 4.50366 2.7149 1.10459 4.7048 2.22877 4.04152 1.51569 4.56891 9.29906 1.44578 2.82856 6.24346 4.7502 0.288572 1.47243 4.64751 3.76221 3.81838 1.65647 1.18793 9.08698 1.54816 1.30837 6.51163 4.67712 3.65091 4.75385 4.47934 0.709355 0.350295 1.44197 3.0903 5.5943 1.88268 4.33523 10.0186 4.48618 2.02865 1.80867 5.91419 1.53324 3.58799 0.245811 3.88991 8.54162 2.73365 3.59879 7.19014 3.58246 0.957162 8.4388 0.327794 3.46592 6.84001 6.01772 0.824423 1.95526 3.53197 1.5815 3.24681 2.64599 3.778
5.18579 0.0594341 2.43752 2.89094 4.70954 4.74613 2.44239 1.70917 2.48263 7.33624 1.49722 0.225916 8.04501 4.59996 2.60868 1.28511 4.7357 2.07347 4.211 1.5602 4.5474 9.1454 1.63256 2.83722 6.19386 4.49757 0.373112 1.40699 4.738 3.62809 3.99669 1.53332 1.21843 8.89813 1.61326 1.35079 6.43691 4.69072 3.74619 4.68255 4.44121 0.751871 0.830492 1.39584 3.22729 5.68241 1.67606 4.07951 9.73411 4.68282 1.62383 2.07268 6.00947 1.41282 3.44067 0.31205 3.92354 8.75455 2.89146 3.54737 6.85051 3.25594 1.0103 8.34453 0.390225 3.46 6.79381 5.67129 1.08792 1.99685 3.47941 1.49213 3.51925 2.7579 3.79426
5.23967 5.9523 2.49149 2.87697 4.75987 0.0948368 2.25459 1.81863 2.54473 7.45192 1.46062 0.101385 8.21344 4.72534 2.48952 1.19469 4.82566 2.17432 4.1794 1.47708 4.62534 9.17626 1.5605 2.78923 6.34685 4.43634 0.33538 1.47298 4.83895 3.65082 3.86015 1.47488 1.30248 8.92675 1.39365 1.24961 6.68032 4.54668 3.63756 4.7562 4.51783 0.588242 0.412266 1.74465 3.11676 5.67657 1.37168 4.2078 9.8892 4.67574 1.80665 1.76326 6.01487 1.38436 3.44418 0.305127 3.8945 8.35527 2.82101 3.30388 6.91865 3.21288 1.08081 8.3592 0.383334 3.52129 7.0748 5.65103 1.03547 1.88639 3.57311 1.47423 3.47721 2.81651 3.87229
5.16672 6.10703 2.4919 2.83899 4.69945 4.8244 2.36873 1.70714 2.34389 7.5867 1.59837 0.0816247 8.05385 4.60033 2.65015 1.26249 4.625 2.0408 4.18064 1.71048 4.65551 9.28428 1.50261 2.76672 6.22087 4.56924 0.382789 1.40856 4.54461 3.58925 3.94302 1.64864 1.16997 9.07549 1.63289 1.23504 6.44159 4.58002 3.82423 4.74771 4.58644 0.732487 0.609771 1.43525 3.19793 5.65855 1.41723 4.40864 9.74801 4.52046 1.95002 1.83283 5.88348 1.26481 3.32197 0.596914 3.81248 8.56885 2.80269 3.47329 6.87768 3.29035 0.950587 8.34649 0.242614 3.37178 6.87418 5.74321 1.12159 1.93712 3.49014 1.34569 3.52315 2.89532 3.94708
5.25249 -0.118156 2.32396 2.88747 4.62622 5.01948 2.33275 1.699 2.48069 7.51829 1.49198 -0.0359078 8.13156 4.76484 2.5582 1.14235 4.71331 2.17611 4.14766 1.53751 4.69904 9.19092 1.58863 2.71089 6.33463 4.58698 0.1921 1.45675 4.66341 3.75879 3.85214 1.62196 1.23036 9.01888 1.5702 1.16868 6.45132 4.55771 3.63862 4.80725 4.64892 0.64345 0.540891 1.43755 3.15732 5.64904 1.46302 4.36323 9.86272 4.8299 1.83119 2.0613 5.68879 1.42428 3.49575 0.244767 3.92434 8.50923 2.85289 3.37577 7.05865 3.3947 0.865855 8.26406 0.509799 3.36352 7.10905 5.82126 0.925456 1.54005 3.23366 1.59037 3.2955 2.82188 4.07496
5.08722 0.0186375 2.69672 2.89454 4.6156 4.95347 2.33639 1.61147 2.36789 7.59446 1.51122 0.0268328 8.06863 4.46938 2.41845 1.17868 4.73611 2.09404 4.12421 1.70103 4.62115 9.23938 1.49966 2.79652 6.2824 4.62841 0.301194 1.26147 4.56852 3.65692 4.07444 1.67627 1.2653 8.92091 1.67676 1.28691 6.52574 4.68923 3.72043 4.69864 4.44669 0.653284 0.584598 1.67286 3.10927 5.64614 1.57896 4.16467 9.83802 4.95382 1.67611 2.10762 5.99344 1.46009 3.27749 0.40854 3.99129 8.54449 2.75725 3.71561 6.97405 3.31219 1.07707 8.47436 0.286539 3.53309 6.78833 5.90352 0.989524 1.9126 3.51525 1.43595 3.30281 2.70658 3.8703
4.96317 6.0948 2.419 2.78606 4.90916 0.0061731 2.41309 1.53828 2.40738 7.38886 1.52838 -0.0273269 8.1376 4.9825 2.72598 1.33562 4.91549 2.25704 4.21632 1.26296 4.70096 9.14473 1.47793 2.65416 6.13148 4.6648 0.178448 1.51644 4.51677 3.78293 3.95612 1.51225 1.15977 8.76628 1.3739 1.16555 6.31673 5.00229 3.65107 4.62736 4.72436 0.456925 0.650162 1.49477 2.8405 5.7146 1.0014 4.3887 9.87312 5.00929 2.01636 2.17739 6.09301 1.60539 3.38691 0.00736056 4.16962 8.54012 2.73356 3.29027 6.90534 3.14538 0.530648 8.53835 0.304806 3.42571 7.06715 5.57035 1.03964 1.97177 3.7196 1.57387 3.68194 2.33577 3.73017
5.25876 0.11551 2.52169 2.87865 4.56892 4.77677 2.29139 1.73064 2.2136 7.46902 1.5388 0.297726 8.02403 4.57708 2.36662 1.26294 4.78771 2.01569 4.24664 1.55641 4.73669 9.14855 1.51172 2.96325 6.2411 4.47959 0.360746 1.52834 4.71054 3.53711 3.96671 1.72973 1.29599 9.08355 1.5644 1.41921 6.45341 4.4901 3.78843 4.76412 4.55119 0.757899 0.656489 1.69028 3.35855 5.69891 1.61426 4.27439 9.62651 4.97685 1.64492 2.20647 6.04292 1.49571 3.5871 0.241594 4.15202 8.45257 2.78002 3.56531 7.01051 3.3353 1.12818 8.64909 0.1567 3.50141 6.79305 5.74209 1.20598 1.90841 3.60047 1.24507 3.41753 2.73702 3.9934
5.24903 6.27368 2.78992 2.90504 4.58541 4.93605 2.19201 1.3778 2.15203 7.45712 1.65681 0.0545896 8.02302 4.73383 2.46589 1.23772 4.61549 2.25429 4.19636 1.59201 4.70737 9.17614 1.53377 2.73883 6.36433 4.70405 0.268585 1.34658 4.61715 3.78531 3.98922 1.58056 1.23005 8.90381 1.5661 1.22524 6.47911 4.66058 3.89479 4.77204 4.97231 0.568894 0.656317 1.61732 2.92781 5.68104 1.33194 4.53155 9.94004 4.67849 1.87955 2.13328 5.86562 1.6673 3.31103 0.564837 4.0163 8.46021 2.6852 3.48898 6.89251 3.45528 1.04873 8.66559 0.222365 3.48855 7.23369 5.78619 1.06224 1.97827 3.60107 1.34291 3.53751 2.92244 4.20647
5.22054 -0.144331 2.37318 3.03135 4.641 4.9255 2.21559 1.6964 2.34957 7.38118 1.36196 0.127156 8.10611 4.52699 2.42967 1.3332 4.85612 2.30383 4.14731 1.71894 4.63966 9.07191 1.57546 2.8194 6.27044 4.54349 0.295282 1.45664 4.76198 3.80509 3.8875 1.77565 1.23361 9.03285 1.56004 1.26722 6.48463 4.48702 3.75562 4.74744 4.29389 0.685222 0.587872 1.50528 3.24075 5.73216 1.72879 4.30762 9.81664 4.86604 1.75933 2.04504 5.9921 1.68223 3.76923 0.362128 3.87764 8.57483 2.91598 3.41312 7.07996 3.39855 1.06146 8.19169 0.434912 3.37706 6.86447 5.86078 0.978015 2.00181 3.58308 1.57154 3.38954 2.78335 3.89977
5.19478 6.09043 2.7522 3.01824 5.04889 4.8925 2.35641 1.6874 2.72097 7.46222 1.7906 4.91351 8.16493 5.0051 2.68059 1.34827 4.61832 2.16424 4.03808 1.37294 4.81553 9.05945 1.50139 2.49255 6.25679 4.48463 0.38035 1.61619 4.80251 3.74273 3.87798 1.28971 1.0586 8.9286 1.51371 0.88834 6.83775 4.63915 4.13643 4.70698 4.71395 0.528828 0.50808 1.16824 2.80149 5.52951 1.10768 4.38033 9.90168 4.72449 1.86278 2.03456 5.77281 1.2197 3.33693 0.192347 3.84566 8.46715 2.72641 3.35412 6.61792 2.99653 0.854388 8.22038 0.326973 3.21085 6.97901 5.47268 1.41209 1.88922 3.25673 1.67123 3.54815 2.7726 4.20424
5.05217 6.06234 2.46187 2.92697 4.83318 4.92181 2.42318 1.57536 2.49479 7.41279 1.43331 0.0942399 8.14631 4.7425 2.35938 1.35631 4.53567 2.20067 4.13348 1.6312 4.68844 9.04186 1.47632 2.89844 6.26906 4.68635 0.156417 1.41213 4.68816 3.68932 3.93907 1.33382 1.2773 8.76088 1.74028 1.37422 6.53145 4.69195 3.63733 4.83077 4.51724 0.543064 0.544097 1.58577 2.83833 5.61262 1.2943 4.18306 9.8607 4.24137 1.74424 1.77223 5.89415 1.33174 3.44808 0.352983 3.99041 8.57458 2.71473 3.60505 7.03129 3.59712 1.06898 8.47179 0.130771 3.51817 6.93346 5.9672 0.882625 2.23584 3.47675 1.591 3.3683 2.92207 4.17217
5.23379 -0.120013 2.4027 3.1031 4.88248 -0.0844546 2.32331 1.55935 2.32013 7.36143 1.77913 4.97244 7.98091 4.60304 2.53374 1.40939 4.70483 2.20139 4.11135 1.31064 4.65383 9.05085 1.41607 2.62398 6.2179 4.66084 0.493732 1.792 4.69898 3.63258 4.03992 1.37966 1.01859 8.97356 1.71504 1.13291 6.63322 4.83886 4.21088 4.65398 4.47566 0.648394 0.682043 1.15592 2.98724 5.56725 1.57295 4.02868 9.85005 4.77347 1.95909 2.12725 5.8611 1.39589 3.71708 -0.0565188 4.14562 8.56562 2.72459 3.28171 6.73064 3.33039 1.21236 8.28596 0.353071 3.5107 6.92058 5.84839 1.27323 1.98337 3.4889 1.58177 3.05575 2.22253 3.89976
5.25229 0.0889131 2.51813 2.92552 4.58 0.0908828 2.35754 1.70721 2.44218 7.39524 1.49005 0.130333 8.06222 4.63327 2.60139 1.29521 4.77519 2.21846 4.10256 1.39562 4.61485 9.2345 1.59562 2.78408 6.38755 4.66611 0.221098 1.45161 4.81814 3.71726 3.80096 1.53844 1.14698 9.00554 1.43501 1.23357 6.48325 4.93271 3.66581 4.86061 4.7647 0.605261 0.710432 1.48304 3.15307 5.62238 1.3876 4.30566 9.85978 5.04281 1.914 2.09348 5.79504 1.26806 3.43922 0.122988 3.94044 8.60254 2.887 3.23562 7.14593 3.40773 0.909053 8.30133 0.59078 3.56534 7.08598 5.91236 0.953625 1.90412 3.398 1.41299 3.43985 2.65678 3.82564
5.1847 0.0736388 2.34826 3.21965 4.80791 4.68293 2.21894 1.76756 2.34325 7.47431 1.46165 0.0515067 8.09105 4.51367 2.88817 1.28259 4.67941 1.95694 4.19302 1.6153 4.68709 9.06052 1.56686 2.87477 6.39252 4.53224 0.329961 1.7007 4.50453 3.49918 3.88634 1.36983 1.01569 8.74196 1.73978 1.36779 6.52009 4.64736 3.86978 4.82798 4.66369 0.735261 0.520069 1.52216 3.22071 5.68576 1.5925 4.35604 9.7895 4.7688 1.95989 1.9972 5.85364 1.32635 3.30833 0.610838 3.77838 8.30562 2.64433 3.77947 7.09583 3.49585 1.19289 8.29717 0.18281 3.53562 7.00416 5.84536 0.761887 1.82364 3.36633 1.42835 3.65818 2.88954 4.02765
5.17199 0.113933 2.39963 3.0633 4.56627 0.00795254 2.33759 1.68835 2.36167 7.36948 1.50076 0.0268963 8.01838 4.54085 2.53644 1.19981 4.82793 2.12711 4.07645 1.61975 4.61278 9.20985 1.50913 2.7876 6.32875 4.39332 0.321723 1.32837 4.69393 3.66018 3.93858 1.55841 1.15986 9.11679 1.67351 1.27843 6.48265 4.67953 3.76265 4.82424 4.64024 0.699502 0.580931 1.67556 3.37568 5.54658 1.90819 4.38797 9.76407 4.68786 1.696 1.82901 6.15621 1.47501 3.55732 0.226506 4.09907 8.42561 2.75079 3.48303 7.1742 3.18859 0.940627 8.51968 0.206368 3.30695 7.03116 5.65663 1.0686 2.01299 3.66267 1.31055 3.37409 2.74514 3.92009
5.28971 6.19451 2.48501 2.75006 4.71902 4.8505 2.35901 1.58921 2.45149 7.31763 1.84156 -0.00108506 8.2188 4.84054 2.34887 1.22828 4.55017 2.20148 4.09567 1.44318 4.85091 9.20765 1.37272 2.86692 6.2994 4.60793 0.0885792 1.333 4.76917 3.76523 3.84554 1.12269 1.20275 8.62809 1.62196 1.38921 6.84747 4.56916 3.73728 4.83448 5.04761 0.0693705 0.579604 1.71819 2.98903 5.55375 1.19969 4.54316 9.93838 4.36602 1.83991 1.88847 5.83543 1.44894 3.26418 0.473219 3.82808 8.55973 2.37149 3.89216 6.85542 3.51497 1.01966 8.77402 0.0584095 3.66366 7.02559 5.76224 0.924932 2.29039 3.45181 1.60081 3.5889 2.84916 4.09068
4.8452 6.25594 2.38233 2.92581 4.62813 0.147687 2.26449 1.58238 2.33655 7.52196 1.53309 4.89555 8.16958 4.81843 2.44042 1.15343 4.66231 2.21411 4.0303 1.56646 4.7581 9.19829 1.54187 2.80708 6.3411 4.58557 0.207339 1.43543 4.60887 3.77567 4.04009 1.53894 1.22473 8.83486 1.59764 1.3767 6.65843 4.64974 3.57384 4.85992 4.80222 0.557679 0.557621 1.63046 3.11418 5.54616 1.23826 4.41912 9.87924 4.58118 1.82222 1.87147 5.91682 1.43259 3.07598 0.364948 4.07277 8.52259 2.59193 3.79252 7.1744 3.37574 0.864196 8.66904 0.300983 3.51848 7.20204 5.82865 0.771184 2.12732 3.44281 1.60459 3.46475 2.7251 3.93884
5.24045 0.421802 1.97845 3.02184 4.72137 4.87691 2.04537 1.49665 2.25721 7.60867 1.31492 -0.0411359 8.11085 4.59948 2.75532 1.3594 4.68569 2.02912 4.09769 1.59671 4.6919 9.02849 1.21444 2.93821 6.32401 4.72906 0.279559 1.90029 4.75597 3.54077 3.64699 1.57418 1.15982 8.58835 1.39316 1.45462 6.66667 4.61476 4.05531 4.84965 5.12046 0.36188 0.492557 1.07629 2.89264 5.60112 1.31054 4.49052 9.92323 4.8574 2.18359 1.98662 5.7526 1.11227 3.31567 0.591733 3.80421 8.55123 2.48694 3.92658 7.12289 3.79058 1.26716 8.3805 0.0955273 3.5535 6.99977 6.13795 0.775201 1.69602 3.40399 1.4584 3.79189 3.12891 4.40051
5.4094 0.304136 2.35553 2.95493 4.51318 4.95263 2.18113 1.62215 2.66051 7.4801 1.64201 4.96659 8.17149 4.60771 2.25937 1.09759 4.5911 2.18446 4.11955 1.5281 4.9055 9.28905 1.65985 2.66366 6.39063 4.62552 0.195914 1.15055 4.44003 3.89704 4.02686 1.67483 1.35359 9.01631 1.67323 1.05163 6.30915 4.49592 3.69888 4.82512 4.55206 0.606651 0.395709 1.67098 3.01408 5.57213 1.53175 4.47784 9.96825 4.46079 1.76309 1.59084 6.05846 1.62089 3.39199 0.310695 4.32196 8.48492 2.86997 3.17235 7.08865 3.41297 0.854079 8.46657 0.389461 3.3291 7.09451 5.87525 0.832594 1.99791 3.45168 1.75354 3.24511 2.68851 4.18721
4.71439 0.075301 2.44598 3.0013 4.54891 4.89357 2.3179 1.57003 2.41791 7.47509 1.60477 0.0700451 8.06419 4.67639 2.42944 1.30914 4.62473 2.17056 4.07274 1.72363 4.6398 9.26668 1.42118 2.92439 6.32169 4.75739 0.266984 1.38931 4.85352 3.69022 3.91121 1.73519 1.13947 8.90889 1.48489 1.41492 6.39525 4.71947 3.67955 4.74985 4.82401 0.750317 0.608692 1.38873 3.19661 5.65112 1.67175 4.27985 9.83427 4.22063 1.76005 1.98325 5.74399 1.32317 3.2477 0.568468 3.88456 8.40961 2.60137 3.62645 7.01775 3.57699 0.893355 8.56799 0.00853287 3.53737 7.03786 6.14331 0.988204 2.16061 3.48118 1.56525 3.31104 2.81703 3.82988
5.02476 0.232476 2.04364 3.0272 4.60807 4.98067 2.37762 1.41551 2.36479 7.44376 1.56698 4.93724 8.07128 4.83836 2.7687 1.33756 4.78325 2.11973 3.99273 1.53968 4.60587 9.02278 1.50613 2.80855 6.48868 4.59351 0.343845 1.55308 4.88345 3.75528 3.7621 1.50461 1.14916 8.89468 1.70845 1.27243 6.67403 4.89289 3.96392 5.00119 4.5912 0.543968 0.474721 1.23826 3.232 5.44275 1.34663 4.25391 9.96085 4.78283 1.8526 2.07862 5.9339 1.47106 3.1769 0.515592 3.80659 8.19837 2.75144 3.4132 7.04361 3.09924 0.807957 8.26782 0.319016 3.48102 6.96602 5.55173 1.31603 1.95137 3.49172 1.49757 3.33158 2.87184 4.16594
5.41619 6.16325 2.50304 2.99206 4.91133 4.80267 2.16155 1.13106 2.22414 7.34921 1.67822 0.131484 8.12634 4.59442 2.48162 1.16266 4.43732 2.17829 4.08039 1.9872 4.71391 9.25872 1.48069 2.82949 6.32051 4.70444 0.212799 1.37806 4.72317 3.74863 3.67095 1.62791 1.20422 8.79485 1.49863 1.42839 6.63965 4.6051 3.69397 4.8133 4.7123 0.576273 0.512148 0.976032 3.23738 5.6644 2.10694 4.43362 9.85441 4.87287 2.06767 2.26384 5.57973 1.57111 3.45416 0.73816 3.85217 8.9084 2.84603 3.50471 7.16734 3.54384 1.05198 8.38808 0.324969 3.53672 6.90501 5.96494 0.921836 1.63114 3.08328 1.63233 3.41674 3.10428 4.02524
4.88512 6.40929 2.47301 3.08451 4.49198 5.04701 2.63558 2.15797 2.665 7.66114 1.50367 4.98931 7.70288 5.01176 2.63455 0.92946 4.68985 1.81373 4.3632 1.3504 4.80924 9.33667 1.39987 2.77119 6.17446 4.52223 0.37402 1.92927 4.47762 3.10599 3.95957 1.34522 1.13732 8.93048 1.32684 1.15033 6.32548 4.66944 4.05343 4.66486 4.86801 0.763492 0.704068 1.54612 3.11794 5.78207 0.914 4.73711 9.50977 4.83988 2.17226 1.64646 5.82051 1.08382 3.34643 0.571381 3.97968 8.28907 2.49326 3.35751 6.7856 3.17115 1.05412 8.48669 0.120427 3.28845 6.7544 5.84569 1.17831 1.51277 3.4848 0.859695 4.04809 2.94805 4.13038
5.12746 6.09133 2.64557 3.1092 4.60488 0.0698584 2.30186 1.46225 2.16439 7.27616 1.4446 0.185163 8.07196 4.48335 2.60393 1.22387 4.60084 2.18333 4.06969 1.65966 4.52999 9.21428 1.61391 2.63897 6.3685 4.84148 0.468179 1.43322 4.73429 3.72977 4.00561 1.43977 1.25276 8.68816 1.69763 1.23448 6.55846 4.53902 3.91868 4.8467 4.97412 0.661075 0.58575 1.21162 2.73754 5.6276 1.4629 4.35966 9.83644 4.86549 1.79983 1.97508 5.76924 1.32517 3.41097 0.364338 3.86621 9.04639 3.03999 3.48993 7.00128 3.62184 1.16906 8.0923 0.726227 3.42365 7.15807 6.06315 1.18727 2.05453 3.46862 1.45833 3.43101 2.91012 3.90962
4.81299 -0.0872734 2.63591 3.12689 4.52791 4.69953 2.48057 1.46548 2.60214 7.41606 1.57528 -0.00103549 8.01403 4.89587 2.464 1.33852 4.9786 2.05295 4.27333 1.31662 4.8074 9.01304 1.43581 2.91918 6.28959 4.63327 0.2229 1.76906 4.81926 3.48747 3.84224 1.10981 1.31758 8.7333 1.76793 1.47522 6.53806 4.77221 3.74792 4.79395 4.97335 0.634448 0.677757 1.67636 2.97689 5.76386 0.994779 4.16096 9.68862 4.71005 1.97623 1.60796 -0.153744 1.70106 3.40729 0.23813 4.05877 8.3333 2.629 3.67144 6.75022 3.26699 0.865629 8.50617 0.0267494 3.27947 6.91143 5.75133 1.04494 2.22157 3.84438 1.25953 3.60811 2.56884 4.19936
5.34691 0.133601 2.58817 2.83649 4.66424 5.03449 2.44409 1.48986 2.20988 7.36206 1.93626 0.193142 8.18298 4.38258 2.93504 1.3935 4.75262 2.18897 4.05381 1.52508 4.7264 9.16162 1.27364 2.76948 6.15047 4.82396 -0.00756044 1.46074 4.92714 3.7033 3.94036 1.37703 1.02733 8.80139 1.11722 1.20859 6.49361 4.70607 3.67295 4.63153 4.72463 0.211598 0.698154 1.88426 2.71928 5.44733 1.47059 4.29314 9.74883 4.43679 1.94488 1.74418 6.09002 1.27775 3.35405 0.381814 3.84741 7.94041 2.12186 3.3677 7.08868 3.7405 0.809228 9.03225 -0.133177 3.53039 6.54904 6.1166 0.658758 2.37973 3.71906 1.564 3.61969 2.92945 4.12518
4.62979 5.81074 2.30465 3.13053 4.98718 4.92285 2.33134 1.47978 2.90647 7.50608 1.51901 -0.237375 7.94747 4.88315 2.48231 1.34603 4.61276 2.25716 4.03501 1.60114 0.105099 9.0602 1.22522 2.46702 6.35504 4.94088 4.97503 1.78089 5.07782 3.67215 3.71588 1.13294 1.53045 9.28455 2.04175 1.19309 6.5051 4.3005 3.56964 4.88975 4.95553 0.305838 0.635742 0.770168 3.04678 5.50407 2.05722 0.234667 9.71617 4.61883 2.11469 1.77077 5.41754 1.06761 3.74569 0.317484 4.46873 8.51531 2.19916 3.59366 7.68036 4.49651 0.390805 8.06378 0.00867179 2.40499 6.66894 6.53244 4.84405 2.00145 3.10902 2.27002 3.09804 2.63038 4.45311
5.56652 6.11536 2.20943 2.8327 4.50286 0.0239855 2.19197 1.4815 2.79222 7.55988 1.54708 5.05474 8.0549 4.63281 2.30683 0.91343 4.6594 2.30215 4.26843 1.68814 4.60559 9.19784 1.56582 2.82267 6.43667 4.67794 -0.0357265 1.42971 4.75077 3.78523 4.26208 1.76461 1.13338 8.97522 1.45034 1.33717 6.47857 4.74483 3.35139 4.978 4.75624 0.450643 0.420804 1.67582 3.04584 5.73219 1.28118 4.21559 9.85066 4.47851 1.96086 1.56875 5.99125 1.70582 3.28561 0.60374 3.94856 8.36501 2.77777 3.41337 7.07371 3.49259 0.688197 8.4813 0.327319 3.57387 7.18109 5.83433 0.731467 1.77073 3.43991 1.74299 3.31374 2.87678 4.02378
5.18117 6.19295 2.28489 3.03193 4.45057 4.54611 2.1109 1.55157 1.89471 7.61946 1.6314 -0.0380539 8.08368 4.84693 2.89361 1.19224 5.04282 1.6878 4.27724 1.51831 4.99257 9.312 1.52571 2.94984 6.07484 4.36632 0.621725 2.03561 4.80521 2.95099 3.86275 1.62846 1.3028 9.06473 1.31596 1.51604 6.23847 4.49865 4.11179 4.60072 4.46615 0.950774 0.565325 2.00963 3.15563 5.79685 1.63238 4.74291 9.92357 4.73886 2.09485 1.51918 -0.0626678 1.13239 3.73199 0.0409067 4.36066 8.28775 2.6635 3.51119 6.78773 3.03276 1.24099 8.95817 0.174849 3.84104 6.78242 5.62999 1.32649 1.60206 4.11594 0.459402 3.16812 2.30167 4.29152
4.96071 6.49686 2.73052 3.21458 5.45187 4.82655 2.73544 1.55222 2.77872 7.17916 2.06209 0.192768 7.6248 5.51133 1.96865 1.87541 4.71651 2.17406 4.06677 0.708474 0.152679 8.75391 0.890249 2.71048 6.25155 5.04221 4.88203 2.93257 5.50535 2.92262 3.5541 0.474518 1.68431 8.64283 1.95977 1.46679 6.54136 4.79244 3.38603 4.83821 4.782 0.10467 1.14119 0.323581 2.83407 5.70657 0.980929 0.0565816 9.21775 4.75315 2.59955 1.9421 5.55079 0.837132 3.8805 -0.597125 4.71129 8.15019 1.72745 3.84963 7.18273 3.9043 0.418334 7.69778 -0.270395 2.33916 6.93895 6.28655 0.193546 2.31051 3.19279 2.24843 3.21881 1.66634 4.71676
5.16232 0.21464 2.20392 3.41134 4.92938 4.43634 2.01166 2.16006 2.50294 7.44429 1.22214 0.202412 7.94492 4.25701 2.78123 1.12977 4.69334 1.58571 4.23183 1.3441 4.8069 9.19132 1.30026 3.04266 6.33709 4.92175 0.441687 2.14209 4.77477 2.73642 3.67397 1.20044 1.06524 8.64276 0.985291 1.70223 6.52539 4.77957 4.12934 4.72381 4.80602 0.446039 0.704595 1.10835 3.27921 5.73409 1.78764 4.9978 9.67168 4.98055 1.88437 2.03134 5.49683 0.642947 4.05753 -0.00614012 4.05057 8.75941 2.79952 3.59795 6.86365 3.80298 1.22297 8.32079 0.247424 3.99324 6.73923 6.29672 0.913374 1.17303 3.08342 1.27669 3.79245 2.71407 4.04542
5.05589 6.017 2.44643 2.90806 4.4735 0.133205 2.31548 1.33267 2.22416 7.48261 1.64956 0.0509659 8.1994 4.39438 2.63507 1.09661 4.89764 2.15988 4.18148 1.65945 4.5753 9.2771 1.45234 2.811 6.34324 4.6497 0.334312 1.65894 4.97017 3.56583 3.94838 1.81268 1.1461 8.81029 1.61427 1.32591 6.36511 4.67579 3.79656 4.93109 4.60185 1.00571 0.588725 1.24967 2.63125 5.67451 1.5897 4.25913 9.70923 4.89718 2.02864 1.98337 5.91097 1.14055 3.41836 0.508096 3.94885 8.56593 2.80526 3.51711 7.18121 3.46362 1.08615 8.18258 0.427971 3.43168 6.91225 5.94286 1.07423 1.64503 3.54595 1.32608 3.62069 3.04987 3.93959
6.01875 -0.34856 2.85235 3.13749 5.31287 4.67104 2.34115 1.3237 2.62892 7.29903 1.24954 0.0939209 8.09333 3.93577 2.62257 1.23157 4.76939 2.00539 3.95372 1.47031 4.87174 9.01371 1.34115 2.90127 6.55533 5.05251 0.0998837 1.55713 5.38806 3.58091 3.45824 1.0972 1.06206 8.45484 1.95006 1.50007 7.21111 4.73526 4.09108 5.00741 5.49828 4.84 0.370813 0.646329 2.27405 5.46885 1.42064 4.52183 9.69464 4.52304 1.40179 2.30457 5.30327 0.958502 3.42583 0.324856 3.85225 9.05476 2.69625 3.81102 6.20651 3.9256 0.993191 8.02244 0.536306 3.7548 6.8729 6.39468 0.763159 1.89929 3.35273 2.0872 3.19508 2.73635 4.40561
5.16196 -0.110677 2.67155 2.73211 4.54266 -0.222353 2.28417 1.57705 2.45622 7.55389 1.62891 0.10524 8.12698 4.75657 2.51934 1.10211 4.61503 2.01879 4.08682 1.58599 4.80166 9.32927 1.55124 2.81977 6.30386 4.60508 0.304132 1.41858 4.70262 3.4623 3.87289 1.47028 1.36741 9.00365 1.57416 1.31417 6.54963 4.61902 3.7022 4.79033 4.68944 0.749342 0.455228 1.43733 3.13211 5.59199 1.8463 4.53254 9.88906 4.45589 1.77414 1.82779 5.81538 1.2469 3.4698 0.371098 3.95031 8.70558 2.84127 3.47021 7.2896 3.51302 0.913756 8.51144 0.412255 3.59081 6.95071 5.91426 1.08774 1.85956 3.29405 1.37714 3.27225 2.87553 3.98511
5.17101 -0.057336 2.45815 2.87761 4.70459 0.0993399 2.18248 1.55799 2.52379 7.36506 1.35792 0.176603 8.30909 4.73737 2.508 1.14411 4.81868 2.23267 4.14074 1.59527 4.64239 9.18963 1.60649 2.63172 6.27295 4.44449 0.256009 1.3041 4.83572 3.72719 4.05742 1.54858 1.21874 9.067 1.49949 1.07147 6.56989 4.65317 3.7143 4.80945 4.61033 0.568385 0.378581 1.69045 2.96952 5.63355 1.43093 4.09298 10.1524 4.75762 1.81608 1.89482 5.92066 1.43619 3.26126 0.507512 4.00942 8.57493 2.90455 3.20112 6.84271 3.17744 0.880657 8.53862 0.404653 3.40206 7.03945 5.64686 0.985252 1.86655 3.56228 1.54778 3.46941 2.91098 4.10492
5.41601 6.15496 2.49165 2.90824 4.57459 0.0237346 2.13935 1.55773 2.63526 7.55681 1.56826 0.0640254 8.1148 4.73009 2.37993 1.03293 4.59712 2.36591 4.06983 1.72008 4.70877 9.26212 1.55783 2.64322 6.33939 4.74814 0.113844 1.31524 4.67129 3.84696 3.83521 1.60009 1.2098 9.14191 1.53043 1.07663 6.58491 4.56739 3.56753 4.80268 4.75689 0.499373 0.341489 1.23691 2.98249 5.64478 1.63777 4.30241 9.9974 4.74123 1.8737 2.04047 5.60081 1.65887 3.47944 0.295269 3.97705 8.72015 2.8416 3.36332 7.0601 3.53965 0.79778 8.37844 0.384864 3.20577 7.09815 5.88797 0.848029 1.64418 3.31392 1.77189 3.33113 2.83757 4.00365
5.39662 6.07923 2.51845 2.84081 4.55798 4.82138 2.21967 1.62862 2.27031 7.45289 1.68071 0.285021 8.25662 4.50203 2.64912 1.02916 4.68271 2.07213 4.1136 1.67078 4.5118 9.37786 1.41397 2.92818 6.20547 4.77994 0.3731 1.25289 4.91798 3.57678 3.95094 1.52605 1.00574 9.08845 1.50914 1.35297 6.48063 4.55038 3.87158 4.72772 4.71926 0.680487 0.444996 1.61166 3.27636 5.57367 1.39936 4.00635 9.92899 4.46602 1.67452 1.69224 6.00771 1.35155 3.27697 0.576014 3.63316 8.39715 2.50939 3.71207 6.93993 3.5112 1.09052 8.94534 0.055063 3.41269 7.10116 5.92488 1.06946 1.99634 3.61001 1.47877 3.42663 3.01916 3.73413
5.18976 6.18085 2.43418 2.9836 4.73502 0.148261 2.29433 1.50748 2.47043 7.49418 1.54425 5.00208 8.20654 4.58951 2.41155 1.06709 4.80596 2.25765 3.99697 1.47089 4.74119 9.14288 1.52744 2.55234 6.42226 4.63001 0.287835 1.22462 4.90125 3.81722 3.75903 1.38987 1.28075 9.00805 1.39976 1.0202 6.76169 4.76871 3.75839 4.87108 4.74069 0.659988 0.191369 1.95343 3.02437 5.55759 1.32332 4.44614 9.97145 4.84034 1.96037 1.79588 6.00097 1.50687 3.28684 0.235952 4.06802 8.35703 2.75033 3.18868 6.97277 3.36178 0.926051 8.58138 0.224432 3.37965 7.08399 5.72516 1.17174 1.92878 3.63866 1.65156 3.47241 2.76841 3.89574
5.15676 5.84313 2.78844 2.99314 4.69041 4.63883 1.92326 1.5982 2.02714 7.44295 1.53016 0.295533 8.33104 4.55597 2.53027 1.13245 4.57991 2.03132 3.99914 1.75291 4.64528 9.25036 1.64254 3.05671 6.37315 4.65221 0.488885 1.33637 4.21741 3.58815 3.77434 1.39908 1.17343 9.20968 1.27135 1.46042 6.83615 4.81666 3.93205 4.87923 4.81994 0.630477 0.346547 1.49977 3.38736 5.49265 1.61211 4.45931 10.0137 4.91363 1.59522 1.99898 5.72884 1.44969 3.35536 0.588138 3.75615 9.00587 3.08738 3.50988 6.85457 3.2475 1.1275 8.21013 0.685225 3.77066 7.07858 5.79826 1.33657 1.8233 3.45783 1.19651 3.41835 2.99635 4.01829
5.42806 5.808 2.90419 2.80624 4.64946 4.76567 2.28829 1.59383 2.28062 7.45803 1.4553 0.0799014 8.2236 4.5797 2.60673 1.05387 4.78987 2.07207 4.03048 1.75766 4.46807 9.39253 1.50059 2.93263 6.35852 4.61726 0.547018 1.4097 4.60413 3.46611 3.7528 1.55088 1.07113 9.06563 1.16629 1.47793 6.79592 4.47454 4.07349 4.735 4.6634 0.602117 0.442896 1.50272 3.11264 5.61747 1.27479 4.19546 9.95056 4.926 1.93965 1.65465 6.02901 1.31695 3.28937 0.642729 3.70177 8.8581 2.96909 3.46931 6.93579 3.32359 1.3282 8.58041 0.416088 3.80914 7.06588 5.82856 1.17316 1.73481 3.66988 1.20071 3.59408 3.01305 3.64276
4.98353 5.60143 2.29962 2.77511 4.64513 0.0749005 2.35533 1.62056 2.67052 7.66519 1.79776 4.87994 8.25354 5.12864 2.33804 1.17193 4.59285 2.15967 4.17183 1.46253 4.78168 9.33409 1.48863 2.75146 6.18298 4.55734 0.135404 1.14687 4.77849 3.89418 3.8811 1.54409 1.34442 9.05285 1.4349 1.26881 6.52541 4.89842 3.64382 4.65047 4.55379 0.412581 0.501967 1.66665 3.0719 5.55135 1.15855 4.44887 10.1193 4.63626 1.78045 2.15793 5.76237 1.76416 3.3991 0.0783849 4.2216 8.42324 2.61993 3.33707 6.71462 3.25014 0.797039 8.76044 0.296869 3.57613 7.05404 5.70351 0.836149 1.83446 3.37518 1.6301 3.34649 2.49638 3.98843
4.85966 5.996 2.34828 2.83886 4.45462 4.71325 2.41901 1.63591 2.44236 7.44682 1.62 5.0008 8.34459 4.93812 2.80807 1.16884 4.69683 2.27131 4.08725 1.532 4.66386 9.14408 1.57711 2.59279 6.33159 4.74408 0.24366 1.4142 4.40621 3.77477 4.0434 1.61022 1.29632 8.93925 1.27819 1.10338 6.68381 4.55548 3.68254 4.91535 4.51209 0.492536 0.201903 1.77734 2.82807 5.72762 1.45561 4.02187 10.0503 4.90856 1.96864 2.2423 5.81001 2.0498 3.29749 0.322065 4.17012 8.08787 2.51394 3.21507 6.84281 3.35418 0.846353 8.50436 0.355206 3.70485 7.01216 5.86227 1.00785 1.8927 3.61522 1.25608 3.35945 2.75362 4.00514
5.57175 0.787366 2.27539 2.98041 4.45938 4.84521 1.99769 1.55511 2.04528 7.66048 1.66848 0.206481 8.13304 4.78093 2.78791 1.09002 4.66523 2.15212 4.03385 1.54815 4.56305 9.34704 1.5168 2.93363 6.18814 4.42536 0.493599 1.50563 4.58045 3.5997 3.67253 1.72432 1.04538 9.17635 1.41538 1.43927 6.42753 4.45891 3.74944 4.73466 4.74971 0.813721 0.435693 1.77878 3.04426 5.59298 1.09683 4.32265 9.91881 4.79066 1.82757 1.81567 5.81673 1.35558 3.03575 0.593606 3.75894 8.66765 2.83442 3.65506 6.93829 3.18294 1.04562 8.62688 0.423223 3.7821 7.27405 5.49752 1.29448 1.75136 3.4022 1.14881 3.89201 2.9521 3.87287
5.43737 2.85422 2.2887 3.0586 4.79749 4.78699 2.13825 1.22685 2.39205 7.55677 1.40676 0.23384 8.20499 4.54951 2.72035 1.00725 4.69638 1.95482 4.11394 1.54648 4.56709 9.31406 1.37964 2.89514 6.39954 4.48097 0.385659 1.56479 4.67136 3.39311 3.69017 1.46751 1.11929 9.23024 1.41826 1.4347 6.45824 4.56628 3.76895 4.81297 4.36969 0.679187 0.434783 1.21568 3.30312 5.70363 1.61901 4.56228 9.78563 4.81209 1.85829 1.40649 6.0271 1.15888 3.60477 0.187903 3.72945 8.36581 2.54419 3.60227 7.18336 3.32772 1.00935 8.54755 0.167264 3.62372 6.85807 5.60764 1.29338 1.46734 3.43653 1.34973 3.55221 2.67736 3.64142