-28926.9284778985
-28926.7668103878
-28926.7190093988
-28926.296481587
-28926.5635362844
-28926.1735789858
-28926.2634200447
-28926.296333149
-28926.3949213028
-28925.5689224819
-28925.2092597375
-28925.3382031268
-28925.2920409426
-28926.0683316656
-28925.506427081
-28925.0887375869
-28924.6946294659
-28925.4671965851
-28924.6636905465
-28925.448531354
-28924.6768841153
-28924.8653389067
-28923.3889195
-28924.834822988
-28924.7193273216
-28923.55389292
-28924.429373032
-28922.4909048362
-28924.650150577
-28923.5576323064
-28923.5501412884
-28923.136780579
-28924.1273443772
-28922.0596657126
-28923.9143585359
-28922.5514000654
-28923.6637816836
-28922.2366145843
-28926.0495154114
-28926.3463623411
-28925.9397239285
-28925.3265582932
-28925.3370539907
-28924.0337780818
-28924.6408704114
-28923.9411390137
-28922.4566357893
-28924.3252752561
-28924.6278328999