-0.0779069566152578 0.124316887346236 -0.0872760516915258 0.215502556483693 -0.0656551421648097 0.079039012751943 -0.889568580922418 -0.0785903554822369 -0.011367869640563 0.560189610302203 -0.883929126163832 -0.0178269916632306 0.0976026250900777 0.086793712987819 -0.205682233035887 2.69326850701029 -0.601593862876215 0.979828653400309 -1.29762378182606 0.816841623168345 -1.74063671168003 1.60826301963264 -0.569506769121463 -2.41880955707521 -3.36360566246188 -0.190114725662729 1.98279850884067 -0.711508466199613 -0.411818008434961 -1.8074349657194 -0.0768260654050319 -0.0985220511052461 -0.00970796629774233 -0.424850923622009 -0.540883463754951 0.932343744993319 0.199399745709086 0.371023621215529 -1.97276529816116 2.77626264571059 -0.0485010078510465 -0.16073140259464 0.516231225168158 0.31973091099516 0.414597369515489 -0.0499819625063513 -0.214215720016714 -0.163592781823614 -1.12532139254612 0.136151926189696 -0.316505463746758 -0.484786135540887 0.162886757260512 0.18308250504168 0.971765935164944 0.898961330135541 1.03905141300151 -0.714819274028842 0.0244617199410324 1.19140950825946 -0.326679827916848 -0.0866792989562893 0.551737113029088 0.127361071915473 1.29017350004711 -0.257432856492558 0.390578907530315 1.01326583272711 0.177364374567031 -0.962213520528046 0.425438163280466 0.912576856997749 0.34926721462226 -1.88003645370407 0.725940832113887
-0.470044723186391 -0.00330592273574794 -0.0348523137752043 -0.057563370478742 0.064451095176825 1.12558338782281 -0.15759980056311 -0.34539050727978 -0.606217475300928 0.320061554690772 -0.325491978870405 0.507135952437011 -0.111895637285051 0.382384291770962 -0.644887361076473 -0.0332482033421407 1.02433699721625 -2.7687838247013 0.656050571011199 -0.803299629818536 0.952104976564858 -1.37116397908964 -1.21053747744975 0.318302149707048 0.687600818703403 -0.135524834452841 0.968422217232264 0.623174920324533 0.16881777496686 2.27099974095828 0.299161582117784 -0.201696768085908 -1.14109510228621 -0.00738651845351553 -0.211453842428644 -0.885432706515259 0.0738564427889261 -0.30034814561331 0.179882254591233 -1.67017540886042 -0.151773940921696 -0.100629326166857 1.35205169362053 -0.316628619524517 0.135855735258635 -1.79071380495417 0.919031865257485 -0.0848358189426548 -0.425906103813913 0.112928963111382 0.113512603227275 0.185629438516584 -0.61836798833919 0.215692303798904 0.0196383329039636 0.0572928905660023 0.0291647794123578 -0.723609871192881 0.550579602984265 0.363469724032742 0.184227930907892 0.979505465900011 -0.493355360837181 0.365286721697506 0.613973203977537 -0.0981404995933586 1.15114682489891 -0.36667717356832 -0.275002737972576 0.358884678135512 0.152021538028129 0.276147392508238 0.542535910902458 -0.034826602756883 -0.323041204604023
0.293870768767634 -0.121825746781089 0.338889476297249 0.152116411685735 0.381962888180677 0.650835605165097 -0.506095941745916 0.762421167569194 -0.283310996432909 -1.02015869962886 -0.0277162206401379 0.441661558731 0.0680236411725644 -0.31256653573994 0.186829114631455 0.207374018041426 1.81480734311284 0.944599673206698 0.782989210895654 -0.537719722950519 -0.35300225425379 1.46992514266527 -2.77895664621029 -1.07600277431246 0.571280315165263 -0.556989616961939 2.82730621616343 -0.229186217544452 -0.541966926067009 -1.41590526473156 -1.44478979404422 0.450244667977187 0.59729420928235 0.243892662914031 0.118627553212107 0.902146925305546 0.370402185902704 -0.232911744099203 -2.20453418749599 0.361727545431294 -0.00106983547234774 -0.464841327298534 -0.681424774992453 0.247481663961496 0.158779679193873 0.969640148170142 0.131818591161831 -0.857429293800473 -1.21895063686483 0.431883144243057 0.247132508332693 -0.373896056182381 -1.05849614193751 -0.47667122393833 -0.436778007911059 0.951661975719183 -0.272320564541302 -0.726094326893265 2.30868566606267 0.871047905984879 -0.714553936319766 2.11965260294072 -0.890460239037799 0.611998083550097 0.688650856691644 -0.763160616456113 0.241996218202655 -1.68521172659506 0.00174552103383052 0.691999973938171 -0.964306911639763 0.416705930128016 0.314692836955109 -1.58816034573779 0.472664161732961
-1.01134573387888 0.757104900310906 -0.15504361112161 0.762653080954452 0.186410282143001 -0.863408905331449 2.27192508050767 0.00088420192006822 -0.254965112954083 0.130589347375891 0.121408199843552 -0.247561368118292 0.980720054405507 -0.466745485315407 0.510905701943275 -0.381034463309096 -1.09616149822724 2.72245256968639 -1.19857131241285 0.254389700364053 -1.94428751715835 -0.149989853360383 2.08093283778963 0.287301860696735 -2.31350673910809 1.40588568089177 1.8920740953719 1.07455395843005 0.0899813650392891 -1.3409895279878 0.653085833488574 0.0172114698846196 -0.118430606811766 0.403873817994057 -0.453041255439991 -1.49892742844184 1.36864532773488 -0.321981653539003 0.0905902019531366 1.27626718156769 -0.77324344940098 -0.464980423907652 -1.32261489163433 -0.548534291476809 0.425689874149831 -1.67103569953345 0.549019715502714 -0.366679487559969 -1.36454339187191 0.0111331280432899 -1.10788340859009 0.228377348908065 -0.539545462361512 -0.0882065334445723 0.194991848728089 0.526700751828576 -0.0441525033223714 -0.653781830754531 0.040023828000343 1.13890426641506 0.349526638797122 0.197918019723232 -0.725687321473239 -0.269948980211348 -0.733166399592711 0.722517152914228 0.291001933343348 -1.84975658742711 -0.895035771858251 -0.221801241752036 1.34413115731648 0.967271649162388 0.571962171371143 -0.800959670041117 1.35853241289858
0.0628217879458066 0.242228645808279 0.250117557559792 -0.522054770817924 0.144479210803587 0.4754939164094 -0.244092437526387 -0.088174651781854 -0.0686841572332377 -0.358347060742414 -0.0744056301402682 0.741998134386065 -0.679918880649377 -0.0135376224766944 -0.344546671658476 1.07249142054032 -0.336687327578033 0.888306427033027 2.66071244428136 2.95815575904473 0.897226864839589 -1.29465235943867 1.73164582568326 -0.905486272365111 1.31488101732329 -3.72104769535938 -1.30076875358712 -1.061686622201 0.395629065748978 -0.957611762468906 -0.242518666094943 -0.869253276906055 -0.385100660856604 -0.80026521543626 0.0167319593929281 -0.269242698538063 -0.824699424587689 0.0293468134220723 0.427869654283108 0.927996011795193 0.710311618296758 -0.321454834773601 1.12433306100185 0.0908611960862427 0.727591736600295 -1.15661812959768 -1.20052612113581 -0.218079828960216 0.843726606586156 0.632169405863861 -0.160651698437844 -0.414421249039989 0.394847450792011 0.0242128372836826 -0.507434971580087 -1.60227775167763 -0.296046178027796 0.984465121334182 -1.14617071441302 -0.903261240839589 -0.753809004872304 1.01958585814066 0.1553853105551 0.18216616434871 -0.683421492675282 0.338880477440837 0.26474789831514 2.00053371216849 1.32955558103015 -0.500025570320266 -0.449578495492483 -0.784356779960162 -0.0777976847873924 -0.181446255835715 0.658653554506044
-0.118868465453777 -0.358367115336705 0.109579588754672 0.607326648631307 -0.357911773202235 1.20379219179316 0.106214787786968 -0.123225968838865 -1.47929140952952 0.958343240940146 -0.534353893542083 -0.520000203343872 0.406363415898105 0.289071035867421 -0.0539651134646812 0.203505795334992 1.41831155893625 -0.00146141428138057 -1.06619530637381 0.745756571044267 2.43220396917985 2.981621434136 -3.38786220847671 1.08900997848118 -2.17723911333595 -1.76277466978518 -2.28677293647801 -0.282221363476453 -0.156348445301415 -0.755982871471366 0.990150855925746 0.362479335607007 -2.57445763423755 0.08890021671888 -0.11656141577981 -1.26630339063765 -0.281303737232568 -0.658496460184101 0.711432618695565 -0.0882759531940397 0.563975300639826 -0.768294592594503 -3.48445799008932 0.505733416387586 -0.494664823000283 -0.00105055220860679 -1.11207199058481 0.511175924745831 -0.627182496750268 0.426724485527079 0.416308437784769 -0.961661504964688 -2.44571073843456 0.504237035121289 1.15808031520961 0.761353131868128 -0.194786417691702 -1.52476648763434 1.88664855628574 0.983077754785567 0.831667624773117 -0.116723652305418 0.491984449340291 0.16001432229366 1.01905749671416 0.389224965305518 2.13970642590076 2.9679827673573 1.42820850121865 0.499351941640249 -0.00777552616071623 -0.577335002869737 -0.518024054475699 0.191090458808021 0.703080908614269
-0.293982611697332 0.214264570951524 0.0360219079986385 0.699723820952062 -0.417035802493078 -0.424988734680211 0.772863954770558 -0.0372943462953578 -0.530872878771567 0.158167242737461 0.473386127127422 0.358343204089666 -1.05973746990206 -0.60204560546812 0.586559859133223 0.256049089486507 -1.1397123637209 -1.09848294607147 -1.43376156695568 2.2475327803161 -0.914982122761703 -5.38756931140617 0.777052279655091 -1.8651245772981 -1.43149565491103 0.159981669300392 -1.03191814807845 -0.60034173628397 -0.166600199636652 0.697475649510051 0.755588207340135 0.0756209899763143 -0.17189975473303 0.840637941955223 -0.0214193351430774 1.08256602595933 -1.60904592014052 0.156563132304397 1.34772658611852 2.0510095833368 0.516834148547791 0.142427214431367 4.45879939795951 -0.263944171882417 1.09015051925392 -0.938827035373208 0.0705338078912693 0.345387421957582 -0.568770662666925 0.172431715702097 -0.0710742534963822 0.84175894235403 0.790188296025608 0.12983215788633 -0.176296081755783 0.0918132750946791 -0.223866864963966 0.759471085327012 -1.2322879705088 0.473318764259421 0.029942537716576 -0.0223798987875598 -0.544710805942254 1.39218145101635 0.0710881374462757 -0.897162330183602 -0.423437588944889 0.265303770531246 0.370463378126309 0.547255168315326 -0.0467212911628487 0.314946861816123 0.359817473880207 -2.13315397288158 0.799863609330082
-0.214850010838699 0.261150412631629 0.337701627250807 1.05147626260526 0.189404844446879 -0.322665566626349 0.193813512758426 -0.50123758772393 0.57195394384528 -0.800608714641032 0.154587754766775 -0.56171710190067 -0.636006775348309 -0.272581788487446 -0.200602764256338 -4.41318599457612 2.59655342627266 2.32348055733528 -0.535276147769267 -1.73558501080026 -2.07606728468252 -3.6927915433345 0.353886970394225 0.443487555252176 0.286018109551954 -1.09460315340679 -1.32359833808512 0.747782599287983 0.567521364286695 -0.689700637569701 -0.645552505120444 -0.341723087626435 2.14396519897549 0.382426714951193 -0.623026824859003 0.520413379408294 0.0230982646394559 0.350606244456432 -0.772821788700511 -2.35006626449983 0.506922293874761 0.020311190253431 1.51835210278355 -0.134633690557826 0.0101918476625485 0.708901111831653 0.0707942605068637 -0.79802989950341 2.61869832635276 0.550130431494193 -1.34187732945044 -0.0301937343655747 -0.397714743555198 0.887521726753862 0.715441994892583 -0.937813764141167 0.833513675888584 0.0448479863679615 -2.42578367079485 0.222224445113604 0.947944933800478 -0.434407966242205 1.01113593196938 1.58431192051547 2.92533538704745 0.0410299001472541 1.60132155890627 1.066397652088 0.599083181937144 1.22568769499555 -2.64157804733649 -1.19730967274382 -0.331591660856942 1.94739829326504 -0.68162377827426
-0.318788859283869 0.306290733277903 0.501548433935434 0.303662552985104 0.0197578891391574 -0.865207133952838 -0.228094013486165 0.0972632396482371 0.159163801807593 0.368292853959628 0.627396412422701 0.245376188671168 -0.917548596610531 -0.656440864269316 0.00846766677392462 3.85164681292224 -3.66589164752606 2.88161354328196 -2.46475103305237 0.0893434746747386 0.556072762048603 0.348857895210586 1.35318966329142 -0.266940276847394 -0.484098365800793 0.100335706337628 -0.72996023560805 -0.791627855941415 0.545416573395172 -2.10429361192615 0.836954581470518 -0.750858408409755 -1.76667734525617 0.2205290605655 -0.196504942156295 0.411089358175736 -0.0248319586048586 0.793059702551726 2.01567235975605 1.02345305240636 0.10641661928079 -0.675294754004298 -0.746162033803194 -0.608290811818354 -0.202683556969078 -0.316752803743008 0.338559346822004 0.0766306616657903 -3.41126077781016 1.16238999610062 -0.544920607851755 0.407795005398233 0.937302629096941 0.0128814772891358 0.341665237835213 2.08039547750672 1.02773985049107 0.484011719669051 0.0842488363943804 -0.0954642396962983 0.00896028988496001 -0.334464867154343 -0.143013682759275 -0.0520254742425252 -1.61519728127388 0.357358986308328 -0.759846466194502 -0.48938172295563 -0.793143520471454 0.868029432433963 2.01788273600113 -0.142383248590038 1.4519302580524 -2.34221849037763 0.0763676379483638
0.323864985631036 -0.50466769467817 -1.00634622636631 -0.512487443790399 0.586370626038379 -1.19731044407437 0.963249931676576 -0.151625588345982 -0.124406361689994 -1.72056797632937 0.21452193824492 -0.701984076572684 0.0799797789123179 -0.143629204537886 1.01703738200466 2.88669352628188 1.08984841478864 2.47828145644394 1.78083203217257 -3.91828848686003 2.30234738582612 -4.85554766433601 1.00151898267649 1.29651666537715 -1.85461931232221 -2.85308536868324 -0.283409212522896 0.888373275680662 0.720077434385723 -0.956088898853738 -0.652866004281927 0.0915595073438482 -2.00113792109904 1.13038363494339 -0.61158130794311 1.75942298143682 -0.341708175235809 -0.423747149605477 0.932157083000307 1.98233956716364 0.786151151928803 -0.671102058246649 3.32350315874547 -0.469822579988095 0.377693830698615 -1.29908365344634 0.421180932866832 0.746049162432763 -2.48830669670776 -0.208236365595921 -0.676661551738256 -1.41629452954895 -2.02279456894123 0.927057045406101 1.23425794873258 0.21149035207466 0.601978756820485 0.31733155876542 -1.03773218065144 -2.39862100837917 -0.531468860176254 2.85395671509415 -1.14722666593547 0.774566538403792 1.02767171629251 -1.03002324602818 0.841498489738435 0.1793482367407 0.827342003050748 -0.00179308641772485 -0.134950450303544 -0.541862025112258 -0.852130767144827 3.29646570898902 -0.529704570099049
-0.398028675088901 0.535496748306463 -0.130342521600007 0.438595776906372 0.506131680061382 0.482039170343443 0.411550099624053 0.368352760632317 -0.0391105726295718 1.42670800618943 -0.436321637335857 -1.48560269319684 -0.170153719478833 0.0783548425544142 -0.221931082394558 -2.70574375020995 -0.336974519652681 1.35926234870872 -0.94916877827257 -1.08764086675558 -2.07971336419065 2.44028211402621 0.551583104029344 -0.419808221598659 3.35924404531386 -2.67412176877663 -0.943007646952246 -0.691770888764929 1.3314754227682 -1.05070390361488 -0.0414924413668536 -0.0206238362362176 1.39141963354349 1.18177584680467 -0.456874768271691 0.329451218581697 1.09292216702895 -1.00510386996103 1.13407727983543 0.867394370281428 -0.353768699709947 1.09512354441761 -2.78083972119214 -0.210453683815947 -0.202820082476364 -0.815245483150961 -0.627380214481159 -0.0724413083405238 2.70573346580262 0.170951275267159 0.1241091423182 -0.872020810918156 0.127686830517604 0.899565539066091 0.138280541396514 -0.217651740505167 -0.130979640634008 -0.539607425915666 0.9777182930165 0.629298513558108 -2.75369428515874 4.39392124276837 -0.0706505359144478 -0.752409297034894 -1.35551625333932 0.886187839123355 -0.948866159586929 0.266702707038106 0.35403943673287 0.806311161394505 -1.71355683874334 -1.89096440782115 -0.449756929959633 1.18761301929414 0.0535023151348985
-0.66639951299569 -0.233326205714542 0.398502786266745 2.55520933748152 0.656641410212222 -0.238507747236826 -0.730847522850317 -0.0845997917944656 1.59564996537478 1.17117416551008 -0.142800795527575 -0.407328864636068 -0.91877938305757 -0.281931600299973 2.51253830303482 -0.0565153893719673 2.99866938194409 0.593693895386824 -2.99434941664575 0.260218645327667 -3.03684844437988 -1.86489677767577 0.167465889623529 -1.29673675169398 -1.22841409137834 0.93296569452651 1.26726935359598 -1.36127089345998 -0.294505316699803 -1.13321261828928 1.02988080698668 -0.0960285965484501 1.80269436816133 -1.29420087395695 -0.106939581393444 -1.14473989624344 0.489271422687031 0.655500098108941 -1.36669411855448 -0.922612381668904 -0.590598545891127 -0.102218267099111 5.74335349784232 0.231873276069207 0.315423801205982 1.14819288600398 -0.233668933588764 0.416345204540969 3.52267073395912 -0.746933878573198 -0.499040838318561 -2.12180127274183 -2.0206584975391 0.254264744815012 0.516326613046129 0.68745966521282 -0.277860003438618 -1.25250711531664 -0.511698629748302 0.287298775374536 -0.130316296361319 -0.103196828456418 -0.245361533390725 -1.88200334660564 0.332990083143435 1.06588677415396 1.53963439819898 0.250138126374449 -1.23443664030991 -0.63075838517839 -0.978699682585823 0.748030196394417 0.339958540439047 -0.748335900402256 -0.274612444714459
-0.244644967310111 -0.284928990815866 -1.03332119834825 0.534768355157421 0.170514187955697 1.11718822612056 3.19397979018918 0.171146936116584 -0.621580322968249 0.558420949351884 0.242353087136954 -0.557753491316264 1.80452782087781 -0.571786822226192 1.30201393820442 -1.17400134908468 2.13058595637165 -1.29329250367966 -2.73639308382017 1.80251439103308 5.12837190772623 2.16132039345253 -1.35915101999939 1.2345975912846 -3.24753481291164 0.291584287908324 1.41506451443246 0.686057643383761 -0.24296423804245 0.0118368386147429 -0.356284779962866 -0.305583680274069 -2.22375163103003 0.672510507830288 -0.0241436746443984 0.366537819849019 1.07208492934066 0.198726117029069 -1.17425100307258 2.21382229286454 -0.273861168759112 -0.138673148646279 -5.2842860939282 0.27595301720973 0.545713792766966 1.20514279158558 0.199194314672699 -1.02671526641096 0.785293175247422 -0.185797331466222 0.222834053358001 -1.18923281344838 -0.53526200670919 -0.0613174362638295 -0.373506534254814 -1.76680590034777 -1.06054685275881 -0.156102905076447 0.516001882884732 0.279752334387063 0.0847255186740566 -0.619240363190831 -0.434073208783662 -0.0722376770754194 0.952397567953354 -0.792422840627909 -1.18310382090096 0.881731862538097 -1.05339867544514 0.0519156881942934 -1.84880990773252 0.318894017348803 0.992758467403889 0.185630724067501 -0.471707197631044
-0.336251268707304 0.285097655096053 0.430909467979231 -0.938786669074444 0.0889904623931876 0.00838204908291482 1.19219215165716 0.317307390408198 -0.01421433647891 1.34124792372193 0.670446941499823 0.132179316748878 -0.401065660573009 -0.081205937376059 0.643496394985293 -1.64849767798322 -3.48245227355008 -0.8704364979692 2.28642763750196 -3.11235784853668 1.36922639674895 -0.224315265123489 0.697444282067699 -1.99090236470535 -0.0220613392705594 -1.66105699621279 -0.0799005889758885 0.106497094768135 0.0257878942660432 1.11933355348928 0.483266871468284 -1.09906401508553 -1.88687224214514 -0.939229155699753 -0.284209339413053 -0.261020571989107 -0.206883194701673 0.92395501104564 -0.155176022865965 1.66803702346664 1.55099763985624 -0.00799509825717981 1.74990604800521 -0.568166710846558 0.71642055624989 -1.66250581209519 0.302398856434614 0.540025744183753 -0.54437116339023 0.109954712511979 0.579282869617756 2.39825462636809 3.09884028065428 -1.87000529990602 -1.17697097170079 0.311610085858389 1.55170829240264 -0.693733925013758 -0.032350117472179 0.506799395207186 -0.239426659031628 1.02746397126448 -0.355006428131932 -0.436933559571903 -0.4565713782555 1.02087295171782 -0.276323770093922 -0.83899629343541 -0.28159684284143 -0.0944684519567158 0.435116047686773 0.221748534164477 -1.38400509008001 1.77101967914045 -1.06725948542213
0.0914764607546705 0.333022736136703 -0.264852285049524 -0.458335411222522 -0.0396412480477227 0.663056309283377 0.10131863856805 -0.00505761441397556 -1.00070162940406 -0.456194711837093 -0.618582418231989 -1.33711359197587 1.79100613923248 -0.483200022820648 1.91516233271421 1.36796064331699 1.55667077604883 -0.0353799038711566 2.07268628577327 0.87099674105842 -4.04198496733418 -0.150290415164559 -1.00514166515796 0.0341308626011097 0.560921860103993 -1.40315671340715 -0.210321014961409 -0.817172009753773 -0.31622469942669 -2.5413076469854 -1.23005522567778 -0.638864555034717 3.96339049808901 -0.188879054122209 -0.0285474578624643 2.3859452192366 -1.00883762404164 0.672297877708771 0.847337204889011 1.67083566781091 0.46087386006138 -0.0801502429637879 0.0475034203401815 0.515799794280727 0.190637687775383 0.832834647894719 0.157003819158424 0.263470317814757 -1.76425639577104 0.193848736853526 0.458060046216301 -0.146309321087694 -1.70946647283861 1.47990178910447 -0.191941493514454 1.48155346492143 1.55199291337546 0.455894664253284 -0.507213599712341 -1.09692125881864 -0.708137751697695 2.24734560410272 0.137413051638354 0.348245715864356 0.300723783590984 -0.492997206351965 -1.89749397803402 -0.252231517486166 -2.34404988621265 0.474835714340375 0.156846724836481 0.163139753680793 -0.797616723438987 -1.93965619142814 -0.607857838269824
0.324396175269553 -0.166758065289144 -0.102418555931833 -0.417111907107309 0.0593461724891383 0.24451924043052 -1.23108623751247 -0.0956059074072485 -0.289900216208282 0.546472267807444 1.07430173334032 0.252215576654807 -0.138143758779045 -1.07083691651135 -0.0165370698740529 -3.24839253248284 2.81167340280373 -2.36186247970563 0.20432597681944 -1.32921413870685 0.492848082445702 0.90890275247964 -0.0570159828986823 -2.9627922269786 2.91867211953932 -0.704921817526072 2.89817478151324 0.515288916346683 0.364701024700148 1.33682485724012 0.746363608186832 0.949979703790422 -1.02501088300645 -1.22338835862708 -1.77126830468761 -0.313038847146502 -0.0328962195013226 -0.247208870057108 -1.46133611988487 -2.26006304509497 0.933605641772526 0.425548206438881 3.29162432423912 -0.920872774169287 1.10657471775754 -0.791676706876225 2.00886948141843 0.956781553687312 0.554319784819459 1.02746397126448 0.560643152665391 0.676657695085508 -1.79012090887168 1.35232217353327 -1.18022521528971 0.716934776616315 -0.645003060658919 -2.33008957459476 0.703663777399612 2.26684818282995 -0.423159909947019 0.162739690235714 -1.49220348293046 0.316956435008113 1.54457631303051 -0.559874136107402 -0.265683265161668 -0.298826824659241 0.376003588354175 1.51622683000912 -1.42346816077076 -0.584794026394919 1.02170933114381 -2.48173701730631 -0.454533522943357
-0.437759397480382 0.391880913498104 0.678343823667016 -3.22491400188241 0.484149530727253 -0.994848773193407 -0.0919338597706058 0.396671390431722 -1.32465454671775 0.94473105651032 -0.0555021181399263 -0.608708872976258 1.17682853265929 -0.123883656687523 0.982619070218716 -2.43933389167052 2.27855723768364 -0.804827121417002 0.987417774678196 1.87107693514965 -1.99372954827996 2.56405315645348 -0.822931792078102 1.75089875042259 0.133883957263578 -1.49331908401542 0.809277441578229 0.418112065720006 0.486925806485583 3.33236266143861 -0.433949281675354 0.470666929829766 2.15948925472768 -1.083327586322 -1.37326688327813 -1.37142828835798 0.409645170276631 -0.42965528450552 -3.1946151094519 2.63189270673487 0.424680202460356 1.08558604217134 -2.79453340955005 0.407004648695037 -0.684649965130672 -0.287545086930054 0.150862485322207 1.62176850333643 -0.309844253120085 0.349511726406495 0.357152783941391 0.153264922874146 0.655844111534079 -0.0615215817493003 -0.287776743205129 -2.44957381893733 -1.01281280458429 -1.12452872185128 1.68583881833192 1.91713076827688 0.695236219814269 0.911498793999538 -0.549318477535607 0.113533172041932 0.167136531478833 -1.24379365120757 -0.60376233016143 -0.936471906094981 0.275826518999589 1.55832193764542 -4.10582131206294 -2.36259832904998 1.33228840516752 0.658119793765694 1.23705145087318
-0.288118956858985 0.00845172594256544 -1.01687617391978 0.939102143269246 -0.861840533213852 -1.52779396004167 0.576835180673572 0.0607715913448691 -0.804888570750789 1.40778546803553 0.802694906667619 0.25342270896499 1.49197054110447 0.343551912359627 -1.15077350091289 -1.31707596695738 -0.770315221524371 -2.50472935255029 -0.772842614625351 0.971898346909299 -2.08820262821997 0.925849913095918 -1.53214683544346 -2.13986634843471 -1.13899734030138 -0.0978666772482371 3.14417523370925 0.461092660827294 -0.939179790544576 0.0475851813784432 0.776335713574478 0.0332448609097589 1.76882498661654 0.616913773142939 0.49222767557361 1.32711406273037 0.411475023450555 -1.5939358117833 -1.24900553173147 1.06356095543662 -0.911833551458081 0.380065929248934 -2.90074665467591 -0.013363044662293 0.183500823309767 -0.631081058458322 0.575139796125468 -0.0304541869811691 0.303680036477562 -0.855526164224333 0.035717746651898 -0.902580670184625 0.380206054298785 2.63821221792805 0.800874823680657 1.89388569372281 -0.317201975233081 -0.49298152263079 2.33214234229753 1.37921384181584 -1.21975436329755 1.80064751399277 -1.19529778556018 0.972900305293279 -0.923191908021865 -0.599641882365265 -0.604443929257127 -2.06542292309751 0.956913451211301 -0.980925742552077 1.77065715378212 1.65285466714794 0.501172281737394 -0.900897626925315 0.857131303098129
0.205035086704741 -0.0779244401077162 0.167412924925787 -1.38703204826697 -0.216609415822423 -0.248129324513009 0.853152008792547 -1.11393886762511 0.492202992996022 -1.07355277137662 -1.35329507846654 0.173288149722378 1.26628822113684 0.442955337172926 -1.69672152105676 -2.08996846095827 0.340211279749145 4.44530265600195 -0.873642404843678 0.848814045781384 -5.13985264873722 0.552982811866754 -2.78126421010463 0.7571540083559 -2.82401623425904 1.53470019667294 1.06246052385247 0.024897778811761 1.23269934680194 -0.0973766252390339 -0.944744426239847 -0.257879456880798 5.5497145628983 1.64734248193004 -0.669007124473833 1.99121629623905 -1.22130936568562 -1.46300270809245 -1.22189531979316 0.908631501236351 -0.317156466730652 -0.760048040578141 -2.04827778764016 0.10681359740367 -0.696796878626369 1.0100879508626 -0.752028259743373 -0.208729502927323 1.07494579434927 -0.383959348753323 -0.263007005264607 0.460954592658909 0.818140029593568 -1.21157825947139 1.1542576010056 -1.37924340948691 0.230181233953485 1.24611407061106 0.165316191381688 -1.38340242381056 -0.268580382706108 -1.11118213224071 -0.275450623911732 1.46201669053983 3.14126860308803 -0.969973620077769 1.08033148135703 2.85724643988835 2.15717243486676 0.612488135559301 -1.56755373588385 -2.32694203173187 -0.828401554115767 1.95587932976849 -0.52620170096296
0.272486143499291 -0.28937108345123 0.106114514815515 -1.49207595627959 0.7840621316902 -1.6126117812715 -1.33851047160127 0.234625383470315 0.149317767341465 1.98679785774054 -0.724495872884232 -0.103088842179469 1.48338203254444 0.0407110835200704 -0.0874344315643848 -1.08151393108962 0.0682488696930587 -0.00461178535628487 0.403640104837517 -2.7731595829094 1.34566481955934 0.763697976739028 1.4128783065446 0.413895715825502 0.428107995422946 2.0719383522503 0.0969189691129154 1.09001913595029 0.0956817549112962 -0.794644272610866 -0.801669294146784 0.616810414849288 2.64739182279929 -0.499624735544637 -0.830032661118068 -0.847801802990076 -0.354571140591753 -0.624866191109706 0.0655276155139363 1.10929340083483 -1.23914535620527 0.496878027457377 0.625967136914222 -0.362932363749828 -1.22640966039001 2.36823341293545 -1.05371826340287 -1.33268049819692 0.905749553192721 -0.110062441678745 0.357940569542755 -0.0615732608961261 -1.52196681484934 0.582255320445877 0.200640045232904 0.915658579653736 -1.35583018487302 -0.487123009996107 -1.24476784169176 0.00613387764090362 -1.84170775314164 2.38814119731142 0.203506566665542 -0.738921039713376 0.791026218112698 1.17746513747292 -0.307362625631717 -0.487571410155629 -0.305742574367294 -0.524275945690697 0.0860966872811295 1.58822847993635 -2.10908563152086 1.75621064680776 -1.5663828561095
-0.168181941483776 -0.0725346393370299 0.15069227838092 2.152221778289 -0.103828548176571 1.85097528969554 0.381525800869216 -0.238858188416545 0.0335348811964228 0.287223184980672 -1.04530741797943 1.15035723952627 -1.20788667146082 0.835136041144656 0.775872915244695 3.81184692789147 1.89945187207918 -0.75657936709642 -2.88674623386944 1.26825665669952 -3.04947949635057 -0.829116577535282 -0.122885554956291 0.250449743916503 1.28683749541993 3.36663981973397 -0.995260149486548 -0.951007373192723 -0.635766891547372 -1.83794983070381 -0.182588853489912 1.07109454091493 -0.272926316132951 1.33853566839922 -1.02449974796222 2.63958647185732 -0.832827448809589 -0.326264080750593 0.806780130368685 -1.01171468699179 -1.11460529722 0.326849520637768 -0.863347198887478 -0.698510260887298 -0.536849662090528 2.17838608186326 0.52359666058665 -0.504508800584944 -0.837849839128465 -0.590825574182904 -0.676155558897693 -0.907254676205248 -1.37506485478934 0.452674873428913 0.572085841369269 -0.283009663298183 1.54698723521849 -0.0860151833530511 1.67785683269408 -1.10000221014407 -0.639132978065991 -2.66871474162367 -0.375675515760395 0.44557271883803 -0.368164041757839 -2.77335318687736 0.565044107671441 0.963011333426554 0.379153959429079 -1.75294689014206 0.634120615044261 0.681041937929649 0.13733668991394 -1.5703251265487 1.8337841315154
0.885126488287053 -0.714738541431313 0.78595883351176 -0.630930391890959 0.268178262379563 -2.06727848728976 0.354313001967808 -0.36572560878025 1.1074697183053 -1.58350947963366 -1.10058405048868 1.75967006432289 -1.66648613484151 0.260411735075259 0.367974808662994 4.98071018707483 -0.0257621832477219 2.33716704660805 0.93182283976213 -3.01347969982769 -5.72231340021949 1.22322715054221 1.0352194428309 2.14394488727102 3.73149819586625 0.57985776798742 -1.96607991917727 -0.677900822821341 0.218937805641597 -1.89290764658587 -1.84411687555834 0.735904365933743 4.67493110306152 0.129943486595661 0.0407949014397977 -1.66820260242463 -1.65375095324662 -0.288828838074835 2.20821651953996 -0.0019427245443546 -0.650982929300078 0.000634033711802335 0.30365741078144 0.14263470234922 -0.643309218771914 -0.0257292731442707 0.577435790061557 -0.894863765145681 -0.781703402869408 -0.526184474580685 -0.809710672236942 -0.469900227263426 -1.31967483668929 1.22802045568784 1.94579855370509 1.04428823321318 0.608119319326152 0.829435394162465 1.76355319941995 -2.48039541637031 -2.34087251856851 1.42708441549765 -0.424825469713871 -1.1161047638085 -2.66067233509277 0.258085916357918 -0.747488722348571 -0.799013345954198 0.955961629313047 -1.54777836325224 1.71972234093678 -0.242512238340363 -0.227318569173596 1.6516238807009 0.376244757706028