4.9798304998 0.0007791561 2.3296944227 3.1112846613 4.6535060911 4.4001515603 2.2809368979 1.7261680333 2.2461780341 7.4102320205 1.2715815086 4.9589614407 8.0583948074 4.1423492370 2.4647547305 1.1691786651 4.4881110013 1.8224100901 4.2978378703 1.6033063623 4.2631634741 9.1523681589 1.3781721415 2.8519104983 6.0964684754 4.3239330926 0.4060686076 1.4038697850 4.4437171470 3.3318045406 4.0530532183 1.6274089126 1.0756279809 8.9698956055 1.4971646435 1.3587398527 6.3097358497 4.2819385763 3.5853063366 4.6660372634 4.5901223829 0.8632573026 0.7436281793 1.3683247022 3.3762665043 5.6872735827 1.3086782806 3.7520723937 9.6147159220 4.4669713642 1.3107116499 1.9916977011 5.6993354474 1.1535664230 3.3684125419 0.4659678643 3.5372302708 8.4236925209 2.6088441158 3.5102958906 6.7492534693 3.0543854764 1.0305147851 8.3374214036 0.1736369351 3.5271037563 7.0043979888 5.4271794756 1.1410839847 1.9105423002 3.2627414442 1.1617069724 3.6101562454 2.8183922701 3.6165804427
4.9752306978 0.0066549824 2.3360503210 3.1271075890 4.6402308744 4.4009354474 2.2504468060 1.7372653273 2.2445871648 7.3885608159 1.2840500103 4.9652273036 8.0819666327 4.1384517090 2.4651482552 1.1911840597 4.4823897487 1.7934306220 4.3040613430 1.6125314242 4.2521137149 9.1387893821 1.3771042059 2.8860340472 6.1038969807 4.3103157376 0.4253457979 1.3906642533 4.4618928040 3.3076965571 4.0593613515 1.6158130713 1.0431132835 8.9788473161 1.4720236276 1.3622029347 6.2973910333 4.2943941997 3.6096511418 4.6286721681 4.5696875817 0.8555938057 0.7504881701 1.3706637946 3.3519572316 5.7227281506 1.3165491200 3.7647265995 9.6076470986 4.4789144167 1.3106772698 1.9864334434 5.6819892567 1.1592021782 3.3670989522 0.4856347058 3.5500925149 8.4350004052 2.5556924412 3.5012883699 6.6979488387 3.0971531400 1.0125286426 8.3508423777 0.1870594923 3.5192350379 7.0118261455 5.4118437741 1.1073083109 1.9210589886 3.3097628088 1.1854882221 3.6462026285 2.7766237556 3.6356602686
5.0368155892 0.0183727815 2.3417505640 3.0909261299 4.4995729530 4.5895301419 2.2787729070 1.4946724731 2.3135863543 7.4253808678 1.4390249895 4.8021939593 8.0812355103 4.3839490188 2.3086197816 1.2007544510 4.4873644418 2.0011761521 4.2732587392 1.6112675459 4.3110380413 9.1464716160 1.4095589148 2.6770006714 6.0623677368 4.2524869749 0.3839517357 1.2642927720 4.4869008011 3.5091667529 4.0231662012 1.6058507415 1.1310762630 9.0429598985 1.3675774902 1.1787263887 6.3217003500 4.2750564383 3.5847478044 4.6877772286 4.3934042558 0.9310085219 0.6603217315 1.3725831802 3.3235911259 5.6607468454 1.5205359708 3.7585550861 9.7039630631 4.4735801805 1.3155967594 2.1135311171 5.6284070540 1.4677818672 3.4001095740 0.4051746726 3.7630176339 8.3762745543 2.5883651465 3.1620871917 6.8731992819 3.1474822155 0.9324751649 8.2604848449 0.2578479175 3.2329710966 6.9316107257 5.4797255746 0.9324570528 1.9375495495 3.3038589451 1.4873645147 3.5141133430 2.7443377839 3.7424597193
5.0115081408 0.0187460681 2.3257819710 3.1296464338 4.3889412800 4.6657674136 2.2304510370 1.4844955724 2.3382687771 7.3920881474 1.5354314055 4.6948610870 8.0917202823 4.3783440396 2.3843398435 1.3940311956 4.4537654408 2.0704657792 4.0848677659 1.4803066273 4.4282173977 8.9791604218 1.4794567693 2.5786101409 6.2585898991 4.3658595783 0.2492286013 1.6782487268 4.4621527940 3.5311394936 3.7628309371 1.4162615452 1.2106281296 8.7036309902 1.4722463920 1.1188854218 6.5708483266 4.4302210414 3.4664464743 4.8066812657 4.4598374729 0.5667454511 0.5418871794 1.4420951090 2.8940082496 5.5530759728 1.4739686843 4.0885783807 9.8067372553 4.4049382824 1.7877528950 2.1648252541 5.5910148380 1.3869597637 3.3083283499 0.3280609040 3.7233286729 8.3670656614 2.6764889617 3.2652432137 6.9035533621 3.1808229601 0.9062996430 8.2134681255 0.3418209171 3.2640246952 7.0298505143 5.5186438754 0.9541055878 2.0158364855 3.2540778097 1.3880640164 3.4289926778 2.6660162711 3.7722075644
5.0314825112 0.0242446513 2.3497139781 3.0412133070 4.5145817490 4.5763827252 2.2929360596 1.5133393463 2.2893309624 7.4788582910 1.4312305637 4.8254076018 8.0567189838 4.3530020459 2.3291787529 1.1986985535 4.4964693008 2.0014885648 4.2730258116 1.6368116247 4.3479606479 9.1331474452 1.3960887557 2.6653644576 6.0797431269 4.2352845492 0.3448854220 1.2663387499 4.4783431274 3.5284242183 4.0125223395 1.5887162321 1.1903091376 9.0401089776 1.3723508025 1.1264281765 6.3334667589 4.2779643041 3.5026161202 4.5946715945 4.3550408211 0.8895446120 0.6624408687 1.3846669706 3.3163581953 5.7314166425 1.5595820451 3.7976143815 9.6954931265 4.4703303268 1.3291288559 2.1063851250 5.6663954819 1.4268957870 3.4404359155 0.4350840466 3.7268427408 8.4119827196 2.6959920281 3.2255536465 6.9010563271 3.0213606800 0.9749165955 8.3057791855 0.2194929913 3.3214062060 6.8785582901 5.4390936250 0.9862801049 1.9388797092 3.2089066500 1.4109147606 3.4795137926 2.8789145510 3.6922454043
4.9725200648 0.0084034407 2.3337447045 3.1571350742 4.5998110300 4.4009654483 2.1825325752 1.7443427467 2.2344832758 7.3469607242 1.3292530707 4.9862984222 8.1418642978 4.1499851793 2.4685381129 1.2030609629 4.5444524358 1.7625453760 4.3292069415 1.5700582598 4.2435513955 9.1572530201 1.3123316798 2.8954790664 6.0448938637 4.3239057159 0.4110020502 1.3833729523 4.5087552942 3.2839309697 4.0279879353 1.5497425064 1.0853764847 8.9616413349 1.3770075721 1.3820774944 6.3409137013 4.3600995201 3.5847650075 4.5731878646 4.4875228523 0.8090356106 0.7336503459 1.3974077320 3.2539972735 5.8324572405 1.3837287360 3.8442877884 9.6041974684 4.4889202762 1.3728837791 2.0131260685 5.7201465355 1.1374120898 3.3429446832 0.4980463038 3.6356094659 8.3870064525 2.5869591552 3.5908328434 6.6678238377 2.9712741641 1.1218375337 8.3516459502 0.1271946810 3.5188149066 7.0416723686 5.4180080170 1.0094393277 2.0228502180 3.2732509328 1.1385678807 3.6468113755 2.9146274939 3.5465010086
5.0009345864 -0.0184733605 2.3460308302 3.1136924459 4.5461007253 4.3677821682 2.2401697829 1.6142747312 2.1344736457 7.3879931738 1.3974245926 5.0078529037 8.1548745908 4.3032060379 2.5297396833 1.2916474820 4.6122681003 1.7903809115 4.1424733245 1.6452269961 4.2616700204 9.0701441413 1.2674066877 2.9135532210 6.2136200244 4.2337536910 0.4192589995 1.6251888571 4.5771800330 3.2641933782 3.8122760377 1.6366588104 1.0511583259 8.7314328082 1.2660427577 1.4066432963 6.5387838393 4.2083311709 3.6024453594 4.6821000667 4.3566926718 0.5811496587 0.6963417652 1.4206524153 3.0969258692 5.6289872031 1.5035184972 4.0732554561 9.6846217031 4.4235663195 1.5629658831 1.9586962719 5.8774340250 1.1492420113 3.2996772653 0.4963943498 3.5947675924 8.2966463170 2.5023634490 3.5398650890 6.7948709971 2.9912272585 1.1700907692 8.3587235674 0.0482050611 3.5889940639 7.0490667272 5.3941315639 1.0696951954 1.9870791940 3.3722034077 1.0812156791 3.5397900398 2.8801117359 3.5012153193
5.0256333324 0.0051798438 2.3407064252 3.1535444747 4.4604911929 4.6234365915 2.2820888542 1.4784129272 2.3470554054 7.3578806529 1.4429531873 4.7335666186 8.1021772829 4.4363684849 2.3058231172 1.2729829712 4.4791051708 2.0708752504 4.1780146938 1.4950010281 4.3494185256 9.0604598642 1.3896527524 2.6187784806 6.1783769857 4.3977446988 0.3311485638 1.3035560908 4.5271081683 3.5936293655 4.0344066963 1.5102031973 1.2000745382 9.0458063792 1.3645628958 1.0962636787 6.2968316981 4.3899218756 3.4860363144 4.7071477541 4.4566550276 0.9725149915 0.6169980587 1.3967440235 3.2564717949 5.6252991395 1.4205984937 3.7835834824 9.7519609529 4.4954762450 1.4238557227 2.1280005759 5.6442892032 1.3818199286 3.3247334972 0.2900166436 3.7693873730 8.2882556142 2.6278291150 3.2927750064 6.8987404466 3.1717714111 1.0627571699 8.1536665723 0.2304306027 3.2321502923 7.0629066607 5.5861769448 0.8710596929 2.0393266373 3.2208744036 1.4107985432 3.4290853199 2.7318759656 3.6412392940
4.9932255845 -0.0177093739 2.3122175730 3.0507154375 4.6820708234 4.4076891906 2.3686957682 1.6798377432 2.2474579775 7.4833619305 1.2487184463 4.9367779965 7.9883065030 4.1732716626 2.4569365083 1.1759641775 4.5075154832 1.8658633408 4.2152572844 1.5994453208 4.2962817755 9.1752288128 1.3784314975 2.8248804079 6.1347275430 4.3033263901 0.3574804299 1.4264816045 4.4079152539 3.3790218153 4.0027435241 1.6228246644 1.1385886215 8.9364278160 1.5211085721 1.3006515362 6.3829945770 4.2895169766 3.5314789575 4.6817652639 4.5921749702 0.8251859676 0.6963522339 1.3795172972 3.3523686176 5.6847908381 1.3475517651 3.8013792457 9.5954973063 4.4392819631 1.3892114011 1.9819996633 5.7050089680 1.1906435231 3.3565768172 0.4439437246 3.6053142466 8.4411628851 2.6720808637 3.5446597484 6.8492659259 2.9976012686 1.0854167325 8.3341949727 0.1787471279 3.4812865039 6.9953708239 5.4497242732 1.1251883984 1.8491255379 3.1913063890 1.1219517507 3.5326762140 2.9262503584 3.5567311425
4.9710463507 0.0106004751 2.3380782062 3.1513662513 4.6137686889 4.4022012672 2.1991031696 1.7457835409 2.2396204658 7.3548040630 1.3127660505 4.9783681913 8.1246790384 4.1430934385 2.4662016575 1.2071263760 4.5194288663 1.7615114174 4.3234955568 1.5802158832 4.2416280220 9.1517739591 1.3353024947 2.9107329513 6.0703447995 4.3225692776 0.4245430433 1.3794227832 4.4950448611 3.2848418031 4.0452851315 1.5757680901 1.0592681279 8.9750605933 1.4095292800 1.3696927149 6.3146906814 4.3356142756 3.6070394497 4.5736412225 4.5147658049 0.8225475535 0.7386128987 1.3866411534 3.2802657921 5.8155561733 1.3562703028 3.8171230106 9.5965024923 4.4907908878 1.3473685728 1.9951444507 5.6873472329 1.1550354867 3.3508868584 0.5011802691 3.6058262415 8.4072288718 2.5584295151 3.5504977770 6.6689473348 3.0259329592 1.0692303639 8.3591904919 0.1665357163 3.5114215059 7.0361823747 5.4123931058 1.0353285376 1.9877684374 3.3005705329 1.1695957360 3.6487133614 2.8574724215 3.5876308313
4.9980164968 -0.0173107529 2.3589820371 3.1195509790 4.5538739456 4.3773695403 2.2375084848 1.6053255620 2.1341823260 7.3830067127 1.3853992981 4.9904959164 8.1504264584 4.3149510349 2.5341775725 1.2994568021 4.5863445726 1.7678719090 4.1310641501 1.6629416400 4.2286578779 9.0681731740 1.2947794666 2.9349232011 6.2320970430 4.2270225455 0.4366352157 1.6012500476 4.5906354805 3.2595202027 3.8350090822 1.6504357196 1.0259620403 8.7560361660 1.2584564031 1.4038112267 6.5279557201 4.1969281795 3.6274410352 4.6870351763 4.3797046801 0.5774237130 0.6956967871 1.4179564211 3.0819915724 5.6436124192 1.4702492063 4.0874150798 9.6674844891 4.4328902466 1.5808840580 1.9382357142 5.8408653138 1.1428670952 3.2887947892 0.4926870242 3.5829335649 8.3056093283 2.4579718208 3.5076940629 6.8106598343 3.0621938925 1.1436888642 8.3734378361 0.0835017107 3.6037013516 7.0581676085 5.3903797534 1.0783444270 1.9831194676 3.4054288894 1.1216466923 3.5131568582 2.8037721972 3.5350093898
4.9891166233 -0.0079165188 2.3125532626 3.1408074255 4.5575335798 4.3881143863 2.1865460531 1.7241502898 2.1982342831 7.3657323787 1.3803536091 5.0139006401 8.1616565839 4.1817191562 2.4916715165 1.2654336745 4.5856272667 1.7778412986 4.2712163344 1.6496717294 4.2962015398 9.0733160786 1.2819127164 2.8799670407 6.0816509201 4.2340844122 0.3553857551 1.4355974824 4.5397197448 3.2920337312 3.9569205056 1.4856758742 1.0923399889 8.8789471103 1.3001087258 1.3631519331 6.4369198833 4.4076084839 3.5445151136 4.6219176004 4.4274476261 0.8156552661 0.6958531456 1.4258480818 3.2649027032 5.7179556325 1.4679447079 3.8712261537 9.6645595996 4.4584757477 1.4014517361 2.0300273508 5.7992094229 1.0965788822 3.3566804218 0.4947359680 3.6795085863 8.4242480750 2.5435977971 3.6366084513 6.6139488092 3.0109564725 1.2256905261 8.3625898852 0.0485362876 3.5352610092 6.9822348034 5.3751311496 0.9873055952 1.9937893832 3.3422467482 1.0657504544 3.7264825591 2.8867568531 3.4742913994
4.9898536831 0.0016081895 2.3586895161 2.9181080767 4.6498860814 4.4790873261 2.3868509363 1.5971191769 2.2432264980 7.6028368462 1.2749639763 4.8809792880 7.9644133440 4.2620839763 2.4159170064 1.1766708244 4.4581820045 1.9118961092 4.2151561132 1.6839235328 4.3606081888 9.2030084021 1.4003030449 2.7807541933 6.1338594159 4.2480698841 0.3202514727 1.4214920706 4.4594858705 3.4222682206 3.8465665786 1.5510130524 1.1779552430 8.9481329673 1.3921175618 1.2645719210 6.4890685665 4.3677419857 3.4981687984 4.6285618471 4.3148743873 0.5943466994 0.7667998628 1.4221407936 3.0405820029 5.7350823192 1.5829648602 4.0748459225 9.5837866756 4.4917644377 1.6718790625 2.0149335496 5.6675549614 1.2878208141 3.2871898635 0.5013110603 3.7759413545 8.4838838279 2.6587183141 3.5775528409 6.8213887867 2.9740707606 1.1419481351 8.3051339244 0.1909619646 3.3605266431 7.0573690596 5.4436782225 0.8523047079 1.8536222891 3.1835811492 1.1346813278 3.5218541999 2.9308711645 3.5342555679
5.0052084021 -0.0206045365 2.3219316527 3.1070033322 4.5366255209 4.3585708829 2.2471910694 1.6407047117 2.1353529161 7.3957686059 1.4114692865 5.0323661213 8.1536760648 4.2718746728 2.5265086565 1.2994484522 4.6425070995 1.8169720609 4.1503664755 1.6408586548 4.3141301861 9.0557853169 1.2401166286 2.8643747200 6.1710350923 4.2219012627 0.3681348017 1.6277429922 4.5570672815 3.2890482676 3.7774513629 1.5847697037 1.1447179461 8.7246516166 1.2739325290 1.4186597929 6.5550969535 4.2678362414 3.5485005481 4.6897509151 4.3454221306 0.6479989556 0.6491407623 1.4309669392 3.1693387139 5.6448127232 1.5339219358 3.9893384330 9.7259657616 4.4106972590 1.4944739266 1.9852841906 5.8910294704 1.1374274796 3.3316823209 0.4929750390 3.6145219764 8.3373853300 2.5417385410 3.5935556813 6.7351039198 2.9326200108 1.2299697997 8.3537445836 0.0088791188 3.5673268453 7.0111232656 5.3973032806 1.0570896072 1.9666462506 3.3567014419 1.0261255654 3.6182993707 2.9587667512 3.4362972572
4.9897377472 -0.0131269205 2.3151276606 3.0729686624 4.6756977140 4.4026718412 2.3422379084 1.6956739430 2.2479868618 7.4581802992 1.2534535377 4.9449185164 8.0099276459 4.1607878504 2.4610851180 1.1592742673 4.5080871520 1.8619641319 4.2495481674 1.5880353501 4.2871106909 9.1806536776 1.3730534022 2.8208563377 6.1066023164 4.3252260440 0.3671173693 1.4259088962 4.4142901204 3.3746226377 4.0222003878 1.6310282985 1.1387826015 8.9441607407 1.5237834816 1.3190128883 6.3586971055 4.2792622288 3.5357862620 4.6926502133 4.6041283622 0.8504770505 0.7044893134 1.3740587247 3.3747288820 5.6818461203 1.3225996855 3.7669410442 9.6056583049 4.4445442015 1.3501349368 1.9913352774 5.7144892220 1.1660619328 3.3613556976 0.4390389984 3.5658571758 8.4193712199 2.6827799936 3.5401232300 6.8375956250 2.9835351338 1.0773836150 8.3267511102 0.1649461693 3.5108189702 6.9972717213 5.4526825020 1.1557648544 1.8795758764 3.1892527959 1.1205064266 3.5405459151 2.9205636115 3.5651034476
4.9947889500 0.0236681463 2.3782780404 2.9133655603 4.5846542156 4.5372564730 2.3334570306 1.5635856121 2.2558988808 7.6041237787 1.3470723209 4.8478455899 7.9941667521 4.2984964189 2.3865989727 1.2466191586 4.4288622531 1.9705672340 4.2367259854 1.7484636590 4.3692491717 9.1013466944 1.4148869152 2.7084828657 6.1111719660 4.1738876381 0.2861870450 1.3395552090 4.4858739499 3.4777951583 3.9642009617 1.5234692013 1.1914670198 9.0274268564 1.3598282842 1.2136012061 6.3920880495 4.3555937493 3.4754828929 4.6673052508 4.2464461249 0.6719335982 0.7045239555 1.4344420706 3.1082394416 5.6846788788 1.6299166612 4.0304470904 9.6710685833 4.5013355573 1.5282963007 2.0254409739 5.6066129496 1.3026103833 3.4133296136 0.5312846418 3.7312766346 8.5590386144 2.6102073916 3.4240644364 6.7560815738 3.0826474779 1.0728340652 8.3530320961 0.2498700975 3.4047782952 6.9438293604 5.3800554128 0.9450993663 1.8438123279 3.2772477294 1.2316807213 3.5704983755 2.8394646225 3.6181586562
4.9954654278 -0.0182492356 2.3198712361 3.0032821676 4.6821512459 4.4261841216 2.4031989622 1.6515632820 2.2441148167 7.5322210018 1.2484984992 4.9188077516 7.9604573294 4.2003279073 2.4442299020 1.2105895718 4.4718909042 1.8526893907 4.1769558192 1.6599297617 4.2984194684 9.1327644036 1.4114809981 2.8319151752 6.1833679991 4.2401214734 0.3695691054 1.4126378631 4.4153451948 3.3642176327 3.9547876999 1.5949455087 1.1050307792 8.9382016170 1.4845586535 1.3078544529 6.4213634961 4.3238329760 3.5529158086 4.6796749793 4.5212547627 0.7308137945 0.7378291241 1.3906948909 3.2732420020 5.6514882808 1.4277221114 3.9149230682 9.5903953170 4.4467252014 1.5009638537 1.9675685665 5.6814316214 1.2533987248 3.3364122754 0.4770067594 3.6983095546 8.5057859984 2.5918091946 3.5302356402 6.8146426946 3.0933651589 1.0675213991 8.3498662420 0.2108094866 3.4049777217 7.0012278824 5.4229883326 1.0080893276 1.7839036455 3.2523939221 1.1632945724 3.5653799126 2.8454373509 3.5808253869
5.0249811596 0.0260459872 2.3560325694 3.0129796751 4.5246797611 4.5695491645 2.3003820608 1.5241089284 2.2785972142 7.5086227693 1.4207556451 4.8338474600 8.0442684708 4.3391205150 2.3414472758 1.1988170360 4.4949742440 2.0056962660 4.2670581663 1.6559203198 4.3736218526 9.1344468163 1.3898861827 2.6597482812 6.0804957873 4.2302354032 0.3148570607 1.2748136704 4.4776281050 3.5421510325 4.0077508121 1.5734257635 1.2043394842 9.0360419095 1.3723791077 1.1042714609 6.3412852343 4.2891805277 3.4716045432 4.5783151654 4.3306735339 0.8552063029 0.6574739809 1.3954970022 3.2894368588 5.7563394602 1.5774504973 3.8318892627 9.6876165767 4.4734351926 1.3532282135 2.1036448387 5.6842768925 1.3915836679 3.4493113646 0.4435969813 3.7095360338 8.4284938076 2.7459806240 3.2748646791 6.9039762048 2.9709069531 1.0106249818 8.3147716623 0.1952241769 3.3699421961 6.8734482327 5.4293941410 1.0064495337 1.9425097624 3.1629002441 1.3583022299 3.4720749497 2.9275579800 3.6631866859
5.011366942605 0.018958607980 2.325214838761 3.127814118339 4.387567729563 4.666428245257 2.228265032840 1.484738132094 2.338470436320 7.393360599828 1.537690468584 4.694467914459 8.092108336550 4.376331088300 2.385809286786 1.401171361390 4.446450214396 2.067334269203 4.082442732502 1.488040044877 4.430631059506 8.981128389592 1.488309266806 2.583095408319 6.251522238958 4.357246480636 0.247548781435 1.683536504486 4.460479141566 3.511273837703 3.761791582737 1.416972946319 1.185402193941 8.698763246495 1.474280339636 1.139155839819 6.572173062638 4.428313508723 3.492768253811 4.845917838366 4.457831346053 0.553532868690 0.521282288516 1.443166650019 2.883173868188 5.536381912615 1.476928135150 4.096896808833 9.812672633916 4.402119840259 1.795001276158 2.160774630087 5.577072480681 1.394885369440 3.310580830088 0.336478377651 3.726029278938 8.379994522220 2.649641076845 3.247494346397 6.891161157840 3.205883803031 0.889953570987 8.221524924373 0.357681138944 3.255549004676 7.023374092344 5.508808112627 0.952145865408 2.002305391804 3.285118439593 1.402940027719 3.442803650578 2.639402687247 3.788221573360
5.0291126928 0.0055744135 2.3402616152 3.1490580666 4.4719255826 4.6147072940 2.2759480494 1.4768903162 2.3459546216 7.3616262780 1.4367639319 4.7474719019 8.1055358319 4.4342250170 2.2992997910 1.2257576243 4.4954689193 2.0611458704 4.2063777941 1.4963795650 4.3425626006 9.1128364929 1.3797529483 2.6381313122 6.1466736912 4.3915404488 0.3440363156 1.2931213300 4.5199947090 3.5945429759 4.0343946191 1.5431629682 1.1880332465 9.0455067672 1.3614445321 1.0973393473 6.3009257963 4.3587455329 3.4938472217 4.6650708699 4.4505253437 1.0021716946 0.6553318154 1.3886660805 3.2741794539 5.6672087548 1.4341454752 3.7514076986 9.7183334837 4.4947477207 1.3925809450 2.1469166577 5.6575987027 1.3989774377 3.3166978060 0.2873948951 3.7756070159 8.2613314951 2.6472929730 3.2659856070 6.9233095071 3.1306243703 1.0553369482 8.1440295958 0.2166537486 3.2179141979 7.0616378426 5.5915991314 0.8714103265 2.0548581153 3.2019105513 1.4245658389 3.4218389177 2.7707774101 3.6493938616
5.0166040306 0.0271679946 2.3633014768 2.9839027103 4.5371978900 4.5627826510 2.3079527537 1.5350798589 2.2699091025 7.5383099580 1.4055231106 4.8392784663 8.0316561068 4.3270005335 2.3538647350 1.2061231542 4.4841224669 2.0072081543 4.2611242923 1.6825638739 4.3893112608 9.1322064210 1.3905608574 2.6580002663 6.0768383295 4.2187339734 0.2895924708 1.2865205553 4.4793267704 3.5423729468 4.0040471160 1.5567549183 1.2056554058 9.0340663105 1.3701808700 1.1085860708 6.3489223543 4.3047700657 3.4612816790 4.5989151946 4.3045549176 0.8098357007 0.6510173945 1.4076350138 3.2501772313 5.7523087272 1.5942734442 3.8783492943 9.6839935103 4.4792553087 1.3871995197 2.0923686174 5.6848398189 1.3572002629 3.4526183118 0.4590598172 3.7004137476 8.4575775536 2.7561041355 3.3224404804 6.8826803668 2.9639086236 1.0417368990 8.3233638303 0.1861373360 3.4058842664 6.8793333077 5.4175563108 1.0130255705 1.9313090623 3.1525229103 1.3107582187 3.4850916277 2.9348884614 3.6418935425
5.0353898326 0.0217104172 2.3449444365 3.0673689174 4.5064017437 4.5831487995 2.2856066752 1.5034594041 2.3013193078 7.4508073805 1.4370392539 4.8145014058 8.0691020703 4.3681055203 2.3179977154 1.2022155298 4.4906385661 1.9982241039 4.2759174774 1.6249945454 4.3230866744 9.1346688481 1.4060948768 2.6723336257 6.0731403446 4.2381178451 0.3709225805 1.2626625662 4.4815461305 3.5125206922 4.0182253089 1.6002847678 1.1626197223 9.0430087439 1.3705001424 1.1592962056 6.3265750730 4.2728257196 3.5468974725 4.6401456332 4.3759405251 0.9129783838 0.6624683833 1.3766728987 3.3275282235 5.6909516712 1.5407729686 3.7749097775 9.7028144659 4.4704169176 1.3163764648 2.1068601724 5.6424011652 1.4548422487 3.4245611679 0.4254253324 3.7465444345 8.4005147031 2.6293190779 3.1831623058 6.8827391209 3.0950268394 0.9435573423 8.2897902272 0.2458535022 3.2717631497 6.8977981000 5.4536756810 0.9593515501 1.9304263762 3.2694407344 1.4590221766 3.5003002076 2.8051269894 3.7231713024
4.9946098263 -0.0150159736 2.3284427074 2.9797269482 4.6771030421 4.4383047178 2.4089887292 1.6380786873 2.2425231050 7.5540505410 1.2518137109 4.9095736129 7.9558525926 4.2153349577 2.4367177541 1.2090766553 4.4529580363 1.8528721803 4.1832427959 1.6873622134 4.2984514544 9.1318743951 1.4231152197 2.8224382487 6.1763424657 4.2282540880 0.3715263807 1.4092084874 4.4257959920 3.3639266237 3.9224937378 1.5809418123 1.1072299239 8.9407264423 1.4584477294 1.3183585504 6.4407146374 4.3407742995 3.5589321580 4.6933043638 4.4675908024 0.6750863139 0.7638852252 1.3969113316 3.2137481855 5.6340649963 1.4745059064 3.9758589535 9.5912049851 4.4573208876 1.5635254272 1.9744189737 5.6822439634 1.2749591913 3.3170962767 0.4885839754 3.7349520207 8.5171099108 2.5794154698 3.5339694923 6.8046295496 3.1007525636 1.0718820311 8.3426516620 0.2073746381 3.3770000391 7.0154026532 5.4195116874 0.9457151215 1.7762942797 3.2634370388 1.1750355570 3.5771576451 2.8167987397 3.5899608957
5.0158601601 0.0102980562 2.3377412634 3.1527224161 4.4233463081 4.6504575838 2.2849173858 1.4853178330 2.3412897882 7.3650130261 1.4788543189 4.7018851750 8.0910615070 4.4206477346 2.3371491224 1.3861241528 4.4479936035 2.0814614554 4.1111992266 1.5099632518 4.4073036824 8.9669076849 1.4297145077 2.5834211242 6.2173006510 4.3800673607 0.2787984137 1.4070004372 4.5211374864 3.5853857832 3.9629936077 1.4305659776 1.1836865581 8.9653590908 1.3974118519 1.0752832181 6.3580574908 4.4503623176 3.4998369404 4.8309323975 4.4602484738 0.7834705229 0.4912269732 1.4221745514 3.1299299320 5.5390971581 1.4169580389 3.9194903281 9.8210891000 4.4721690657 1.5650929765 2.1033678149 5.6239593236 1.3511563471 3.3391415486 0.3022362411 3.7344457800 8.3612721094 2.6302633764 3.3470995060 6.8612260919 3.2301503137 1.0313372012 8.1878439611 0.2589301801 3.2866938395 7.0629163953 5.5787255697 0.9117156123 2.0026592071 3.2395925293 1.3718899581 3.4495559455 2.6453362590 3.6664532050
5.0118266977 0.0180283913 2.3273775700 3.1345902766 4.3927142703 4.6642946276 2.2375949135 1.4841876818 2.3377196881 7.3883180846 1.5289013524 4.6954457110 8.0909049923 4.3840248921 2.3796513218 1.3827064063 4.4651449157 2.0760955390 4.0885349003 1.4683604155 4.4240836248 8.9740303935 1.4625226698 2.5709673933 6.2678960138 4.3823727253 0.2534355445 1.6570733343 4.4677244082 3.5721576357 3.7724676543 1.4148992739 1.2573448960 8.7239563011 1.4656306293 1.0762703923 6.5588696186 4.4353869798 3.4176921908 4.7378956077 4.4629574633 0.5978196494 0.5746947271 1.4397495045 2.9238906266 5.5868038557 1.4657302011 4.0662935536 9.7948566298 4.4130223340 1.7656266850 2.1705189803 5.6204427579 1.3690462413 3.3045273560 0.3092004603 3.7175647809 8.3443826570 2.7234442151 3.3022829301 6.9247890811 3.1354985106 0.9423543052 8.1963414522 0.3062080761 3.2829663372 7.0449170417 5.5420869533 0.9571020860 2.0396701300 3.1962410793 1.3605906821 3.4041924150 2.7142577040 3.7382589399
4.9850008086 -0.0064080710 2.3217811663 3.0932804357 4.6657877380 4.4004262498 2.3122340008 1.7116815782 2.2474356019 7.4336025156 1.2611830592 4.9522818655 8.0339768304 4.1500882172 2.4635926660 1.1559579109 4.4997230468 1.8470293640 4.2804251933 1.5907593068 4.2753699955 9.1699283368 1.3743463659 2.8275728896 6.0928595804 4.3321758470 0.3848609486 1.4173380861 4.4269644140 3.3571696912 4.0396277078 1.6326594657 1.1148852409 8.9569419295 1.5151264617 1.3433516864 6.3323475664 4.2766351407 3.5560653062 4.6905223703 4.6023175185 0.8618487680 0.7255508164 1.3698643023 3.3840261539 5.6764631683 1.3100723062 3.7516480096 9.6142201923 4.4545604832 1.3240816233 1.9946506735 5.7125819592 1.1539706754 3.3656097193 0.4476122876 3.5419751606 8.4144043968 2.6594556564 3.5268690158 6.8017423547 3.0059468313 1.0569754433 8.3278143558 0.1634385821 3.5260849268 7.0001462943 5.4438010840 1.1600806885 1.8997796416 3.2153614498 1.1357012185 3.5687486682 2.8789761537 3.5874090057
4.9951110818 -0.0193614895 2.3140058232 3.0272248360 4.6841812639 4.4156912226 2.3895391772 1.6651598173 2.2459566268 7.5083533453 1.2471615864 4.9279802184 7.9713294429 4.1865088513 2.4512012389 1.1966470781 4.4946848674 1.8606087720 4.1886447859 1.6251851869 4.3003144201 9.1539259644 1.3923282777 2.8306795549 6.1650142478 4.2714629394 0.3596931847 1.4203317729 4.4086104575 3.3726358205 3.9809788106 1.6098341676 1.1211298573 8.9353794551 1.5070653743 1.2978669682 6.4032261326 4.3054690650 3.5403063253 4.6745861675 4.5642082837 0.7838820723 0.7103568418 1.3851654779 3.3193387463 5.6738327186 1.3837055402 3.8531655450 9.5902976262 4.4401099390 1.4406589289 1.9715429432 5.6906430521 1.2228003466 3.3493295932 0.4593781952 3.6525959369 8.4744010026 2.6344112014 3.5391838877 6.8376454070 3.0429017228 1.0795598003 8.3449232692 0.1981822572 3.4427890622 6.9956415601 5.4369151482 1.0724125974 1.8135863057 3.2177979069 1.1393335402 3.5440104852 2.8954179906 3.5637407911
5.0321742485 0.0074872351 2.3396131270 3.1407523426 4.4810276745 4.6073246880 2.2715151721 1.4776109938 2.3419496896 7.3703950317 1.4348318142 4.7616861888 8.1054063631 4.4268669210 2.2962992968 1.1943783398 4.5040113486 2.0465888412 4.2327817214 1.5136206478 4.3384181455 9.1548340011 1.3790045162 2.6573049531 6.1093321131 4.3680019357 0.3552466097 1.2855658025 4.5112256886 3.5810179033 4.0314674006 1.5712856671 1.1563822444 9.0420365063 1.3607405085 1.1125097636 6.3082695329 4.3289276338 3.5264626798 4.6584229342 4.4403086835 1.0041186275 0.6689406397 1.3815305230 3.2847559274 5.6832922903 1.4527765714 3.7347367565 9.6983374403 4.4909495555 1.3664846940 2.1537197837 5.6585184932 1.4214158565 3.3210874977 0.3015100790 3.7786678458 8.2589762625 2.6467556428 3.2325314876 6.9300715196 3.1155226858 1.0294978094 8.1517997809 0.2168141966 3.2074972100 7.0474014166 5.5822087234 0.8786358689 2.0476959983 3.2097228466 1.4448193062 3.4339561958 2.7789819757 3.6726816685
5.0035490755 -0.0197630348 2.3332592848 3.1092127140 4.5403282547 4.3609169404 2.2446945246 1.6258590123 2.1339645025 7.3925149110 1.4063607356 5.0226833212 8.1552463686 4.2889090133 2.5277662903 1.2891782163 4.6324781593 1.8094984872 4.1497146322 1.6347652734 4.2914119483 9.0668169253 1.2473922568 2.8840878778 6.1894507009 4.2339064227 0.3942752639 1.6362661790 4.5652424635 3.2763799180 3.7876788381 1.6143869410 1.1002906045 8.7204194143 1.2715927454 1.4159258170 6.5508312516 4.2327167879 3.5715395717 4.6856590085 4.3451938113 0.6058901298 0.6782012991 1.4256682363 3.1282996511 5.6309798586 1.5248443275 4.0377173147 9.7085119661 4.4156780333 1.5325626680 1.9760230255 5.8968399531 1.1452589499 3.3144010015 0.4950038242 3.6044860083 8.3056202372 2.5364331251 3.5714336786 6.7723852361 2.9394655204 1.2029897880 8.3510886917 0.0200499084 3.5779851518 7.0336190020 5.3993579403 1.0639541743 1.9828891761 3.3513060110 1.0458772304 3.5727071328 2.9407918978 3.4632680593
4.9897474570 0.0140936280 2.3739479673 2.8995716357 4.6198455805 4.5099057159 2.3567871018 1.5778122017 2.2500260666 7.6160111825 1.3071780575 4.8609509827 7.9757819652 4.2829767063 2.4028357983 1.2180352611 4.4430210778 1.9448986219 4.2174020298 1.7104189934 4.3793257527 9.1495746109 1.4005487508 2.7574554323 6.1469186432 4.2099943896 0.2954826882 1.3927515757 4.4771839594 3.4487863332 3.8918627145 1.5322658912 1.1858349870 8.9862875706 1.3665168817 1.2325308120 6.4549468593 4.3704903044 3.4712999214 4.5955855419 4.2575595201 0.6209112450 0.7642484853 1.4344949043 3.0336885513 5.7460821506 1.6213139259 4.0752720527 9.6169217908 4.5044007031 1.6268724546 2.0132281187 5.6104244354 1.2917628545 3.3410209118 0.5290673020 3.7631620694 8.5256364042 2.6211555946 3.5164265918 6.7756061742 3.0242427201 1.1187484941 8.3332627914 0.2453531732 3.3741073903 7.0146130928 5.4096424156 0.8793161228 1.8515765183 3.2405729390 1.1676306584 3.5390947624 2.9083966511 3.5585661072