-28925.3854594803
-28924.8592630159
-28924.6766783973
-28924.8508661314
-28925.634544061
-28924.9609674158
-28925.3121068789
-28925.4253653624
-28925.0890231702
-28925.3103209966
-28924.9086115156
-28925.6232612747
-28924.4975429559
-28924.8717618784
-28924.7158393682
-28924.9612146311
-28925.557040093
-28925.100318882
-28923.679238558
-28924.8139363568
-28925.1158103149
-28925.475173326
-28925.1386358923
-28925.2492794992
-28925.1714657298
-28925.0234537009
-28925.7385506789
-28924.7873780597
-28924.9580015125
-28925.2275110836
-28924.8828502395
-28925.5406466032
-28925.2124108142
-28924.6603764738
-28925.8730635553
-28925.2998987699
-28925.1583238626
-28925.2283052474
-28925.6043199843
-28924.7374609785
-28924.6473966503
-28925.4795814319
-28924.9024367115
-28925.182487423
-28925.1644861494
-28925.0373418398
-28924.7447172985
-28925.0980227866
-28925.1334548474
-28925.5423626883