0.058082218828465 -0.133511404608103 -0.158551879571547 -0.539445446500242 -0.245714545672276 0.261791131208195 0.199577665955869 -0.838155800246488 -0.0824269536361357 0.420242737808289 0.511933885565942 -0.102313140756716 -0.209257350133458 0.950009528571675 -0.190063560736269 1.20494198853249 0.808008602824075 -0.598064511391255 -1.53476318866783 -0.455660179766194 0.158666807823443 0.546107428457465 -0.671244240177966 1.34228510620101 0.523915477213833 -0.737205086350615 -0.264792121266653 0.0186178625867927 0.100817016600602 0.0890727376518157 -0.504280229632068 -0.449576181500834 0.477723833028403 -0.283547023581098 -0.508660358713279 -0.844915741183514 0.727430014295055 0.506746687619627 -0.346907200250551 -0.912572486124634 -0.583796438884054 -0.642771344268633 -0.794772827702472 0.274812990657365 -1.17257335912712 1.74608693334377 0.656433922294369 0.866507083039161 -0.535963403288994 -0.0331466448197717 0.944853183847346 -0.163759132112152 -0.290470229484464 0.427946530227889 -0.291656021649441 0.0929057362631495 1.24750015160876 0.143103928433583 -0.179973528706273 0.536037965242126 0.0839068798507076 -0.401800224366447 0.600436095721209 0.270224088107386 0.228441112233502 -0.62970037677447 0.225058570663157 0.0911090503028597 -1.04711927344053 -0.0174274424385182 -0.0254096851865374 -0.157610599190805 -0.379851242245952 1.33310601555014 -0.715010564005152
0.147902890003246 -0.25153474888966 -0.346147439659158 -0.530813229209062 0.0180517059633585 0.0526895898457634 0.635948154226537 -1.14233411625912 -0.0971799359488762 0.63601166044179 0.316570512623111 0.0031909944838519 -0.317786900899889 1.06735075953717 -0.0341316339316593 -0.9575888796626 2.34660581854397 0.880598006630129 0.315972474336958 -2.77790403712022 0.569331934196878 1.95843140544706 -2.00542831872631 -1.47179690479906 -2.18794209604273 1.97334122497156 -1.75042901011786 0.314838361318807 -0.049959851030595 0.574586495011195 -0.643320274509792 -0.417650038720773 1.9545513556722 -0.481837338849621 -0.348161383724263 -0.174664717643299 0.994933105333501 0.425932843272967 -1.1553665172258 0.187672436032392 -0.418117722144036 -0.538217745375402 -0.748282935704515 0.294130964273045 -0.773873626460034 0.996422287514669 0.603966989867268 0.750081164325904 -0.0982312594880326 -0.241372468898181 0.954369603058595 0.317223058268104 0.661037223014608 -0.18653343792076 -0.380546982401725 -0.506291345485158 0.86639575432983 -1.17564762558779 2.45786382257465 1.60382349809911 1.79378858563521 -3.86717009734388 2.21303193616135 -0.297295990628393 -0.849622914417771 0.0114941107405204 0.305826392287021 0.740061580486108 -0.297680627462479 1.08969954799256 -2.34213184424589 -1.410286893008 -1.8753768458537 4.31276518476785 -2.19783595300293
-0.191853304721613 -0.0557571714416733 0.142268063227958 -0.757784185414954 0.247455952943175 -0.124897956360297 0.34508634593304 0.269855392104659 -0.185495998331497 0.75772864961538 -0.71135137187767 -0.173932982061876 -0.267204329005554 0.0566143767925041 0.555293975303652 -1.22360715939299 1.44541791422181 1.25959204352525 -0.553145562612727 -2.0698477893506 2.54967838322025 1.07709060749763 -1.78295833338774 -0.667211466954276 0.951165495955399 2.81942758881924 -2.35752554513519 0.29491000812818 0.122437926127318 1.3922557558593 -0.120242719383049 -0.572957702000543 0.976611176567586 -0.126322089665111 -0.0221251025959961 -2.00688484791421 0.104235296486414 0.584143280521208 -2.01741865212043 -2.33762264585271 -0.0633743177295305 0.361467092815699 0.174058451831283 0.289894302674068 -0.681621978502977 2.00174161580923 -0.151205470306612 0.119087780440058 -0.455679720140119 0.159364604860682 0.776637818039753 0.622243153020571 1.28898230856828 -1.24867977312934 -0.442550388634366 -0.953032372995706 -0.424533649655924 -1.49361553205666 3.42965341187645 2.07662315689862 1.88661384641101 -3.57546188232725 2.21809032190587 -0.81317343218445 -1.44447663384107 1.18287422150735 0.671850248879798 0.777664201891137 0.28112787386725 1.97683098148831 -3.6953400194705 -2.05766256643761 -2.08075363199193 3.60697664881417 -1.94574250368515
0.0180565910568395 -0.0514271788461894 0.104706322342059 0.769495554260289 0.593393076472465 -0.200800224877045 1.22610575615345 -0.0161565468028982 -0.0859210810259953 -0.617670962632501 -1.05623640053725 0.0473468402386051 -0.105657372909763 0.907089611467625 -0.796093602713635 -0.573982543190828 0.557471184335096 0.342671567092307 0.170372263134564 -0.577846395024147 -0.235938445175982 -0.433723024714127 -1.10850998610658 -0.433094647426355 0.307036867029586 1.08360757931152 0.346632092354514 -1.12566874840364 0.276178245730224 1.4986952579464 0.609140046753506 -0.0461155395711998 1.52266769720877 1.09519913481148 -0.324630659756643 -1.58315980978449 -0.754854929097612 0.230864375710281 -1.58938727553209 -2.09361094092385 0.0789194565167491 1.26553077453709 0.864582356207631 -0.0902698426648537 1.34958806384498 1.20687982798336 -0.374029753477651 -0.98954690410538 -0.421232354903474 0.373078702909948 -1.05412346905161 0.116416919856845 1.09718273987496 -0.707663640519851 -0.109715342931408 -0.739905000384531 -0.217039818269121 -0.691100345407111 1.42464675385061 1.36679464863612 0.626580344701185 -1.43571637567865 1.39639240159701 -0.642618620819805 -1.39951191944993 0.741533279174817 0.608625826387081 0.964105080145941 0.0734576648947633 0.729956121845119 -1.89855661442124 -0.89254514551347 -0.778612938467192 1.53237566350652 -1.2707028029826
-0.264093552898864 -0.0746151749395865 0.157705987068777 -0.513904635120267 0.474332292601645 -0.0166897933228812 0.028839792140777 0.220012269097242 0.310267970702019 0.423773631954348 -1.15398069333828 -0.609937088321465 -0.0166748809322548 0.302192396957494 0.268940336962605 0.498656458594659 -1.00483956069268 0.129379129743509 -0.421915753770453 1.00015192783235 0.107980363415089 0.386910459436238 0.521712300053884 0.18558264446324 -0.802429826068727 -0.303936375330225 -0.547451857605484 0.339999935178544 0.176278341153141 -0.154224458077895 0.0659945276066504 -0.263706344962946 -0.967771985578919 -0.0827056610747382 -0.129117391576999 0.758917784212738 0.0656649123517718 0.430612762827804 0.940189719344235 2.0630400259195 -0.245684978001206 -0.772607873028078 -0.34996424032895 0.20093340795195 -1.11601117570181 -1.10119211607198 -0.0666450163701783 0.819777050130083 -0.0393378580315318 0.226120949940191 0.803955003675545 -0.160496660997367 -0.433111359588264 -0.521871451257293 -0.495914121380513 -0.0811807405781041 0.169689635598135 0.357311678034617 -1.18211934600944 0.490273895291377 -1.09093110577015 1.64464668165906 0.30814475480905 -0.49571460387834 0.14820088070559 -0.0784378891435918 1.0011207190027 0.345939951741306 -0.478897283904585 -0.341738771347611 1.02931465036324 -0.319196378924261 0.945701904562131 -1.78151131727662 0.132293473670225
0.255534354899716 -0.228419772088295 -0.237927192443132 -1.49248116192833 -0.147034114694171 -0.414956552441437 2.19596341953859 -0.682815998193817 -0.828660978290629 1.99512154281187 0.247821563623703 0.259848663774024 -1.21541511473547 0.476690507202071 0.650332954756917 1.16150322307872 -0.882007998874867 0.689509861813757 -1.3757775642172 2.78215638244037 1.32917094419607 -2.70723061839947 0.958187432169119 -0.405387168532446 2.07602974659577 -2.42384197469123 -0.541317465744214 0.445254416431213 -0.122790424188503 0.16705708443222 -0.234164384911815 -0.0453375241567984 -0.878779980524632 -0.492758093881578 0.157586687943767 -0.230075561668185 0.394817626010759 -0.113163704708655 0.0137417679621652 1.0371845359612 0.25476636678246 0.648751470019976 0.212919113362773 -0.00128632224661277 1.22934842978413 -2.52376553340517 0.109589358941634 -0.614091217551631 0.663103874667271 -0.318922813689323 -0.424676860027974 -0.0898723503216069 0.312995652635722 -0.210789212605039 0.395532135209906 -0.0792069057015808 -0.412512205929635 1.11791559082886 -1.21761854900561 -0.615475498778048 -0.625662975567482 2.37319743924274 -0.288218201389705 0.198948774447731 -0.0352168960149998 0.123714478186969 -0.985229509908873 -0.700764345863524 0.667372417928967 -1.48642647422386 1.55052532844968 -0.0482444118882003 1.07895619898702 -2.22508963242347 0.372264434959714
-0.0309090148952722 -0.0129364988683433 0.0182910755439294 0.340984152959882 0.494794920752988 0.673199306011115 0.46083863596628 0.651675841243836 -0.197958386021996 -0.114928509006227 -0.763962028897187 -0.624832766785888 -1.00810203180747 -0.631128623842216 0.609481746186995 0.73246680278419 -0.78368597949216 -0.465183798062573 -0.571683978152907 0.994844402320293 -0.448557768065129 -0.726723475511586 1.0093053074649 -1.11039768907173 -0.780782948413507 -0.902325873993062 -1.04348270700918 -0.911261738410616 0.107544561654544 0.532336607044597 -0.132079043777425 -0.601884654493429 1.69591239531019 0.962875836360001 -0.144280721742147 0.457027234610336 0.0863892786696255 0.91984459054662 -0.41874301410961 0.601820376947625 0.815729364515767 1.4889207001112 -1.33098588497937 0.164364369483435 1.16477006506662 1.17740908745298 -0.846217747151303 -1.51471013703834 0.478466881457887 0.101717930682579 -0.884589642224505 -0.222036240459492 -1.21601700967437 -0.733883222783508 0.272160899117527 -0.361192756250211 -0.149895236812961 1.27086709638967 -0.731330632884573 -0.0426838899558609 -0.474490158254137 1.36070473683655 0.460333414456267 0.501589057344382 0.505989241019883 0.262037185653529 -0.449686481769432 0.104475951617901 0.206052471699713 -0.577425505654228 0.873469112580192 0.360818146713271 0.445227419861976 -1.10949780343048 -0.294261576246117
-0.0167116476884543 0.142298916449944 -0.0644688357794667 -0.737970246255856 -0.373426572987835 0.215378629375385 -0.272680518797799 0.308502909294265 -0.5249452034976 0.986630246187016 0.962106305581646 0.265653440380415 -0.337029541231889 -1.14891587983918 0.654173409563564 0.628985610465139 -0.438246364167386 -0.830531711983684 0.163350069810661 1.58857017936984 0.908810449923867 0.592935420346347 0.871226083341845 0.645079422383333 -1.64924149774325 -1.93454586942661 -0.352760313571387 0.60373584781256 -0.251116687731756 -0.504812961931685 -0.605739764580519 0.010072805647721 -1.51730952099062 -0.702801944065484 0.241324646404103 0.289342801331077 0.650205685216226 -0.23136291235553 1.543175062532 1.64546506337222 -0.275828575881055 -1.82042751460768 -1.1665086441255 0.0463204563872203 -0.907662967176189 -0.736181787821429 0.446669550879615 0.818664020146955 0.237326583055147 -0.290789046111648 0.546067319268884 -0.160943261385607 -0.306067304528692 0.387923730668279 0.301411553331077 0.558464915193213 -0.216601445406744 0.780419651724627 -0.385754492052514 -0.553736144703567 -0.446290827579743 0.648413370129051 -1.19105212510479 0.561856455619971 0.354510462588515 0.166632338409553 -0.343912895056857 -0.290731967650975 0.544506146236417 -0.792340051148914 0.888178900382153 0.419287059257287 0.816030697650492 -1.1398746002465 1.07961517238659
-0.163131269044747 0.298332401776923 0.478329327509868 -0.306009197627286 -1.05417849063082 0.738126312137066 -1.38848060703919 0.28644671222737 -0.240495723173426 -0.0470413933409485 0.785992000725394 -0.162543000945556 1.14850398932567 0.186313608714113 -0.392388706109949 0.547697140720268 -1.68149417045599 -1.25557469691255 1.05320301459571 1.96555515729333 -0.704812288588023 -2.17789808673553 1.16846242440773 0.243477687078326 0.296478380245777 -1.36668074882496 1.625359047045 -0.476305099037435 0.500928284173525 -0.764150747771665 -0.16351564876865 -0.339158670659073 -1.2232441198143 0.473614440970115 -0.805465783112102 1.10364597566056 -0.288078076339854 0.403667872737304 0.930617507223229 0.262567089741131 -1.13457350248903 -1.13453930683466 1.56878220833924 0.0134340070728597 -0.755962816877076 -0.985043362136228 0.793662111710993 1.22914685540049 0.35151924271702 0.431503649612635 0.876514325590163 -0.0794326484424415 -0.34615875250722 0.536720335668372 -0.174887117951778 0.746053276195695 0.554389718789293 0.811003679348319 -1.9109153867079 -0.709396820264887 -1.65020051872663 2.21301316711797 -0.984137305850586 0.232708627054465 0.399192098667938 -0.635186079643494 0.153864503821397 -0.697955417111926 -1.57286743204031 -0.360558208318043 1.73147510452161 1.12912996569005 1.36063943085001 -2.58745121156657 1.08984172992388
0.255642341176665 -0.278686869787829 -0.346706140087279 -1.19035329962682 -0.172543558631795 -0.372118653485832 1.69514235031147 -0.860830347304009 -0.532772665915325 1.68513047977717 0.375795586215956 0.264148574478071 -0.801347135087219 0.659911851742686 0.380494017703983 -0.683579872548141 -0.0862560955947214 1.42564845512441 -0.712674203770299 1.52673132365445 0.755780782867361 -0.933588415390251 0.431022082239478 -2.27136278053698 -0.0578094249240764 -1.39191894151929 -0.853515819701793 0.455558107023459 -0.139656080876701 0.421258323031979 -0.424589185455498 -0.245936431760388 0.356046953043394 -0.530075065873058 -0.00583151606544557 0.417521997849533 0.75251702620166 0.122742344584242 -0.823633445768089 1.4072115981066 0.0951356528821526 0.302852655907984 0.227540712371891 0.0906663065673675 0.722070038305621 -1.87112604319465 0.292791677328691 -0.141054246053012 0.735750356933998 -0.369191454049956 0.160085027594044 0.601080928060706 1.37629769811784 -0.740663218314825 0.112322697299367 -0.436338349497766 -0.0609333136501098 0.160407957984159 0.519416820338162 0.336858305849869 0.133966232522206 0.33641016280053 0.648571235781544 -0.472419649948726 -1.23184831209551 0.531421037682176 -0.504584133868626 0.0124032523483603 0.574853632491552 -0.406055140788433 -0.294932119603936 -0.797709283104943 0.36593052559627 -0.325354424922387 -0.35714147109333
0.0593646844223296 -0.0918104468826637 -0.123495163200688 0.0721309763493861 0.552788950788611 0.172682398130729 0.708008682385722 0.28646753815221 -0.59757908736535 0.186575346880624 -0.615941639540213 0.128157342152883 -1.13783288828161 -0.420292617183832 0.833732219544315 -1.24978406136624 0.834201445628678 1.71876563394504 1.63154537516328 -2.53333697419562 1.95861266812623 0.574868544882179 -1.08375053257339 -3.32343193922472 -2.4634027472516 1.67371555897308 -2.31268295808108 -0.33691435586981 -0.0943792347231411 0.791671050452195 -0.696720259791772 -0.620894352999437 2.1661697486181 0.417389586105178 0.033856783145805 0.474897677894529 0.537062549322228 0.916191054843169 -1.35157681111213 0.601147519598158 0.663314962127688 1.51474433269271 -0.945834830526852 0.348413865924178 1.33319703255499 0.288565300137042 -0.539268554694192 -1.73796225155425 1.01290485002988 -0.0678367220693688 -1.03449490633461 0.3728619590255 -0.00871217855815983 -1.16197604870564 0.380756527201043 -0.64422761634635 -0.154332187244661 -0.206217279327152 2.17455154059083 1.18133773105247 0.887962927828255 -2.32344918989293 1.992665883452 0.0926645669112961 -0.507260136655503 0.464541536824908 -0.355160951352043 0.753148745921814 0.332749170901765 0.596062137284395 -1.6478500174317 -1.01964216527078 -1.02800441686959 2.96235951054026 -2.2467516795795
-0.0367500440374967 0.0783445581470856 0.20522072025702 -0.316114913378458 0.580025918047241 -0.26408763936465 1.26178159384549 -0.766866859747123 -0.323247149860776 0.195545921172912 -0.600685492598925 -0.170171202971292 -0.867870538340738 0.538564587012556 0.156644893342659 0.405062952591415 -0.0738613278824071 -0.374533689436748 -1.37423156068555 -0.368575932271345 -0.905970153729917 0.647729199931522 0.407416024988177 0.644732580746179 0.656520825536295 0.332439610241177 0.976856202572188 0.624316489537997 -0.16429674950525 0.0838333463383088 -0.541989294652948 0.849391772363063 0.901640932464983 -0.26775068814488 0.43045798249751 0.288456799639726 -0.0732514625278267 -0.932139856618031 0.271860080203168 0.0832689894861571 -0.00583408716727769 -0.672303534132802 -0.7113218042066 -0.121023048789099 -0.341922862238792 1.02361683159307 -0.243223662217312 -0.0783291315360929 0.0613436615025172 -0.136645320631281 -0.0970788916468736 -0.633420761125556 -0.667714888693006 0.711128457348824 -0.0534202969864537 0.0430880671638711 -0.725703262304599 -0.0231373453873042 -0.607873779101184 -0.917109966637971 0.51876915978665 0.0295920965368572 -1.10003049226423 0.0953907061838995 0.710910942133827 -0.13091253487619 0.408221294081999 0.393020682940286 0.557624422004291 -0.537803283760063 0.43510062107578 0.638748084121722 -0.544505374905867 -0.139612115035372 0.66465399196186
0.0814396505325992 0.0146951325215176 -0.128006418475337 1.28121115328068 -0.630360892835143 0.229478037602399 -0.632531674112007 0.509497766580002 0.37690038867322 -0.987499792826641 0.914286125495747 -0.0870809050624675 0.133202101057698 -0.66299974504307 0.0323323768695373 2.31272306726966 -0.926992253639931 -0.466471405860102 -0.316396449029076 1.37618688362888 -1.12063453101634 -4.33260020696197 0.714821845130674 -0.0424866864453368 1.00393530417832 -1.8017849694433 0.511563389791932 -0.772900207306391 -0.0723577475309796 -0.477549769434368 1.70655675689519 -0.0340457591304663 -0.929789612433285 0.651055434371744 0.267134652145903 0.502496142070756 -1.21745759803091 -0.179457251458382 0.579873194598412 0.926930032975594 0.67789593772786 1.06604798223883 0.596661718231647 -0.0895715314072482 1.9186927126399 -1.80414575514556 -0.458912366473651 -0.832431242017259 0.775933850358116 -0.169048917021569 -1.83591043273056 -0.595927411548392 -0.824266965259525 0.0813594321554369 1.21581414973982 0.440459568624481 -0.505849630190398 1.29384914722632 -1.84169438341212 -1.61777892462352 -1.05852262428638 2.61612696741045 -1.25825867011511 1.03037985785229 1.22506060325869 0.220835793014073 -1.26221045363109 -1.02962858189695 1.29039847145742 -1.22016291137868 2.23576818966284 1.22848068291579 1.19066260317723 -2.27081205052454 1.26378911015601
-0.14279796731556 0.0851425513912275 0.255815890550333 0.739645319099486 0.5171341961316 1.18265336385997 -1.49175739676259 0.700938409457558 1.04863545219094 -0.543608574586821 -0.95938633695344 -1.47478298246689 0.0922398208886288 -0.530040355998325 -0.253760551745732 1.19924725508451 -1.63712929412229 -1.84294651000436 0.115748690490675 2.00939630018383 -1.24630973146049 -0.628351576753336 1.71149070131104 2.97104752074119 1.43812524098517 -1.18038822314587 0.691600167603276 -1.42082378253642 0.285768198453872 -0.284464649824984 1.84037952193517 -0.29358074848097 -1.92746634053185 0.834060035027911 -0.147807502125274 -1.48288812388248 -0.942830240925829 0.410134193845101 0.977979774072827 -0.561000535820056 0.712084650120192 0.72549526016638 0.234388584991576 -0.0777346927925053 0.0763087597164081 -0.143533559549731 -0.724481988934339 -0.0558044797153844 -0.88683010036102 0.326827923382378 -0.0379924004427801 -0.485972956146597 -1.46558872231521 0.00753692791069491 0.0109117561755438 0.138446634574869 0.202514378468524 1.09583342563346 -1.97393412105405 -0.847932929183514 -0.830515514042142 3.02581816040988 -0.952305265397581 0.587241715339103 1.25508875866628 -0.0761087279938687 -0.267757373009644 -0.701079820058325 -0.304780982282079 -0.458934477949407 1.61546184765241 1.30175271425827 0.616892432997733 -3.10258046248947 1.34620320828299
-0.12716875349843 0.217502616598904 0.38111082503351 -0.480130384343273 -0.874683958195872 0.685469118174388 -0.876954755334006 0.0423966978812124 -0.267124881958941 0.149334479503374 0.740536977214868 -0.192198089477301 0.600466434722828 0.441236041377783 -0.405842510666916 1.83437882736917 -1.22567226838456 -1.51368863828044 -0.468260635625079 1.938675058969 -0.352459751767211 -2.21523717020276 0.915033544798346 1.47323363650285 1.97276915481391 -2.05059100795853 1.11194446393393 -0.566681385318139 0.446326823005393 -0.924885235688504 -0.143797097487524 -0.465672307410677 -1.70691902514334 0.357679345596611 -0.802889539076311 0.423513950669303 -0.145392980394725 0.540434806485245 1.13162933378106 -0.921981947499667 -0.975223295798604 -0.986214499020761 0.915720800318073 0.0895674176443168 -0.92553880977423 -0.172753617651479 0.880314414098045 1.35647296033105 -0.113300230215941 0.336833366162098 0.922715997072739 -0.426544251288647 -0.806827952862762 0.884964765981812 -0.0371873884591414 0.954943987207892 1.10352333410317 1.19207336675251 -2.41062985370648 -0.617665820428836 -1.71341105726946 2.58452632612234 -0.876796889681513 0.602745459386825 0.87100959656758 -1.01081043047743 0.0689867759188789 -0.838862339029956 -1.86061692156602 -0.725989940158881 1.99535062798511 1.17898491576589 1.44063695036497 -2.54363629391475 0.987198459691916
0.214846668406318 -0.156574959372825 -0.325936265266997 1.83318892144126 0.18820131167926 -0.602717691487038 0.339167669515485 -0.298122085647055 0.103485820302349 -1.68873953541892 -0.0291583516577775 0.523087839534072 0.41474392231992 0.201578754511813 -0.296289661371299 -2.28655799236485 2.29383292499885 0.520162696979662 0.018013653656243 -3.23422627560819 1.69185931038203 2.86052228073267 -1.58229874778091 0.0350677721087365 -0.186869738040402 2.79330930796777 -0.369748611816978 0.322065214348548 -0.237922050239468 0.461469584355884 -0.789059839431487 0.519564144473143 0.0528999059756313 -0.7030865650383 0.243174554172318 -1.2749620902777 0.609536253545836 -0.350394899885831 -0.338402509610244 -2.08782493336083 0.813452910953602 0.636250515801995 0.217584377637166 -0.277661257266994 0.311256816466655 2.34972713616817 -0.549457831254909 -1.03668599931595 -0.895216006096683 -0.212483054492044 0.0353138265540709 0.716383532383507 1.30224713714059 0.268242282815183 -0.731681074064292 -1.0415142714465 0.0263802761281651 -2.05719642567544 2.9097907624806 0.862700566776698 2.30710752375811 -3.34946537371573 0.997998887158129 -0.770816072161269 -1.17669920623713 -0.177887336679686 0.429686909058055 1.06934722010982 -0.129223578082666 1.59381985509067 -3.10325331983894 -0.703126417116698 -2.02934599351967 3.26473265595655 -1.271195940314
-0.123182517217902 0.215936044252589 0.275498960626176 0.0958180233083989 -0.746411944901276 0.402537359261718 -1.94629323369759 0.0276835676468699 0.0618504256736293 -0.5040362320682 0.489242883456695 -0.015251776068173 1.5499522298513 0.293796721034869 -0.133745117764643 -2.11993593836262 0.529605839788695 1.11133151325715 2.46566403131296 -1.0029647132367 0.26430772568148 2.78054044493888 -1.03127228729822 -1.46938264017869 -3.48114075450552 2.6711554885929 -1.08615811232899 0.302150745107814 0.263290083576325 0.575826537424829 -0.432399164380765 0.0627012032698799 1.29646524334051 -0.0210668370818929 -0.255364919288979 0.0366029770126991 0.0859984711911423 -0.100793105353563 -0.467136549904073 0.605116529496411 -0.758855820658584 -0.188409828037846 -0.100339305880193 0.0486773854367304 -0.949208887461151 0.348673547209222 0.196063226861536 -0.0582146305728195 0.0504450179463172 0.282020817533548 0.159888081193703 0.766957362531614 0.710204146240175 -0.640353994326068 -0.453359043626441 -0.428749999550428 -0.642708866494113 -1.42136731346373 2.14031629125534 0.898551753613683 0.920336442327106 -3.05202180184218 1.16190380074416 -0.861386476630298 -1.13802983468195 0.696734143741666 0.608508584143535 0.740415106988025 0.138094907844234 1.56393645271623 -1.66876927326843 -0.865814428205586 -0.679590550945414 1.51212489414614 -0.563208598073486
-0.190969617021911 -0.0691610966230971 0.0967500477225447 -0.208560324426769 0.598506483796198 0.0165810357153822 0.0308367669337895 0.0497945291827892 0.505895652913193 -0.019114085240393 -1.17658119266304 -0.744103609676393 -0.0400263991021752 0.435639524019794 0.0368325764063079 0.98588951174918 -1.28341124511843 -0.369770209072368 0.00463235417094188 1.0335163449773 -1.36777783797673 -0.485530726631471 0.943315150731368 0.530574888069224 -0.60491238401094 -0.885025186874867 0.653421105167483 0.228991070915394 0.171014524372229 -0.956848916555314 0.0756580138426969 -0.097802399702434 -0.900842091125741 0.148184682764047 -0.157754838003588 1.87554551013389 -0.0128493385162342 0.309857879959795 1.46583606231146 2.61843787373717 -0.124085231071161 -0.781659694138262 -0.105548101081898 0.0926730515473421 -0.87419236352557 -2.05141607453646 -0.0740760148853896 0.863342056683814 0.301367587489748 0.192380894817565 0.699446913284742 -0.604787942682266 -1.22704883630548 0.0658011807488745 -0.394539432792523 0.492414337566622 0.579882450565008 0.890797567598174 -2.82451991310795 -0.12294469029843 -1.71573121956277 3.07890061461559 -0.325668870676456 -0.0283625956407344 1.0756729019474 -0.892303976161617 0.779026885862164 -0.151506032110788 -0.963118548372954 -1.05078823575498 2.52439005404019 0.359114534639304 1.44931390482803 -2.92710379088759 0.55020627899824
0.028750317797019 -0.043276528928166 0.115477439247386 0.906280742831238 0.679371235959134 -0.3268536344007 1.08121851148911 -0.119972239470309 -0.0997425531449564 -0.629367161977026 -1.11735431929891 0.194466829733969 -0.191935322870057 0.995624988836526 -0.726800865676733 -1.95875664982882 2.00678097540019 0.859065028786071 0.665257686672043 -2.1215030249293 -0.662138168819124 -0.539871220963643 -2.42849952566012 -1.23044037673224 1.93886634894531 2.36282510023157 0.460823723575654 -0.749299035148571 0.237163060978624 2.815041803314 0.147280683359872 -0.100808274854373 3.57461470427356 0.689778541955214 -0.288218458499888 -2.87239820009526 -0.18772025852647 0.270304820704915 -3.7298999989674 -5.55997711586123 0.284276188060689 1.87227506860343 2.91979440548904 -0.15184156089988 1.53527458082224 2.36561423149906 -0.419365734973351 -1.17875403082137 -0.841066544630638 0.399384417084981 -1.02712432871245 0.573989485165775 1.97568709828319 -1.12308967615583 -0.319185323186383 -1.19278916150258 -0.382686653346421 -1.83207049214428 3.80445115347136 2.51508446517917 1.75602424192494 -3.55122024870305 2.31630281235053 -1.14168028506321 -2.24745590437132 1.20103879884114 0.917734487272994 1.39376627818567 0.277700338014843 1.91740947571549 -4.398579822178 -2.10798957080983 -1.9570692356964 3.77124974418257 -2.26924830639024
-0.0425360516005136 0.154570528384499 -0.0207361933862815 -0.944535138550712 -0.576788386620227 0.33304330495136 0.422378552100236 0.554775898284478 -0.718209786014867 1.24224379102316 1.05281066445613 0.0764180315442734 -0.862603636237627 -1.28960245833019 0.871213227832685 2.17351950031541 -1.07280843739622 -0.662182905991003 -0.268729249502188 2.17578052726659 0.371917850432743 -1.4236483950092 1.25524482454749 -0.0245787050743942 -0.773373290043502 -2.37764801651415 -0.230087902956979 0.20399944688676 -0.117299836225997 -1.02300928023014 -0.206543552149649 -0.342716047154003 -1.38938666332483 -0.22464668014965 0.171060804205207 0.998640634175427 0.230243197507639 0.0962484257550969 1.75745146055195 2.51021094165638 -0.28957034384322 -1.96329181635051 -1.75181020602208 0.0667699719192197 -0.505258533879192 -1.82982874845685 0.360219594206752 1.09854850916819 0.965813320203206 -0.217490018199927 0.366908829843395 -0.858226849588798 -0.877835357711509 0.374162936552556 0.880363007922673 1.18584461545401 -0.223808243842194 1.74075395392357 -1.41712370988981 -0.472208562488309 -1.26166435160194 1.84536488838766 -1.30501672803416 1.23333183785264 0.987485394656381 0.270591241449013 -0.918780668608486 -1.04950165639818 0.48710089852035 -1.60788609610405 1.89714276552375 0.459557970143698 1.3719548500132 -2.17493437765363 1.07221991218685
-0.0406663463481914 -0.0914206678449134 -0.0280787459984677 0.312122249343349 0.513834958260616 -0.0786597752317043 0.0756027351533062 -0.10820456349485 0.568261584504164 -0.622549885469143 -0.806445887130508 -0.575145709659682 -0.0419601247901173 0.402088959102195 -0.133760287265453 0.900119097290548 -1.02729839230649 -0.84841038279374 0.0751520210021345 0.494588204165685 -2.17045089027877 -0.97293964315131 0.85990680752591 0.949254653073763 0.164202904288377 -0.719075733111927 1.70002281580921 0.165067565834521 0.102350935953649 -1.11175163129652 -0.115935866704054 0.0705186383904597 -0.39602141588856 0.200835191861962 -0.115045237029406 1.89530468482396 0.0607852181845794 0.158512541713515 1.06947423254032 1.70215991565207 0.0531166498600796 -0.481248813640248 0.57326726266113 -0.0326897600242029 -0.482601213203946 -1.77382912211241 -0.0966492605307253 0.572524728452013 0.280360657080544 0.122847502649176 0.565212514841445 -0.646318950576601 -1.35890856509662 0.501550233706717 -0.459047092209654 0.621689594796114 0.783113395114146 0.713086351393989 -2.97966148320937 -0.501536349756823 -1.45043721921849 2.79309050720186 -0.775265363881764 0.159756440779898 1.37975840118388 -1.35281968173778 0.583673540216478 -0.291902590315142 -1.18089884396973 -1.07926987341054 2.69518474920577 0.774820563264806 1.23676348746798 -2.64018682413512 0.737109698472644