10.9043212698576 -9.61070409366546 -7.41992837387899 -9.61070409366546 12.7003472304626 1.29019942935943 -7.41992837387899 1.29019942935943 16.3863871895729
9.81747777704624 -12.9498427492526 -7.32081371572952 -12.9498427492526 28.3279946231672 -0.124747759395018 -7.32081371572952 -0.124747759395018 21.1729416288256
20.5047721230249 -14.858654355338 -6.73808788074731 -14.858654355338 30.626429368185 2.80426127626334 -6.73808788074731 2.80426127626334 24.4232188667615
48.1099132910675 -11.7843910792882 -7.36866217138788 -11.7843910792882 39.3553547790035 0.131583253060498 -7.36866217138788 0.131583253060498 45.63717345758
7.41480175362988 -6.45783264046262 -4.59516061661921 -6.45783264046262 11.2170451050534 4.19357536377223 -4.59516061661921 4.19357536377223 11.5485665478292
11.1726143962277 -2.50008180814946 -5.62048466644127 -2.50008180814946 6.24593233683273 2.39925827658362 -5.62048466644127 2.39925827658362 15.444797937153
26.67893177637 -7.57030923451955 -10.4651408018505 -7.57030923451955 15.7472685318505 5.63073790693949 -10.4651408018505 5.63073790693949 29.8728161915658
7.78391841156582 -5.41712872989323 -2.01647063131672 -5.41712872989323 12.1381278764768 2.43001799807829 -2.01647063131672 2.43001799807829 11.182867636726
11.8629992564413 -4.59857836345195 -6.51764321003557 -4.59857836345195 1.4918464924911 2.23349755519572 -6.51764321003557 2.23349755519572 11.7348337502135
8.93057247395016 -4.41914665473309 -7.18068609558717 -4.41914665473309 17.1126583915302 1.07146363206405 -7.18068609558717 1.07146363206405 17.8064609985765
25.2947443091103 -11.8151508007829 -11.6049593705694 -11.8151508007829 31.6039049623487 2.62312069412811 -11.6049593705694 2.62312069412811 33.0120166574376
13.4761757614946 -6.94827931096084 -5.50599014754447 -6.94827931096084 7.08498918427045 3.89964913615657 -5.50599014754447 3.89964913615657 14.8449833680071
25.981711422491 -5.11807588202846 -7.807842639395 -5.11807588202846 2.92559128882562 3.02983256722419 -7.807842639395 3.02983256722419 26.5405130296441
28.4783754838078 -7.34815569039144 -6.25960332416369 -7.34815569039144 4.52509680654803 7.27467413348753 -6.25960332416369 7.27467413348753 23.2030832474733
13.0028178251601 -5.44788845138789 -6.5791626530249 -5.44788845138789 -1.09880560672598 2.15659825145907 -6.5791626530249 2.15659825145907 9.41760139761564
25.8364571820996 -13.0660461415658 -7.55151162693948 -13.0660461415658 28.6988201545195 1.96520442882562 -7.55151162693948 1.96520442882562 30.3991492038078
13.7102914195373 -9.58165324558717 -7.59252458893237 -9.58165324558717 25.5339865874021 1.31925027743772 -7.59252458893237 1.31925027743772 27.9930554335587
6.95511480462632 -5.97763921046262 -4.16623338911031 -5.97763921046262 3.62281164270462 4.07224535120996 -4.16623338911031 4.07224535120996 9.44494337227756
55.8938317026333 -15.0158707096441 -8.57000018309606 -15.0158707096441 49.155743821886 -0.0546839493238433 -8.57000018309606 -0.0546839493238433 55.7007290065835
4.63617357861209 -4.43110876864768 -1.91735597316726 -4.43110876864768 5.82554947640568 2.8862872002491 -1.91735597316726 2.8862872002491 8.59392441092525
10.3848237512811 -6.80302507056938 -4.56269202170817 -6.80302507056938 1.01848855615658 3.4297089466548 -4.56269202170817 3.4297089466548 11.2905266619573
13.4112385716726 -10.5403312321708 -5.73497918533806 -10.5403312321708 23.7020742850533 3.69116657935942 -5.73497918533806 3.69116657935942 17.8970312896441
19.891286566548 -12.8763611923487 -8.00436308227756 -12.8763611923487 30.4760485075444 1.03386841690391 -8.00436308227756 1.03386841690391 34.0168342262633
27.4462159403202 -11.090588472242 -5.16592433768682 -11.090588472242 25.0965149928113 -0.246077771957295 -5.16592433768682 -0.246077771957295 30.9066846084697
37.7404694005337 -8.3563910060498 -5.78966313466191 -8.3563910060498 24.8931590562633 0.820259239857649 -5.78966313466191 0.820259239857649 29.8540185839857
12.6986383570462 -6.93802607046262 -7.20119257658361 -6.93802607046262 2.06773683380782 1.97033104907473 -7.20119257658361 1.97033104907473 11.5622375351601
11.0188157887544 -5.41541985647686 -7.17726834875443 -5.41541985647686 10.8017888648754 2.01817950473309 -7.17726834875443 2.01817950473309 18.6164669979359
5.67516861576511 -4.89592233790034 -2.75983056743772 -4.89592233790034 4.59516061661921 3.16483356711743 -2.75983056743772 3.16483356711743 11.7724289653736
29.0696456858718 -6.75517661491102 -8.10005999359429 -6.75517661491102 6.83549366548041 7.31397822206404 -8.10005999359429 7.31397822206404 26.2158270805337
19.5050811744483 -5.84434708398575 -7.91721053804268 -5.84434708398575 15.7353064179359 2.89312269391458 -7.91721053804268 2.89312269391458 29.0901521668683
8.90323049928824 -10.3130510677936 -7.80955151281137 -10.3130510677936 29.961677609217 -0.0461395822419928 -7.80955151281137 -0.0461395822419928 21.2976893882206
15.7370152913523 -8.54949370209962 -3.28445470626334 -8.54949370209962 22.7314341845551 1.59267002405694 -3.28445470626334 1.59267002405694 19.7186903514946
10.7778646370462 -7.07473594377222 -4.46870398380782 -7.07473594377222 9.24158743572952 3.07768102288256 -4.46870398380782 3.07768102288256 18.6728598206761
17.5808897076156 -11.7057829021352 -5.92124638772241 -11.7057829021352 25.4929736254092 1.93615358074733 -5.92124638772241 1.93615358074733 19.286345377153
24.1036595379003 -8.60759539825621 -4.3439562244128 -8.60759539825621 16.128347303701 0.135000999893238 -4.3439562244128 0.135000999893238 23.4030214371886
24.9905648409964 -7.51562528519571 -4.13376479419928 -7.51562528519571 12.937880635338 0.83051248035587 -4.13376479419928 0.83051248035587 18.220008365338
14.8945406970818 -10.1438725995729 -5.60510480569394 -10.1438725995729 19.22653480758 2.18564909953736 -5.60510480569394 2.18564909953736 17.2544948850889
24.679549879217 -8.22822549982205 -5.89048666622774 -8.22822549982205 8.10347774042703 5.9502972358007 -5.89048666622774 5.9502972358007 20.1578708195017
16.8973403410676 -8.29145381622774 -5.77599214733095 -8.29145381622774 4.37471594590746 2.69147563078291 -5.77599214733095 2.69147563078291 16.2941080250889
30.5768720391102 -7.42676386754447 -4.6925664013523 -7.42676386754447 16.1488537846975 1.16716054338078 -4.6925664013523 1.16716054338078 20.4295816927046
22.0102896028469 -4.66864217352312 -7.46606795612098 -4.66864217352312 6.25789445074732 3.15799807345195 -7.46606795612098 3.15799807345195 26.8703255990035
25.8210773213523 -10.0823531565836 -9.07411784092525 -10.0823531565836 17.582598581032 1.94982456807829 -9.07411784092525 1.94982456807829 32.6480266197508
25.1853764104626 -11.8903412311032 -4.87883360373664 -11.8903412311032 30.086425368612 0.394749759181494 -4.87883360373664 0.394749759181494 29.6045230651957
13.5855436601423 -4.75750359117437 -5.06851855295372 -4.75750359117437 0.697220353879002 4.50288145213522 -5.06851855295372 4.50288145213522 14.530550659395
20.5594560723487 -9.92171905544482 -6.16219753943059 -9.92171905544482 17.6782954923487 3.87914265516013 -6.16219753943059 3.87914265516013 18.8369116686476
18.4387441626334 -11.7843910792882 -6.39973094430604 -11.7843910792882 20.9371170973665 2.61286745362989 -6.39973094430604 2.61286745362989 24.6094860691458
13.201047141459 -3.26053047843416 -4.83952951516013 -3.26053047843416 0.874943189181493 3.75439489576512 -4.83952951516013 3.75439489576512 14.8415656211743
27.9537513449821 -6.73808788074731 -8.88955951195728 -6.73808788074731 6.1673241596797 2.62653844096085 -8.88955951195728 2.62653844096085 28.7825549519216
21.6907302739857 -9.91659243519571 -8.1222753480071 -9.91659243519571 27.7538131552668 2.48128420056939 -8.1222753480071 2.48128420056939 31.6551711648398
24.305306601032 -11.0922973456583 -7.0473939691103 -11.0922973456583 15.5917610509608 2.07799007430604 -7.0473939691103 2.07799007430604 23.6713145635587