-1.97473e-05 -2.354e-07 7.44e-08 2.9840696986 4.6420364508 4.8977101015 2.3244191839 1.5828924545 2.4513803017 7.4222919557 1.5766945316 0.0492198563 8.0819422305 4.6358385439 2.4955495191 1.1249418265 4.6388281659 2.2030092716 4.0750634121 1.5475174127 4.6753128267 9.2814209575 1.5799024808 2.7439201627 6.3312966496 4.6712130283 0.2716192262 1.3408837083 4.6880994888 3.7317589671 3.8308111789 1.5441458316 1.2492734317 9.0654780554 1.5306311436 1.2151712572 6.5755507108 4.6745846754 3.6976552058 4.8148475945 4.67390662 0.5730820185 0.3951629466 1.5235349164 3.0808293463 5.5915151728 1.5448238297 4.3738473905 10.0111981501 4.6951957972 1.8661005713 1.8381036184 5.8476741573 1.4608594321 3.323803231 0.3498534943 3.9670214549 8.5573790742 2.7991993748 3.4205630127 7.0625661862 3.451745933 0.9714245006 8.568257843 0.3710566519 3.4860707312 7.0825584659 5.8688767997 0.9799086402 1.8489826831 3.4195320442 1.5263671688 3.3437952138 2.7669844091 3.9755055309