0 0 0 0.0296586880743092 -0.00247108597085655 0.00487583751444424 0.0728033194784871 -0.00647017776054573 -0.0465762810195168 -0.0296586880743092 0.00247108597085655 -0.00487583751444424 -0.0728033194784871 0.00647017776054573 0.0465762810195168 -0.0156014459173421 0.00412996087294441 -0.0101543095757994 -0.0419459837300406 -1.82548230080964e-05 -0.0497379649424825 0.0156014459173421 -0.00412996087294441 0.0101543095757994 0.0419459837300406 1.82548230080964e-05 0.0497379649424825 0.0102034176207931 0.00161130951819353 0.0150825975676191 -0.0149054486513856 0.000693683274307665 0.0246000452196008 -0.0102034176207931 -0.00161130951819353 -0.0150825975676191 0.0149054486513856 -0.000693683274307665 -0.0246000452196008 -0.0220312573791235 0.00149792392739676 -0.0115679013631025 -0.0162190245774189 -0.000809382856753346 0.0214064796339168 0.0220312573791235 -0.00149792392739676 0.0115679013631025 0.0162190245774189 0.000809382856753346 -0.0214064796339168 -0.00260735436795924 0.0138960340720928 0.00333009109296993 -0.0116851436066474 0.0218538513527068 0.0135412220192594 0.00407365374282084 0.0108971008951007 -0.00266983214247991 0.014006334340691 0.0204510581930987 -0.0201417546426939 0.00260735436795924 -0.0138960340720928 -0.00333009109296993 0.0116851436066474 -0.0218538513527068 -0.0135412220192594 -0.00407365374282084 -0.0108971008951007 0.00266983214247991 -0.014006334340691 -0.0204510581930987 0.0201417546426939