10.090002 0.000000 0.000000 0.000000 6.136879 0.000000 0.000000 0.000000 4.882330