5.076111 0.108443 2.421285 2.823071 4.772749 4.838655 2.141331 1.506939 2.399105 7.298361 1.584589 0.051364 7.901681 4.460089 2.476655 1.046321 4.570149 2.165615 3.896181 1.604659 4.564645 8.961911 1.416969 2.803875 6.130171 4.580349 0.242259 1.238261 4.637919 3.669435 3.722731 1.538399 1.185325 8.790361 1.532939 1.240885 6.219221 4.569709 3.582655 4.701331 4.639599 0.718231 0.366318 1.402869 3.234255 5.448941 1.542149 4.127135 9.709441 4.598819 1.689725 1.959391 5.730439 1.525585 3.313771 0.399854 3.818995 8.338971 2.637789 3.518075 6.863131 3.321249 0.842450 8.224911 0.260975 3.439505 6.900561 5.749139 0.868802 1.732241 3.238539 1.541435 3.309521 2.919759 3.924965