0.327860220767977 -0.240217015734824 -0.32267045171983 -0.252900003962519 -1.1231223291491 -0.197845514651566 -0.91297872021411 0.632259394427985 0.0368806560105687 -0.355309046817574 -0.646156714050994 -0.165635265119055 0.0994427626713305 0.144328544236224 -0.0416397655018344 2.08787866938912 -1.53671156963622 -0.564033150431049 3.35485517448642 2.94265227210719 -0.387034129434363 2.52261985042877 0.860005537836263 -2.32426628605518 0.695977725582654 -1.12461356821174 -1.35362932170472 0.0613092087379667 0.132515359758337 0.960538704794599 0.293699019165248 -0.315461596402915 0.578739852910811 0.39222389848251 -0.305618904369169 1.67083412514981 0.300045012707302 -0.0500513822558187 -0.261674146074833 -2.10380973056134 0.235910420166012 0.289901501759198 0.517543515543275 -0.251415192654466 -0.839787421469155 -0.865808514671372 0.0168101208886247 1.06754204951348 -1.74099460905506 0.323325568466656 0.105098158261275 -0.643600267499311 -0.424404580343952 -0.31379500819533 -1.55179545275475 -1.13251045037893 -0.573360593657637 -0.947112668137419 1.67377726541705 -0.0600488546198584 -0.04729361843068 0.670113212482013 0.887681906398003 -1.13940383150104 -1.86350349759294 0.39680894437974 0.643060079004381 1.05934460554211 1.08013016408357 -0.405843539107649 1.63198811889877 0.199678967368055 -0.32966513425413 -1.30924336233599 0.131584620895107