6.33819444798758 2.01901400992757 -1.2604685594688 2.01901400992757 4.32672815398497 1.91523291595933 -1.2604685594688 1.91523291595933 7.44393483099464