10.311035 0.000000 0.000000 0.000000 6.279577 0.000000 0.000000 0.000000 4.911732
8.699478 0.000000 0.000000 0.000000 8.452583 0.000000 0.000000 0.000000 5.110053
9.370566 0.000000 0.000000 0.000000 8.506535 0.000000 0.000000 0.000000 4.915688
8.520925 0.000000 0.000000 0.000000 9.013010 0.000000 0.000000 0.000000 4.979060
10.092827 0.000000 0.000000 0.000000 6.328573 0.000000 0.000000 0.000000 5.031141
8.557986 0.000000 0.000000 0.000000 9.020953 0.000000 0.000000 0.000000 5.032642
8.519888 0.000000 0.000000 0.000000 8.804483 0.000000 0.000000 0.000000 5.313842
9.187235 0.000000 0.000000 0.000000 8.263387 0.000000 0.000000 0.000000 5.273194
9.035739 0.000000 0.000000 0.000000 9.010440 0.000000 0.000000 0.000000 5.076027
8.409946 0.000000 0.000000 0.000000 8.931335 0.000000 0.000000 0.000000 5.212650
7.841607 0.000000 0.000000 0.000000 9.205075 0.000000 0.000000 0.000000 5.388273
8.620045 0.000000 0.000000 0.000000 9.286613 0.000000 0.000000 0.000000 5.212084
8.193805 0.000000 0.000000 0.000000 8.955576 0.000000 0.000000 0.000000 4.969010
10.441221 0.000000 0.000000 0.000000 6.303233 0.000000 0.000000 0.000000 5.045608
10.400221 0.000000 0.000000 0.000000 6.392765 0.000000 0.000000 0.000000 4.939841
8.454603 0.000000 0.000000 0.000000 9.114727 0.000000 0.000000 0.000000 4.781241
8.341494 0.000000 0.000000 0.000000 9.185297 0.000000 0.000000 0.000000 4.968397
8.132467 0.000000 0.000000 0.000000 9.373273 0.000000 0.000000 0.000000 5.153049
8.714081 0.000000 0.000000 0.000000 9.166305 0.000000 0.000000 0.000000 4.857832
8.498738 0.000000 0.000000 0.000000 9.221625 0.000000 0.000000 0.000000 4.978990
10.130820 0.000000 0.000000 0.000000 6.002841 0.000000 0.000000 0.000000 4.778943
10.208549 0.000000 0.000000 0.000000 5.995215 0.000000 0.000000 0.000000 4.866112
10.098247 0.000000 0.000000 0.000000 5.916684 0.000000 0.000000 0.000000 4.796727
10.160784 0.000000 0.000000 0.000000 5.972169 0.000000 0.000000 0.000000 4.723787
10.122595 0.000000 0.000000 0.000000 5.952013 0.000000 0.000000 0.000000 4.800157
10.352029 0.000000 0.000000 0.000000 6.040172 0.000000 0.000000 0.000000 4.653741
10.145214 0.000000 0.000000 0.000000 6.000768 0.000000 0.000000 0.000000 4.713408
10.199565 0.000000 0.000000 0.000000 5.957178 0.000000 0.000000 0.000000 4.733433
10.172018 0.000000 0.000000 0.000000 6.123431 0.000000 0.000000 0.000000 4.756616
10.294635 0.000000 0.000000 0.000000 5.777962 0.000000 0.000000 0.000000 4.665923
10.058819 0.000000 0.000000 0.000000 5.981482 0.000000 0.000000 0.000000 4.822977
9.916405 0.000000 0.000000 0.000000 5.952247 0.000000 0.000000 0.000000 4.870666
10.177826 0.000000 0.000000 0.000000 5.913892 0.000000 0.000000 0.000000 4.776444
10.171280 0.000000 0.000000 0.000000 6.093041 0.000000 0.000000 0.000000 4.671190
10.214074 0.000000 0.000000 0.000000 6.069008 0.000000 0.000000 0.000000 4.617258
10.032158 0.000000 0.000000 0.000000 5.990830 0.000000 0.000000 0.000000 4.759114
9.751043 0.000000 0.000000 0.000000 5.974068 0.000000 0.000000 0.000000 4.874539
9.987336 0.000000 0.000000 0.000000 5.853349 0.000000 0.000000 0.000000 4.861826
9.946867 0.000000 0.000000 0.000000 6.014786 0.000000 0.000000 0.000000 4.816592
10.191537 0.000000 0.000000 0.000000 5.999487 0.000000 0.000000 0.000000 4.707234
9.965324 0.000000 0.000000 0.000000 6.083092 0.000000 0.000000 0.000000 4.775704
10.181470 0.000000 0.000000 0.000000 6.107965 0.000000 0.000000 0.000000 4.736355
10.174007 0.000000 0.000000 0.000000 6.022830 0.000000 0.000000 0.000000 4.924378
10.095691 0.000000 0.000000 0.000000 5.837787 0.000000 0.000000 0.000000 4.891638
10.362861 0.000000 0.000000 0.000000 5.898448 0.000000 0.000000 0.000000 4.776362
10.326964 0.000000 0.000000 0.000000 6.011424 0.000000 0.000000 0.000000 4.764190