5.45375 0.196922 2.36231 10.2144 3.17856 4.80203 2.99663 4.67706 0.17579 2.30248 1.53414 2.7348 7.40755 1.47993 4.76043 8.23382 4.56118 2.38791 1.21966 4.71504 2.28398 3.95733 1.69596 4.80381 9.22389 1.48336 2.5451 6.32539 4.58322 0.14448 1.25082 4.64885 3.87217 3.82657 1.62758 1.45629 9.00687 1.50862 1.01549 6.52281 4.45254 3.55838 4.89944 4.5282 0.751108 0.373785 1.47635 3.04864 5.42654 1.71475 4.4383 10.0568 5.00265 1.75242 2.02169 5.83116 1.61439 3.379 0.344275 4.22374 8.61449 2.81001 3.166 7.22705 3.45832 0.890557 8.32738 0.409087 3.26066 7.00766 5.92965 0.75085 1.73218 3.35764 1.66006 3.14647 2.79262 4.10833
5.40918 7.34995 2.47648 1.08117 3.01436 0.301234 3.81634 4.8349 0.785187 2.12332 0.352306 3.19296 6.43704 1.57392 4.36109 8.43445 5.78534 1.81648 2.30613 5.76151 3.09888 3.72924 1.35283 0.6049 7.96222 0.510413 1.61905 6.80607 4.68541 4.34529 2.50154 4.92857 4.38333 3.43661 0.545296 1.85254 7.8575 1.5272 0.439265 6.91879 5.61765 3.04374 5.54876 5.24128 -0.00426058 9.21282 1.03839 2.42532 4.91804 0.662742 5.04206 1.4628 4.93256 2.03726 1.44617 7.06386 3.46098 2.41312 1.23404 4.8478 6.71344 0.622709 2.66433 6.64228 3.27735 3.72411 7.87791 -0.854904 1.12157 8.08828 4.80784 0.186876 3.63127 6.26972 2.44252 3.98107 2.81771 0.876648
5.04416 7.20462 2.3717 0.583847 3.31936 0.258965 4.0266 4.48062 0.646159 1.86942 0.692044 2.99501 6.27618 1.44408 4.28375 8.68687 5.8099 2.04916 2.25322 5.86748 3.20125 3.43588 1.32408 0.445828 8.28802 0.570273 1.77958 6.91928 4.81378 4.34975 2.56655 4.8787 4.42909 3.25915 0.276609 1.50918 7.79908 1.10204 0.411164 7.05736 5.80001 3.18018 5.77126 5.40207 0.424993 9.43088 1.32808 2.51881 4.52518 0.780802 4.33729 0.898742 5.09932 2.65645 1.84037 7.31129 3.65871 2.05069 1.65072 4.72145 7.05357 0.481986 2.62145 6.52148 3.34733 3.87104 8.60243 -0.983859 1.32445 8.17526 4.61993 0.309773 3.4705 5.67287 2.21801 4.03817 2.67772 1.12732
5.34955 7.15189 4.47671 9.29755 2.99321 1.93006 3.77556 4.31947 4.54769 2.42124 0.00834615 3.40385 6.60743 1.74605 0.34655 8.09103 6.18081 1.76015 2.68753 6.1179 2.08414 3.36972 1.61106 0.952443 7.61745 0.212782 2.85186 7.10242 4.69984 4.26841 2.65618 4.88386 3.03745 2.68437 1.55136 2.39046 7.72701 1.22948 1.72754 7.71394 4.58063 2.74777 5.59333 4.74756 4.02635 9.01771 0.283856 3.54028 4.92622 1.84611 1.04295 1.38631 6.35067 1.38442 3.0263 7.42579 2.82548 3.03492 0.348891 0.125366 6.49073 0.410352 3.9405 7.53142 3.47233 0.16068 7.16273 -1.14722 2.15874 7.38601 6.13288 4.86092 3.83229 5.88785 1.02417 2.89029 2.82219 -2.05415e-05
4.52425 5.92153 2.28112 0.423568 3.07994 4.92732 2.94504 4.73499 4.96132 2.37441 1.59336 2.44859 7.44667 1.50255 4.93971 8.03477 4.69711 2.63645 1.2939 4.76447 2.18189 4.11907 1.48873 4.78009 9.20229 1.5332 2.69275 6.35469 4.64956 0.235531 1.38691 4.68414 3.79614 4.03227 1.51372 1.29207 9.15675 1.60165 1.13301 6.41813 4.56041 3.76709 4.74663 4.72902 0.470586 0.562134 1.44798 3.19844 5.60183 1.62261 4.34294 9.90945 4.74069 1.77182 2.01091 6.06013 1.5937 3.40217 0.241597 4.06962 8.54634 2.79269 3.45034 7.00203 3.52042 1.0602 8.42758 0.330989 3.30694 7.001 5.96988 0.835395 2.08864 3.53674 1.58825 3.28716 2.63225 4.05771
5.06614 7.45974 4.7863 9.25443 3.19282 2.54183 3.60656 4.16634 4.04031 2.59217 -0.0656691 3.32586 6.74893 1.7991 0.819021 8.02951 6.52649 1.47906 2.77624 6.08976 1.79874 3.42461 1.75829 0.875302 7.76875 0.054221 3.21909 7.01237 4.4945 4.19898 2.458 4.80594 2.66721 2.39249 1.43569 2.0242 7.70351 1.45559 2.4948 7.89252 5.06643 3.04805 5.48821 4.26882 3.93349 9.24004 -0.235732 3.84758 4.87064 2.08375 1.32602 1.38736 6.58513 1.18131 3.45085 7.16695 2.52959 3.45849 0.40044 -0.0128495 6.66656 0.234659 4.41512 7.68806 3.33361 4.96092 7.02898 -1.10131 2.26769 6.8723 5.85375 0.0441069 3.50366 5.77929 0.501238 2.77146 2.84505 -0.073943
5.62749 -0.786484 4.65697 1.10135 2.91673 3.46855 3.85134 4.33911 4.49734 2.40184 0.0469285 3.02069 6.52341 1.87497 0.231989 7.76921 6.30612 1.9593 2.74416 5.90425 1.83288 3.44324 1.39847 0.428165 7.75808 0.351227 2.88809 7.06904 4.59708 4.71845 3.03863 4.70235 2.75822 2.33764 1.14614 1.51737 7.74477 1.01868 1.57698 7.67372 4.97201 3.35016 5.59257 4.06606 4.3884 9.09189 0.349307 3.68658 4.8857 1.44447 0.971224 1.13454 6.20951 1.77524 3.50983 7.15864 2.42626 3.53597 0.412478 4.55634 6.71011 0.972828 3.86405 7.66058 3.50096 0.24014 6.88649 -1.05457 2.73036 6.92642 5.85231 0.323513 3.31394 5.74134 0.330808 2.9119 2.71502 5.02527
5.27794 -0.882217 5.14786 0.687295 3.26874 1.35535 3.69957 4.28288 4.60842 2.04129 0.211524 3.40219 6.68322 2.09765 0.400229 8.26963 5.75251 1.67838 2.64204 5.6301 1.9825 3.29086 1.49783 0.600807 8.05164 0.600358 3.02524 6.94448 4.73056 4.37056 3.13678 4.37185 2.68895 2.25926 1.23045 1.7403 7.94586 1.67585 1.9186 7.19574 4.98074 2.91463 5.53376 3.99422 4.48644 9.41122 0.563526 3.76494 4.90363 1.57698 0.955528 1.09818 5.71543 1.5444 2.92957 6.78597 2.97473 3.14055 0.32597 4.84211 7.06638 0.957554 4.21547 7.75831 3.65963 -0.136881 7.71757 -0.812448 2.38921 6.98458 5.98374 -0.0216888 3.5261 5.71094 0.651688 2.6143 2.88213 0.0792324
5.5848 7.24778 2.8165 0.800395 3.07175 3.15446 3.79871 4.58068 0.177546 2.0577 -0.0946656 3.35889 6.52718 1.50364 0.699305 8.34311 6.29628 2.49968 2.5098 5.83831 2.60074 3.41567 1.40151 0.80642 8.05379 0.529321 3.11447 6.73441 4.83093 4.9747 2.50117 4.79104 3.74983 2.28397 0.765814 1.66563 7.94104 1.64655 2.11996 8.02119 4.80971 4.02071 5.51146 5.42455 4.26268 7.02363 0.530414 4.2639 4.81052 1.08542 1.55951 1.16768 6.13047 1.73525 2.7421 7.08933 3.47865 3.23348 0.770521 4.55762 7.54415 -0.807163 2.44764 6.47699 3.40043 0.134595 9.47396 0.701354 3.75657 7.24144 5.56288 1.21068 3.70177 5.73559 1.7495 3.35438 2.90844 0.75445
5.13068 7.75492 0.922949 1.02773 3.34372 1.20135 3.80765 4.64614 0.688609 2.33851 0.0725475 2.76291 6.27489 1.56127 0.0165998 8.16118 6.05895 3.58598 3.00636 5.99896 3.30123 3.40767 1.3039 0.11931 7.73176 0.377646 2.68095 6.84269 4.79585 1.02305 4.05253 5.6529 4.34867 2.40842 0.345489 0.766691 7.3743 0.472279 1.14807 7.15226 5.94476 0.0392007 5.50646 4.9561 1.57764 6.50324 1.0233 3.46317 4.71725 1.10007 0.975653 1.55014 6.13559 3.98149 3.31028 7.29438 2.48787 3.57445 0.828921 3.8851 7.81388 -1.12827 2.95141 6.76276 3.32784 0.462719 9.11166 1.08319 3.01679 7.85676 4.75821 2.16329 2.82403 4.79345 2.28911 3.25818 2.83534 0.149514
5.14546 -1.46952 2.33103 1.38259 3.4728 0.132945 3.90201 5.95434 -0.0770675 2.69727 1.33022 2.25858 6.67695 0.364306 4.81504 7.69828 4.82831 2.73074 3.19535 4.39824 2.66876 3.47683 -0.156822 4.94599 7.17662 1.72622 2.30337 6.85545 6.4211 0.00562409 3.18632 4.56282 4.25538 2.64739 0.867972 0.386406 7.30965 1.57776 0.748214 7.64986 5.24907 4.77921 5.49903 6.40632 4.59809 8.66531 1.53828 2.88066 4.91731 -0.217118 0.132535 1.69073 4.56676 2.31193 3.96067 5.53323 1.84953 2.96876 7.57295 5.03576 6.71085 3.12082 2.75368 6.67985 6.04798 1.52069 6.31368 0.55225 2.84673 7.46008 -1.36742 -0.0823949 3.76653 3.04216 2.32446 3.40871 0.0957589 3.45466
4.89155 -1.40098 2.74612 1.29987 2.98029 0.127678 3.87097 5.79328 5.01334 2.34947 1.28151 2.91068 6.71278 0.303082 4.69606 7.90903 5.11161 2.41186 2.56769 4.33323 2.35176 3.49197 -0.20576 0.255045 7.61573 1.85824 2.15842 7.04692 6.41207 -0.147984 2.73173 4.6949 3.88539 3.22251 -0.0557493 1.79837 7.77412 1.46863 0.586062 8.06162 5.3442 4.61173 5.69067 5.97448 4.46918 8.963 1.51836 2.98132 4.99908 0.0298558 0.0543322 1.11005 4.51321 2.0216 3.41706 5.31322 1.53787 3.35327 -1.66284 4.78992 7.21991 3.35756 2.15418 7.03429 6.40718 1.38049 6.51454 1.18775 2.87941 7.44677 -1.45027 4.73189 3.03808 2.91771 1.8095 2.60926 0.794963 4.71378
5.27614 -0.886241 0.558713 1.27917 3.00639 2.10309 3.70771 4.3799 3.99101 2.43531 -0.271136 2.97978 6.69804 1.85164 0.552721 7.87674 6.29008 1.61914 2.87357 6.2444 1.47413 3.49439 1.63995 0.477449 7.48299 0.0223561 2.99955 6.92718 4.54234 4.18754 2.45435 5.06822 2.33986 2.47373 1.17906 1.45514 7.92201 1.36859 2.10105 7.89951 4.92462 3.07795 5.63993 4.17613 3.62086 8.83555 -0.587464 3.5149 4.92074 2.13294 0.953795 1.53387 6.77642 1.04557 3.5902 7.32598 2.32042 3.57933 0.436778 4.37669 6.54067 0.327255 4.24669 7.77755 3.34122 4.95491 6.77198 -1.04364 2.0843 6.70118 5.78519 0.229732 3.84387 5.82128 0.298682 2.81111 2.80284 4.5813
4.92667 5.88838 2.42155 0.0782321 3.01137 0.103735 2.87318 4.71159 0.084737 2.3112 1.64146 2.50644 7.46719 1.55055 -0.0181705 8.25677 4.84139 2.50301 1.14363 4.74529 2.36846 4.0053 1.48637 4.69519 9.25806 1.47917 2.68526 6.38495 4.68209 0.00563625 1.15145 4.79671 3.91218 3.8893 1.59876 1.16446 9.04657 1.57865 1.14798 6.51135 4.75415 3.54216 4.91063 4.66056 0.434697 0.326132 1.5258 3.01164 5.47477 1.45194 4.18727 10.1487 4.4615 1.84244 1.96313 6.00942 1.72781 3.28673 0.268607 3.99859 8.49067 2.59276 3.42507 7.19413 3.42581 0.652021 8.65086 0.186005 3.28218 6.98489 5.8832 0.794982 2.11663 3.53915 1.74251 3.0712 2.70583 4.03877
5.19001 6.26303 2.47441 0.0808577 2.91775 0.184561 3.05138 4.59706 4.88402 2.34857 1.33048 2.46999 7.47488 1.80137 4.8974 8.18767 4.7816 2.44407 1.1428 4.80772 2.15641 3.98353 1.46519 4.5815 9.2191 1.63425 2.76958 6.24482 4.55359 0.403876 1.44285 4.63105 3.64969 3.85958 1.4881 1.18984 9.02189 1.65504 1.22104 6.45956 4.49946 3.78249 4.73948 4.65049 0.881542 0.271518 1.67597 3.11563 5.53386 1.47011 4.32443 10.0418 4.91271 1.91021 2.00197 6.03233 1.54035 3.32274 0.117658 3.82106 8.55955 2.90493 3.48822 6.96694 3.29511 1.08955 8.42506 0.497006 3.45476 7.00585 5.79345 1.01014 1.78683 3.57807 1.4554 3.27728 2.58502 3.82814
5.21414 -1.39779 0.208639 9.00041 3.38959 2.04991 3.75393 4.10492 4.15222 2.42739 -0.202688 3.17614 6.74642 2.06765 0.25424 7.99068 6.55957 1.44354 2.72024 5.91727 1.93913 3.48107 1.49899 0.7537 7.64141 0.232869 2.72351 6.94087 4.71671 3.97766 2.73584 4.52028 2.60651 2.99021 1.33239 2.18035 7.87619 1.48236 1.7888 7.51882 5.17828 2.63609 5.51795 4.01259 3.65846 8.98326 -0.185642 3.31609 4.92877 1.81453 0.810702 1.4052 6.2834 1.29681 3.2754 7.04238 2.85773 3.36519 0.140847 4.75907 6.66372 0.544602 3.90109 7.80699 3.60951 4.67647 7.09652 -0.961541 1.89178 6.87155 6.01307 4.81491 3.7501 5.60655 0.810311 2.7546 2.65923 4.68668
5.53045 7.45128 4.21443 1.31176 3.39762 3.08915 3.82151 4.54013 4.192 2.30539 -0.182297 2.51642 6.64091 1.65304 0.502429 7.95191 6.1008 1.82354 2.89684 6.44581 1.82868 3.33291 1.55625 0.00210309 7.53092 -0.134554 3.00664 6.8893 4.60457 4.25189 2.78828 5.0991 2.6909 2.36641 0.996566 1.03584 7.50382 1.12996 2.10022 8.08731 4.78438 3.28762 5.56286 4.58779 3.46399 9.01212 -0.343183 3.69056 4.83854 1.6198 0.483142 1.42899 7.00423 1.81066 3.67811 7.53951 2.57647 3.36694 1.11011 3.52837 6.82765 0.0443582 4.38868 7.40172 3.45841 0.183555 6.89738 -1.38531 2.26379 6.80958 5.83297 0.233598 3.51732 6.16717 0.394147 2.93164 3.12052 5.04544
4.87176 7.67359 4.7558 9.24191 3.30526 2.08575 3.64082 4.50246 4.36587 2.82791 -0.245798 3.02828 6.63352 1.77661 0.228032 7.72063 6.44552 1.55955 2.88917 6.25508 1.67685 3.48397 1.54923 0.503225 7.63896 -0.0371099 2.7602 6.97485 4.7311 4.22271 2.83846 4.82704 2.54273 2.75561 1.24527 1.86717 7.81665 1.25286 2.00743 7.72892 5.11019 2.88882 5.48736 4.36881 3.96081 9.08273 -0.65178 3.19521 4.89708 1.92753 0.983107 1.46946 6.40778 1.14506 3.56095 7.34458 2.45758 3.42384 0.234229 4.74411 6.80719 0.394428 4.08835 7.50902 3.38758 4.84384 6.8484 -1.28293 2.33379 6.90066 6.10385 -0.0352213 3.56951 6.07421 0.298501 2.69771 2.63881 4.88306
5.46264 7.62329 0.394684 9.5488 3.53448 2.09544 3.95391 4.49917 3.80946 1.98441 0.0944125 2.55633 6.62182 1.78172 0.718744 8.13007 6.44135 1.95103 2.73686 6.1995 1.48895 3.30516 1.65201 0.206226 7.47233 -0.112439 3.08065 7.3509 4.49229 4.41955 2.84447 4.84225 2.33887 2.33736 1.48295 1.40717 7.18114 1.25635 2.44144 8.10982 4.69421 3.10215 5.89207 4.02376 3.9977 8.93375 -0.652196 2.74476 4.72525 1.49045 0.882449 1.21161 6.31911 1.17004 3.18706 7.44109 2.22885 3.06973 0.328711 3.99529 7.50932 0.139446 4.60914 7.81219 3.459 0.659261 6.58813 -1.27944 2.62192 7.28603 5.93994 0.193465 3.60622 5.88256 0.190402 2.92598 2.94593 4.40025
5.1567 7.62218 4.366 1.33389 3.68949 2.15935 3.64003 4.60759 3.77176 2.51486 -0.281996 2.83316 6.79554 1.73154 1.02482 7.77243 6.25441 1.81572 2.66591 6.47505 1.0806 3.46648 1.48804 0.426387 7.64109 -0.23803 3.42253 6.93008 4.60933 4.24079 2.91402 5.25316 1.99873 2.35113 1.23561 1.44038 7.69219 1.13961 2.60999 8.0866 4.93692 3.20801 5.59944 4.30057 3.60895 9.17692 -0.650736 3.58402 4.8537 1.63918 1.11299 1.14986 6.64485 0.970921 3.39492 7.69498 1.60869 3.26198 0.341334 4.35194 6.94869 0.0904949 4.72494 7.38136 3.4481 0.146186 6.9204 -1.42508 2.83805 6.91674 6.00361 0.107157 3.43242 6.14076 4.72121 3.21586 2.90298 4.64283
5.25764 0.00936886 2.56914 0.156289 3.15694 4.90168 2.84274 4.66602 4.81391 2.2806 1.67699 2.41265 7.44874 1.43859 0.235074 8.07533 4.42086 2.51898 1.17751 4.74148 2.10458 4.17858 1.69717 4.52385 9.26182 1.57389 2.81706 6.25807 4.57702 0.365542 1.19415 4.56614 3.61293 4.00967 1.67903 1.28742 9.20328 1.66913 1.30374 6.4547 4.69434 3.66073 4.75371 4.47023 0.697285 0.622893 1.69241 3.32103 5.69311 1.73753 4.11945 9.80405 4.7205 1.69173 1.9349 5.89116 1.4094 3.54595 0.414248 3.80251 8.5707 2.81695 3.50879 7.06672 3.43989 1.06222 8.5368 0.402488 3.55742 6.87221 5.80485 1.09422 1.90165 3.51116 1.36276 3.43599 2.83885 3.74816
5.30553 0.0737284 2.38629 -0.00359652 3.09725 0.146562 2.94387 4.665 4.94432 2.3631 1.69566 2.48818 7.41173 1.49094 0.121178 8.04 4.54473 2.32496 1.17029 4.73499 2.20629 4.15603 1.62712 4.60653 9.24563 1.58827 2.76265 6.20997 4.51373 0.294668 1.2824 4.56355 3.73371 4.0726 1.66354 1.24519 9.04981 1.61138 1.22551 6.51235 4.44374 3.69508 4.81838 4.71814 0.87383 0.532321 1.49767 3.27239 5.69148 1.50142 4.14745 9.91528 4.81626 1.74376 2.05018 5.90117 1.65413 3.42321 0.453551 3.78197 8.65655 2.93121 3.42659 6.82015 3.29063 0.999564 8.36099 0.470461 3.45674 7.04251 5.73751 0.968256 1.80936 3.42374 1.50431 3.46162 2.88988 3.91868
5.36086 6.10851 2.52354 0.233236 3.02045 4.88553 3.02338 4.66094 4.80047 2.43915 1.77835 2.50624 7.41579 1.51237 0.0293268 8.02809 4.54037 2.58651 1.16534 4.73555 2.14676 4.13942 1.69289 4.61505 9.18902 1.56016 2.67417 6.2688 4.44473 0.409196 1.22137 4.54563 3.66318 4.12687 1.78069 1.36713 8.97561 1.62928 1.17248 6.32098 4.50873 3.68085 4.74395 4.35689 0.859119 0.542602 1.59577 3.13144 5.60415 1.68125 4.07324 9.80415 4.81869 1.67261 2.12565 5.81183 1.5659 3.3921 0.497905 4.02527 8.37512 2.73556 3.45773 6.93658 3.17958 1.03176 8.25467 0.475553 3.34501 7.02166 5.6842 1.05685 1.7638 3.41857 1.47027 3.47124 2.91634 3.905
5.02166 6.08774 2.22697 0.287095 3.03771 0.192415 2.94586 4.68617 0.16697 2.34232 1.65967 2.55298 7.40864 1.55324 0.149978 8.06367 4.459 2.34181 1.21932 4.69544 2.19914 4.14341 1.81276 4.61971 9.24006 1.49702 2.82254 6.29478 4.52268 0.198457 1.36043 4.785 3.72294 3.94947 1.78286 1.41004 9.03766 1.40461 1.31252 6.39895 4.57036 3.47138 4.82339 4.48857 0.684147 0.520127 1.73718 3.27939 5.58085 1.76658 4.12765 9.99728 4.72444 1.69457 2.04236 5.93556 1.67719 3.43633 0.56497 3.93817 8.43842 2.7196 3.40591 6.93727 3.2487 1.0303 8.52957 0.297874 3.53931 7.05274 5.63545 0.992958 1.90772 3.49063 1.56687 3.28101 2.81342 3.9192
5.28158 0.21912 2.52676 0.237735 3.10223 4.77368 3.05182 4.62753 4.77246 2.29122 1.70821 2.30086 7.43749 1.6254 0.278887 7.92998 4.6021 2.59702 1.19505 4.69194 2.0714 4.21263 1.68881 4.46952 9.24002 1.49704 2.86581 6.20358 4.4659 0.407938 1.37808 4.51216 3.54175 3.99928 1.8043 1.19758 9.10928 1.54513 1.37225 6.36318 4.45135 3.65758 4.76353 4.56737 0.896286 0.588008 1.49878 3.28391 5.72088 1.75575 4.14756 9.76842 4.67073 1.78581 2.0228 5.87761 1.46392 3.4504 0.457903 3.80714 8.55726 2.72144 3.49519 6.9696 3.27026 1.22108 8.34772 0.314079 3.54798 6.95524 5.63901 1.08759 1.84864 3.41297 1.33844 3.44017 2.88048 3.7583
5.38911 0.288127 2.51026 0.224941 2.96064 4.81446 2.91457 4.68354 4.69492 2.21344 1.68556 2.5384 7.39885 1.57789 0.179184 8.22005 4.49138 2.61325 1.08225 4.81531 2.13547 4.11673 1.61845 4.53621 9.35098 1.46224 2.73753 6.23829 4.51492 0.414357 1.1514 4.77088 3.71983 3.89761 1.56402 1.37715 9.13096 1.38686 1.15998 6.45825 4.61206 3.55697 4.6349 4.52539 0.851285 0.434556 1.58211 3.09847 5.61544 1.78707 4.09673 9.9434 4.70576 1.65687 1.8089 6.00539 1.38219 3.55671 0.288434 3.81953 8.70586 2.72093 3.4362 7.14295 3.30582 1.12369 8.54976 0.222368 3.40722 6.85009 5.84827 1.08029 1.91436 3.62352 1.5252 3.18138 2.77714 3.88635
5.08809 0.307655 2.30136 10.1476 3.04448 4.76316 2.99446 4.66392 4.75286 2.3522 1.5298 2.2146 7.45334 1.56331 0.276538 7.96791 4.72282 2.55314 1.13526 4.52868 2.13662 4.2194 1.72081 4.50718 9.16362 1.49154 2.86838 6.29037 4.60108 0.465204 1.42722 4.42146 3.73159 3.96668 1.89312 1.34403 8.98772 1.36598 1.28018 6.38331 4.58157 3.67038 4.89379 4.47427 0.99497 0.571121 1.484 3.14135 5.74282 1.56988 4.16766 9.82142 4.65923 1.79475 1.89058 5.7089 1.41369 3.51969 0.502944 3.85778 8.58829 2.86216 3.38834 7.23436 3.49024 1.15768 8.28692 0.431652 3.54985 6.99274 5.78963 1.22278 1.76785 3.28774 1.48836 3.6901 3.07143 3.89149
5.11156 6.09199 2.28937 0.261933 2.99222 0.2287 3.03069 4.50862 4.72259 2.2774 1.66121 2.42366 7.4618 1.64058 0.154779 8.09148 4.64137 2.56507 1.14071 4.73812 2.18014 4.10075 1.55557 4.51704 9.24602 1.58579 2.76953 6.28979 4.52356 0.461718 1.29047 4.66625 3.71836 3.82066 1.78572 1.25562 9.06634 1.53447 1.23817 6.35064 4.65009 3.67291 4.83194 4.46473 1.00082 0.525254 1.56049 3.1484 5.62658 1.48175 4.21158 9.87299 4.5974 1.84392 1.9191 5.89993 1.50992 3.4632 0.3507 3.83043 8.64651 2.897 3.47829 7.2044 3.46002 1.14598 8.29307 0.474999 3.39201 6.93241 5.77679 1.09456 1.85064 3.50706 1.40117 3.35923 2.82159 3.75254
5.44763 0.198392 2.3789 10.2349 3.23736 4.87607 2.98134 4.71962 4.77625 2.35294 1.66862 2.47054 7.53708 1.55556 0.17474 8.05003 4.59362 2.60262 1.15707 4.69816 2.1416 4.1996 1.61058 4.51747 9.21098 1.43117 2.77201 6.20857 4.49202 0.443111 1.39655 4.85044 3.59914 3.98108 1.39973 1.35833 9.10143 1.51424 1.19467 6.31919 4.48813 3.66492 4.7538 4.54958 0.842531 0.496428 1.58731 3.23821 5.66487 1.82454 4.15242 9.83475 4.47825 1.88559 1.82748 5.88068 1.41334 3.53553 0.316267 3.75999 8.45351 2.72593 3.39201 6.9294 3.3917 1.21612 8.27665 0.287847 3.30738 6.92908 5.8239 0.918264 1.88949 3.4642 1.39684 3.27967 2.81551 3.9199
5.02645 0.0914186 2.45251 10.2107 3.11485 0.281547 2.94096 4.77226 4.79151 2.44383 1.80405 2.29882 7.5335 1.42585 4.83604 7.99244 4.38771 2.57991 1.13982 4.79769 2.28862 4.14964 1.77506 4.40145 9.39492 1.46505 2.73135 6.12226 4.41692 0.46784 1.19876 4.80576 3.86527 4.16979 1.82457 1.29746 9.2395 1.47279 1.21256 6.37287 4.38269 3.61242 4.69207 4.54558 0.958127 0.530652 1.75581 3.23286 5.56711 1.55929 3.89119 9.97398 4.6082 1.88721 1.6897 5.98571 1.48293 3.26298 0.629925 3.75278 8.54396 2.71581 3.51204 6.99382 3.16402 1.05234 8.69905 0.266067 3.42737 6.93037 5.62723 1.13723 1.9982 3.64257 1.54839 3.51255 3.0739 3.7283
5.28203 0.233289 2.46586 10.1118 3.03988 0.0194534 3.06414 4.70621 4.79338 2.38159 1.70517 2.5486 7.43751 1.43259 4.77641 7.92665 4.5202 2.54114 1.15677 4.76685 2.12199 4.1685 1.82537 4.7628 9.29051 1.31227 2.65197 6.23215 4.59546 0.428248 1.23677 4.81646 3.70311 3.96182 1.73516 1.46614 8.91083 1.37046 1.16125 6.27943 4.46262 3.66669 4.80702 4.50027 0.93915 0.673219 1.38811 2.97525 5.70434 1.84357 4.29087 9.81409 4.80973 1.59896 2.09447 5.85401 1.45864 3.5066 0.595186 4.01017 8.51212 2.59873 3.36815 7.13851 3.48174 0.998572 8.6096 0.0580303 3.46964 6.86166 5.89993 1.15821 1.74251 3.4645 1.45777 3.39975 2.94119 3.98712
5.09045 6.0737 2.34206 0.471907 2.67037 4.9895 2.91763 4.72165 4.70789 2.43792 1.81887 2.54174 7.41859 1.591 0.0754597 7.96647 4.54489 2.52629 1.32105 4.61703 2.14905 4.15921 1.66307 4.59144 9.12691 1.54745 2.81425 6.22689 4.56608 0.431238 1.20165 4.63007 3.70759 4.04415 1.67427 1.21617 9.06026 1.40452 1.2857 6.41967 4.53727 3.73831 4.74225 4.73379 0.620931 0.738758 1.45545 3.19122 5.62846 1.48695 4.20235 9.77342 4.5224 1.72809 2.09349 5.79191 1.41123 3.42807 0.50474 3.8722 8.52092 2.84992 3.42515 7.04074 3.37738 1.06637 8.1119 0.554364 3.5422 7.00892 5.74981 1.10491 2.04963 3.46019 1.43828 3.43474 2.91529 4.06747
5.53657 0.37347 2.55737 0.20637 2.93839 4.63424 2.88578 4.75478 4.71076 2.33708 1.64394 2.48133 7.37887 1.59506 0.182533 7.96714 4.42529 2.57322 1.07773 4.61425 2.03967 4.22092 1.84971 4.56381 9.25016 1.37046 2.76975 6.23306 4.59377 0.47694 1.16673 4.56677 3.57372 4.23312 1.67948 1.29875 9.01608 1.44061 1.22208 6.4987 4.54304 3.78619 4.72333 4.72243 0.837387 0.573217 1.36927 3.13404 5.7228 1.7674 4.14392 9.79186 4.52388 1.65739 1.94995 5.79068 1.38028 3.46696 0.657979 3.958 8.604 2.79058 3.36548 6.90051 3.36744 1.12195 8.53601 0.356888 3.68595 7.17668 5.74869 1.13945 1.80183 3.37641 1.44383 3.38851 3.05851 3.92936
5.13576 0.127396 2.37916 0.20548 2.75096 0.148925 2.95373 4.75432 0.157804 2.37434 1.70851 2.39375 7.3814 1.5171 0.165478 8.09735 4.60111 2.47055 1.21793 4.69178 2.24343 4.12578 1.64514 4.4957 9.23969 1.45651 2.77853 6.23123 4.57528 0.431592 1.37491 4.77909 3.79192 4.01974 1.63111 1.44737 8.98842 1.55605 1.29999 6.35981 4.4985 3.53669 4.80019 4.56846 0.943134 0.559444 1.53296 3.02359 5.50839 1.59738 3.93806 9.94775 4.72727 1.67427 2.04198 5.87491 1.50799 3.27294 0.453395 3.88456 8.56523 2.73859 3.42639 7.00998 3.37923 1.07017 8.51042 0.238064 3.42196 6.99666 5.87435 1.06233 1.95626 3.48396 1.68253 3.32609 2.87074 3.99933
5.17516 0.0763747 2.46631 10.0286 3.15541 4.70694 3.1766 4.7725 0.0634717 2.26305 1.74744 2.46083 7.36732 1.34169 0.128 8.18115 4.47998 2.49531 1.21656 4.79706 2.21546 4.09876 1.7107 4.41386 9.11009 1.45813 2.77136 6.28532 4.55047 0.547681 1.48373 4.74748 3.75291 4.00678 1.67334 1.38951 9.02362 1.64471 1.2501 6.46488 4.54544 3.64957 4.82264 4.6115 0.983194 0.349856 1.54715 3.23735 5.61678 1.65949 4.08049 9.97911 4.59174 1.7656 2.071 5.95779 1.52596 3.47594 0.502941 3.75482 8.30719 2.61841 3.50944 6.97283 3.38776 1.26402 8.34842 0.235234 3.23539 6.99928 5.76518 1.27419 1.98983 3.50535 1.58978 3.36916 2.86979 3.77605
5.37998 0.632792 2.64089 0.420164 2.69706 0.0990096 3.01159 4.66075 4.65063 2.25497 1.45003 2.34952 7.38768 1.63875 0.369945 8.07798 4.44367 2.6291 1.1351 4.57303 1.98041 4.11287 1.82234 4.57066 9.20908 1.40732 2.72507 6.21853 4.75635 0.412544 1.29746 4.64087 3.549 3.94906 1.67426 1.35238 9.03811 1.46629 1.22844 6.4205 4.67777 3.74555 4.72932 4.83521 0.798998 0.647194 1.46238 3.20957 5.65868 1.91687 4.34134 9.73942 4.33346 1.57245 1.70235 5.87489 1.18471 3.52268 0.555412 3.72574 8.47946 2.69944 3.45529 7.01259 3.60365 1.18413 8.67641 0.152763 3.45396 6.98667 5.90301 1.21402 1.95054 3.33176 1.46998 3.3979 3.08588 3.87145
5.16148 5.85356 2.40932 0.393587 2.75852 0.0270854 2.80309 4.85613 -0.00345356 2.55775 1.52649 2.51628 7.43182 1.71023 0.191495 7.84275 4.68547 2.46877 1.30806 4.58126 2.15309 4.26784 1.81631 4.5988 9.14201 1.50521 2.82964 6.19038 4.60125 0.278618 1.21335 4.61547 3.61845 4.26463 1.9055 1.27002 9.00081 1.42871 1.2624 6.28936 4.34932 3.61853 4.77348 4.6235 0.607496 0.781966 1.06168 3.28234 5.72626 1.56628 4.1242 9.75594 4.76497 1.42279 2.33482 5.73446 1.80897 3.38405 0.582171 4.03726 8.52934 2.83084 3.29203 6.84732 3.37812 0.989551 8.16833 0.433052 3.45272 7.013 5.7328 0.971628 2.04363 3.32029 1.56587 3.52357 2.95706 3.88494
5.25239 0.199637 2.56186 0.476599 3.12645 4.73137 2.9086 4.67456 4.77421 2.40128 1.59429 2.35396 7.26895 1.59266 0.366403 8.05475 4.60091 2.59201 1.1958 4.55867 1.97577 4.15545 1.74944 4.61982 9.13659 1.54224 2.85443 6.18853 4.53538 0.431849 1.31883 4.69304 3.47728 4.23283 1.69547 1.20764 8.96209 1.69702 1.38646 6.46193 4.59087 3.76037 4.73331 4.47395 0.85311 0.731021 1.5519 3.05112 5.66115 1.68893 4.01587 9.77568 4.40343 1.51349 1.98329 5.81898 1.25893 3.44052 0.537164 3.891 8.58522 2.88425 3.62472 6.95313 3.39033 1.08373 8.49223 0.362041 3.4889 6.92464 5.66736 1.23124 2.08566 3.3731 1.37216 3.34401 2.88605 3.83145
4.96448 0.248474 2.49322 10.0525 3.04623 0.0681341 2.93836 4.66042 4.80762 2.39349 1.69882 2.40197 7.40543 1.67772 0.259795 8.09782 4.58164 2.44218 1.27239 4.61482 2.13061 4.16648 1.68318 4.62129 9.31608 1.31796 2.90633 6.2687 4.72913 0.203387 1.28241 4.27503 3.6123 4.12035 1.81287 1.4148 9.15029 1.46408 1.36636 6.36662 4.89406 3.53614 4.80127 4.50282 0.608326 0.775764 1.45644 3.46115 5.61602 1.75872 4.13241 9.76842 4.64197 1.48196 2.08698 5.79928 1.66794 3.2739 0.474061 4.1616 8.34376 2.49869 3.42688 7.00069 3.45645 0.839046 8.56604 0.116221 3.54366 6.87383 5.82034 1.18364 1.88774 3.42567 1.27009 3.37154 2.77983 3.8371
5.12916 5.90814 2.53595 10.3273 3.11098 -0.0509339 2.86976 4.64676 4.7542 2.4065 1.7394 2.47569 7.34892 1.59198 4.96375 8.04345 4.5925 2.45918 1.15275 4.6631 2.12635 4.17365 1.62232 4.57321 9.32063 1.63603 2.69955 6.28021 4.44387 0.4476 1.32616 4.68063 3.6574 3.94805 1.53936 1.36155 9.14703 1.65074 1.18558 6.49998 4.50748 3.6415 4.80107 4.33928 0.864531 0.610783 1.73212 3.13372 5.66105 1.55506 4.06602 9.8694 4.68738 1.69709 1.84868 5.88921 1.42902 3.51184 0.329784 3.89125 8.64899 2.90177 3.39219 7.06275 3.28775 1.19067 8.52254 0.533071 3.42547 6.90083 5.74817 1.20858 1.83172 3.45229 1.50826 3.4068 2.87696 3.98888
4.93871 5.90019 2.5223 0.280982 3.1284 0.104197 2.89577 4.73298 0.124409 2.45648 1.56857 2.39276 7.46571 1.58537 4.84285 7.97592 4.68713 2.45417 1.24703 4.64833 2.2254 4.17691 1.64775 4.61389 9.22646 1.48855 2.71056 6.23244 4.60556 0.393383 1.29313 4.81777 3.7592 4.00204 1.62427 1.39967 9.07964 1.29559 1.1483 6.55493 4.76948 3.67918 4.79698 4.51805 0.8802 0.68072 1.43562 3.18013 5.6436 1.47249 4.07841 9.79355 4.69866 1.65588 2.12126 5.80313 1.6321 3.44441 0.434914 3.86824 8.58129 2.82045 3.21103 7.01776 3.42518 1.02262 8.42441 0.434102 3.4166 6.83022 5.9041 1.16081 1.91486 3.43087 1.54277 3.29512 2.81281 4.02593
5.01825 0.13318 2.38989 10.2228 3.34145 4.77642 3.13492 4.49886 4.78529 2.22156 1.47371 2.39245 7.53275 1.45236 4.80279 8.02591 4.64856 2.48644 1.12052 4.59946 2.24361 4.11786 1.62108 4.583 9.20922 1.54336 2.72324 6.3329 4.72814 0.379669 1.4105 4.58885 3.75137 3.8641 1.77071 1.29445 9.22256 1.51819 1.23364 6.23892 4.8154 3.60964 4.82774 4.72506 0.923111 0.549286 1.86966 3.24889 5.62178 1.4813 4.28775 9.86196 4.78792 1.68361 1.94815 5.83733 1.66406 3.42168 0.41031 3.92061 8.4655 2.78692 3.50974 6.90331 3.46454 1.05152 8.6534 0.338333 3.52614 7.05187 5.86531 1.14407 1.83097 3.28521 1.59212 3.45187 2.92429 3.84929
5.29114 0.355133 2.50392 0.408727 2.96227 0.1135 3.07223 4.83051 4.90902 2.31525 1.76955 2.35606 7.4897 1.67945 -0.0048798 8.07239 4.57207 2.47369 1.28331 4.64708 2.27257 4.01012 1.67793 4.73314 9.16847 1.42585 2.69541 6.23885 4.41912 0.307452 1.39292 4.59102 3.75962 4.00837 1.7521 1.36469 9.10185 1.34053 1.03052 6.23951 4.44342 3.76887 4.77471 4.67027 0.711715 0.483438 1.45322 3.08373 5.53081 1.52513 4.19079 9.87824 4.40629 1.88274 1.88142 5.92092 1.53446 3.19537 0.50852 4.03277 8.27571 2.56544 3.38324 6.90772 3.2451 1.07978 8.5203 0.162107 3.35839 7.03234 5.64965 0.951489 1.93103 3.47639 1.53585 3.28937 2.95383 4.05236
5.35746 0.371927 2.35525 0.318303 2.88104 0.140534 2.96679 4.7591 0.064674 2.40352 1.768 2.50485 7.26709 1.67969 0.042872 8.11739 4.35805 2.3754 1.2788 4.48747 2.19813 4.04222 1.74082 4.72548 9.24996 1.52513 2.6705 6.1186 4.55357 0.395636 1.4037 4.74359 3.67278 4.06043 1.89439 1.26554 9.01737 1.67422 1.15665 6.47387 4.35507 3.82611 4.70558 4.52282 0.775376 0.602821 1.52556 3.15827 5.56429 1.91638 4.17609 9.89436 4.52744 1.79665 2.023 5.63897 1.46633 3.49827 0.500441 3.87726 8.45178 2.70346 3.5445 6.86679 3.3622 1.14408 8.4464 0.269486 3.25327 6.96158 5.79506 0.906673 1.90468 3.25726 1.40885 3.36065 2.93878 4.01935
5.01614 5.75448 2.67696 0.670458 2.5026 0.302894 2.84002 4.76409 0.210816 2.29267 1.82592 2.5844 7.65181 1.85236 4.69904 8.18897 4.71668 2.40612 0.890569 4.53834 2.26595 4.02641 1.59221 4.56229 9.21146 1.65364 2.62549 6.43236 4.45688 0.287799 1.04414 4.28133 3.80691 3.95 1.35263 1.37468 9.15178 1.53089 1.10766 6.54142 4.61586 3.52052 4.91669 4.54824 0.550673 0.335931 1.62264 3.17016 5.52417 1.39089 4.24712 9.82837 4.34245 1.66522 1.50941 5.86954 1.54918 3.05335 0.592868 3.96366 8.59321 2.9076 3.32086 7.27136 3.33015 0.933922 8.44683 0.537735 3.38426 7.01887 5.62244 1.11395 2.0007 3.53129 1.57908 3.32785 2.84365 3.9546
4.96477 5.89525 2.56277 10.2229 3.31093 0.0333122 2.93109 4.60897 4.82384 2.31454 1.67844 2.37043 7.50114 1.46367 0.0979509 8.10002 4.55371 2.55178 1.1664 4.70463 2.20579 4.15094 1.79162 4.52776 9.27357 1.50605 2.74824 6.26887 4.54893 0.457717 1.38546 4.64466 3.71721 4.02402 1.94534 1.26383 9.06512 1.53557 1.27275 6.494 4.6238 3.6589 4.73584 4.70677 0.697083 0.399993 1.51527 3.21186 5.63117 1.59014 4.17946 9.95977 4.61592 1.80132 1.96195 5.84114 1.51894 3.39736 0.574748 3.92056 8.44839 2.68143 3.51973 6.91542 3.27888 1.10853 8.6016 0.283491 3.49167 7.15959 5.68059 1.05643 1.84543 3.50283 1.49439 3.56482 2.99833 3.70349