-30088.3765546509
-30088.8412966853
-30088.3158220026
-30088.6037789776
-30088.5713475146
-30087.9437510095
-30087.9018015535
-30087.920240658
-30087.0956716586
-30087.7523960303
-30088.5975282539
-30087.8444697822
-30088.0716097536
-30088.339152623
-30088.0702923152
-30088.8637086499
-30087.9339296098
-30088.1759154244
-30088.1366677853
-30087.9780201925
-30088.2579136223
-30088.5181551368
-30087.9529983854
-30087.3713674625
-30088.138902519
-30087.5181474966
-30086.7067677121
-30087.7941830345
-30087.967658511
-30086.6660038555
-30087.0296512968
-30087.2361240968
-30087.2144281995
-30087.6621502023
-30086.9539612387
-30086.6370837476
-30086.2626543451
-30086.9529697925
-30086.8680882778
-30087.8461072263
-30087.6422268536
-30087.041799949
-30087.2981835716
-30086.2897831285
-30085.5753449378
-30088.3459230839