-0.211372338500565 -0.0687738886871789 0.283649096323833 0.116086276161233 -0.0525353237358358 0.513209923405226 -0.468231067954009 0.479605365349153 -0.41528411081485 -0.479608964891718 -0.208263619275342 -1.43235414581278 -0.287763887695968 0.119930073400262 0.545461310567051 -0.368798589690007 0.500124557740803 -0.613937722772253 -2.13339539934362 -1.06206971637398 1.60646042013814 0.45433451966155 -2.35063704910656 2.57365982133904 -0.279779588066483 0.448691465360399 -0.201227799111728 1.94753996097599 0.0844218715476825 2.34157057271594 0.50474457062295 0.577817084463261 -1.83550291309017 0.0970066436853909 0.282549950290599 -0.660660556596201 0.938322842303928 -0.12337046476183 0.544201213559126 -0.611384104432586 0.765218269252364 -0.710137554702723 -0.446934117258141 0.16448726815101 -0.713441420557005 -0.0962322278135544 -0.492817229223717 -0.0799782362512187 1.80097095860325 0.160972057726127 -0.681355098132802 -0.130402428272696 -0.985110982114412 0.739103845053641 1.5333776218905 0.842638773400983 0.0506231953032835 -0.449114411611784 0.116200690192763 -0.869671852284325 0.0561284385462323 -0.301541136863416 0.629190013060793 -0.608524267864711 0.824072589961016 -0.74555833909301 -0.0685075225373706 -0.49699989768422 -0.241344958108577 -0.590209538183926 -0.993157502408235 -0.388299882866319 0.0888161416889695 0.84169415058786 -0.248194373389362 -0.307069262912671 0.926852385700264 0.00981980922743982
0.362707906559883 0.064609475049684 -0.0479703324328957 -0.275407172290769 0.282826343737553 0.0241871262653614 0.236317425586038 -0.188769782294343 -0.278684298685997 -0.480517078058825 0.287797312019786 -0.247413529762945 -0.242146370549651 -0.949056421122506 -1.34611939036326 -0.993594589719696 0.637145259239575 -0.0379435495079697 -0.208239193807936 1.06466370101241 0.571975283990487 -1.3804978500708 0.128480529653181 -0.651213042914053 -0.583611062441958 4.46501297975721 3.7887597189899 -0.0999688101061835 2.12345860498282 -0.110443478970266 0.264506728963287 -0.197059528821485 0.0492761950534326 0.177981953227108 -0.633375766843494 1.73671089629255 0.416914960706968 -0.00761071853327694 0.620162360307831 0.8219056653369 -0.399954687471347 0.917443952765964 0.510937583605993 -0.515659669230876 -0.0328088020390303 -0.349500670668617 -0.26055263145566 -0.591055944907062 0.665104449002848 -0.505192456562107 -0.793299586352664 0.728400605236682 0.10305696051675 0.566915098474679 0.254244176000355 -1.64053369005821 -0.298550431212287 0.406229975713017 0.190702993761919 -0.294196013149398 1.19826869372721 0.610793779451929 -0.746226054238813 0.0195360030510449 0.877196438906226 0.293719330869722 0.687985712647673 -4.34517778001455 -1.32680373073923 -1.31944395174477 -0.806875518246657 -1.47608524554486 -0.968397534654676 -2.06237179655333 -0.6889578462504 0.150282187638696 1.6764460691188 0.398621571171389
0.655590858003615 0.364475024849104 -0.0940964135216072 0.0595192076424404 -0.0171489921100989 -0.132853973869628 0.436751525562188 1.08704899911382 0.310773706432399 -0.104569025504224 -0.855025313587435 -0.364160064874668 1.61074696111266 0.773307984056966 -1.02660342348127 -1.25980235965512 0.41590271791566 -1.12607729648477 -1.23468680851818 -1.8503494835096 0.509486967952307 1.63850251961083 2.2721312828746 0.0388598902009395 0.166324320410064 -2.850408851676 -1.51510608672049 -2.03486974869581 -1.67958178491326 2.05271293830058 -0.216436637779304 1.04160991643465 -0.524751085309274 -0.621365378855083 -0.933478886452203 1.96774162229137 0.984337594683309 1.32296816102606 -0.204508267939338 0.488686239910039 0.0201960048913518 -0.445263158177442 0.0462651776978295 -0.739771817309627 -1.22577974044114 0.268602237071681 -0.20607946826895 -1.06545148661378 -1.34645594759309 0.182329943535417 0.259399235173768 1.86750593181501 0.597534093083288 0.0794573310200299 0.986409902760003 -1.34388278887949 -0.788733052388624 0.620521029013413 -0.0843876758933152 -0.748657031021089 -2.52749028862937 0.25932261633917 2.5103898903439 -0.213119659305678 1.05240700146849 -0.0227928177417993 0.710496223408305 1.62532562272118 1.0394098245969 0.914144200674613 0.933751680356591 0.822271533127612 -1.18048695345622 0.487793039133559 0.475596760482685 -0.71512086427375 -1.87598928231011 -0.781266058447763
-0.197965842217309 0.373111098793033 0.0694045799665994 -0.0310396268683443 0.175291295159788 0.13722304721296 0.897976341023653 2.22908898132334 -0.100930916411765 -1.73593570909017 0.110885451375208 0.168887194716328 0.175210819672442 0.168930646337291 -1.07734694635029 -0.913832326022376 0.854852792654499 -0.232460258617482 3.15197210001517 -1.15970422312678 -0.434415165327335 0.973262573541425 0.935161415491146 -0.880593635757014 0.128163255687097 -2.67502088308732 0.896800833266005 0.43654275209342 0.195584230590211 -1.94749419536338 -0.299647520364056 0.275847344924429 -0.0349551578484893 1.07063868456009 1.40281090021073 -2.86236910317868 0.360091553335512 1.22496752937237 -0.050600826717344 -0.0196316480392 0.182286749024637 2.34610599634781 -1.61304501193021 -0.541078867494192 -0.0661192260455085 -0.691855735125389 -0.621766213630711 0.0935551965859446 -2.18074532490442 -0.258421959367377 1.03192071918029 -1.85875878627194 -0.158125076667414 -1.11786468301259 1.24303440483654 -0.472140942510124 0.658875183483973 0.60444572902841 -0.231135369843387 1.62731077044576 0.449598035866407 0.51038196850007 -0.520492569344724 0.232670060526983 0.903863392888673 -0.794120282057478 0.767475696660971 0.179458279899115 0.677742957168848 0.906976740097195 -1.2401984795157 0.328320190885744 -0.528831681027042 -0.471108388014342 -0.250543589133375 -1.32677004930523 -1.89382218750756 2.33416014301538
0.84868729046106 -0.265569622460688 0.552937303364325 -0.560550592999434 -0.445352889631383 0.201818895422934 0.181910596826597 -0.169657496825233 -0.483408024958867 0.12783775419515 0.300011074163118 0.651470667317632 0.0951341102210533 -0.164250983892638 0.340479959890602 0.0922030541324294 -0.0829645710292333 -0.750981049967148 -0.263866010386721 0.886557306456631 2.45733134738522 -0.184175480430517 0.583394575667693 -1.02918583816145 -0.240421932550844 0.46708589919798 -0.650685967038467 -2.10128490856219 1.3901880757659 1.55510626058398 0.123209256676956 0.35169690585362 -2.06022724051515 -0.374043123207178 0.00231039210634866 -0.502379928267944 -0.605874490316522 0.104997628179639 0.737841948274433 0.921990946356079 0.13335996671019 -1.98625355548268 1.77064069873039 -0.450427216207268 0.644743379373874 0.728383893074773 0.420050162281062 -0.114413260199069 -0.0620949374578645 -0.41616522741272 0.0061071381818495 -0.177549236788761 -0.340982610298783 -0.140206553778959 0.0696357220213076 -1.53927058728973 0.109312708384497 0.456568292933301 0.634647176699481 0.500338216303052 0.0696827731848355 -0.593365565682861 -0.251895988697074 0.418818604503474 -0.488001555492144 -0.14269718012374 -0.786621920674265 -0.308263539713694 0.357411693895887 -0.189543941055997 -0.542664465994065 0.050525750543846 -0.295076872637085 0.36475244673679 -0.480625321445957 -0.063599803360208 0.167884722111982 0.427534639714382
0.114742104123398 -0.0561348663008126 0.0538877232995343 0.265537740797969 -0.00805809025206691 -0.0465140603551794 0.829563435033705 2.04473429509513 0.678576508382823 -0.341062057345396 -0.275646798981523 0.140961429276872 -0.247343595793111 -0.736274090377202 -0.92496416851475 0.458606919575994 -1.258523750714 0.00839824702445721 -3.87191120912232 -2.10415785774941 -3.1946104814686 -0.536651173029088 -2.4002516011611 -1.39558430429117 -1.57660170034129 -0.366304620912845 1.97387961369521 -1.16595354323994 3.89576614903098 0.611486948505871 0.517835592711404 0.148810231839804 -0.112652569664429 1.03191429142571 0.565823151526575 -0.0295139350411605 0.519374911378298 -0.627371986955296 -0.779030485404729 -0.184664246888804 -1.32564544936386 -0.959182191467969 0.699808924422705 -0.947182087886886 -0.859915292161956 -2.41357865039775 0.162840734537717 -1.62177261709936 -0.722772463326158 0.127231488383134 0.0484585846708164 -1.25819979188315 -0.00966605733787867 1.20268044736095 1.55671062812723 3.67579861710561 3.01222551635398 0.181973331711301 0.78546980994329 -0.0194419007239891 1.81151016212332 0.153483980750243 -0.474690961307227 -0.082598960348705 -0.483366887329553 0.0664732667677923 1.9222367194053 1.94308578416201 1.43296195428589 0.925125633709808 -0.494418254334582 1.21091131565614 1.71880497180308 -1.33909025506441 -1.31285807440178 -0.152407203302948 -1.0709510734327 1.28983000084234
-0.653898044557343 -0.846808072131959 0.122347166232644 -0.00846740966374141 0.243613955475429 -0.0989126014735461 -2.07307143682772 0.404590384074671 0.122546169514451 0.845425333566642 -1.82065145757726 0.479330514563298 1.25513786671127 0.381204156030017 -0.0574751816859 0.77155963481112 -0.732301738046567 0.0509942052976594 -0.720105716505876 2.24849977171516 -0.925907505776957 -1.53171411900511 1.13666663649056 -1.11620966476325 -2.9746542623913 -2.11438055863395 2.73989466740535 -2.61881865391851 2.1103608980296 -0.81435948145961 -0.472256642092569 -0.779795902420153 -0.283129733753744 1.13156865577782 0.22110447315553 -0.976416029938528 0.725553109957602 1.28543907313343 -2.39136458767836 0.582882669292916 -1.07686409342622 0.870494090650239 2.27218141936033 -0.30354942450449 -0.0371416228465295 0.182990716706273 -0.332011778896311 -0.858906134692846 -0.770799617109543 0.223575816236569 1.02215181776912 2.60412506405809 -0.383139938599424 -0.17356839982208 -1.41711111149083 0.149479746756889 -0.0872451984695403 -0.361478662773944 -1.2204750431411 0.0768209232013676 0.0290981878749057 1.40712855151742 0.684714499786659 1.81331173317709 -1.723618331543 0.246448081024981 1.99660018347552 0.904896204494638 -0.0956131064923785 -0.225404640969761 0.470283064326229 -0.728289533637534 -0.881426672750623 -0.149985996707635 1.82904661927952 0.498772672397471 0.296739347081738 0.399749770655326
-0.270146440832056 0.293519299147183 0.0266330154382631 -9.8987420536861e-05 -0.613637160968078 -0.067818724356544 -0.573952461299392 0.545483422042808 -0.493937715402157 -0.741706571438302 -0.51288133659108 -1.82564710843708 0.194510795575298 0.0156649521325957 0.00617784348223297 0.839531339726676 1.65256258997981 -1.43694896189697 -0.248825835999332 1.32147563641251 -1.49442234381159 0.465440136915236 1.21595761722205 0.564600335495216 -1.04666855928936 -1.377315340223 0.57357373799952 -2.10415117288465 -1.20134835950173 2.24484649312189 -0.591912636037527 -1.36390678705828 1.02896343785297 0.999760349023318 -0.314388675608368 0.63580597229522 0.155493811052416 0.529003944849795 -0.25623575147952 -0.0164630221412876 -1.23481716338106 -0.463506925447661 0.242981978645092 0.224113947850033 -0.295575409282334 0.705014377192028 0.157910132554248 -0.377006318068704 -3.28658625019907 -0.24981648153525 -0.319571245571385 0.486301542960742 -1.04222518110308 0.372727490399679 -0.0709768087369446 0.465701103751197 -0.484056971061296 1.46709384532773 1.05988170871484 1.55650185465846 -0.461237928080809 -0.733177969550956 -0.899346481189994 2.13003368369811 -0.377131016507562 0.253990151139341 0.193232443744365 2.00656448862593 0.626879878064627 0.704822572995352 0.576415319744386 0.322138490750763 -0.723078167333998 0.294833389293582 0.583794124892405 1.55158745061653 -1.33844208029253 -0.382559126695547
-0.924887292569969 -0.0220263722856424 -0.0328648520589707 -0.165839924824892 0.222979834831883 0.0916502672385223 0.538048823985031 1.28797572220101 -1.27781781308264 1.48345428050592 -1.25996485329091 -0.379849185364486 -0.396693759017661 0.904652206930769 0.498902513039993 0.784163175992203 -0.621661826896327 0.380981755721538 -3.86899377987341 2.18678201489607 2.53474079579596 1.49882741258057 -1.50999627893932 3.85881504483021 -0.914150628429193 -1.83816400348642 1.35112378296931 3.97382325799323 1.8202894464393 -1.05358713720943 -0.852537515454669 -1.85205618090577 -0.677427997194413 -0.170332668166349 0.539476042612045 0.553008008664708 -0.445149515476462 1.65749242063273 -1.58768263501739 -0.248272277774875 1.71714095469732 -0.913492426360169 -1.11231393126721 0.787319203491138 0.710885745335872 -0.464768308006502 0.718671555903916 1.01531422955677 -0.393046393958607 -0.16552367929954 -1.42747830829833 0.776297661267362 -1.33575707864924 1.66332599357964 -0.117234787349644 2.80641190001447 0.355032910480803 0.709691211424666 -0.730672687925732 -2.853962114408 2.12666913984059 -0.987406718940318 -0.427993581391417 -1.23273508511741 -4.11764735204999 1.50315226297239 -1.13583874170062 -0.356732665902022 0.0695115378028159 -1.6155983731597 -0.0573605105441872 -0.884606611496597 3.1247557015712 -0.906939459120629 -3.22587739373891 -0.957337683013601 1.1127183655854 0.156194693411853
0.181124353886333 -0.42314319778511 0.191483580278153 0.118311564796939 -0.345374823558604 0.31916424015136 0.388054599751534 -1.07725155847232 0.466235378711913 -0.520012544632666 -0.310825128469041 -1.26219656968119 0.865721611429446 0.602918237429943 0.482483199629852 -0.575717522707147 0.0965973242737164 0.00482235859633601 -3.10149494329595 -0.336201903552127 -1.42395024236429 1.04099619442733 -0.0392008183038794 0.845624336848448 -0.826449830715 0.795227655616575 -0.55048395799611 1.63330709413865 -1.86599798059047 -1.6347260852398 0.690260366438555 0.751454132704259 0.120377445119052 -1.23261604310258 0.423469470607607 0.671984974615801 0.564408274188356 0.091273857930299 0.586980234282776 0.336728979427713 -0.236696405996093 -0.699903540970128 -4.7311906678012 1.90429685637164 2.01521264674847 1.46580983707277 -0.522266372498708 -0.684944613400634 0.121936818380237 -0.617916502857469 -0.587365385337228 2.3199131535432 -0.0794501319348999 0.131687464968392 0.235683648984418 -0.568110146606252 0.518920340574379 0.975550854172017 0.529486540663685 -0.0687101253617421 -0.0920086788339207 -0.296007611500314 0.271366685761583 1.58384526553294 0.487103212511999 -1.03636024071382 -1.15975281695141 -0.28309425254846 -0.232834353934056 1.61181885346647 0.146904274051648 1.03528731991927 -0.227069429406063 0.396594771597124 0.51084373838912 -1.66715924930116 0.776209986694887 0.00900091329390761
-0.00778555345786152 0.00828306166237795 0.165671003434521 -0.195168997644323 -0.127401952434604 -0.327537804598228 -1.44141470866919 -0.217590548281563 1.03858861467172 -0.664169082156321 0.6742945953916 -0.188732758427961 -0.133093600560382 -0.43685488385584 0.192399663860939 -0.990325176629965 0.35009073853909 0.570081924601309 -0.0347705527369427 2.0748529532872 0.55333865236032 -0.143898141789526 -1.36054738540442 1.70992747139711 2.2756799176233 -0.549439319321717 -0.30281948869435 0.648926819164927 -0.381098740854899 0.556456113331773 0.292673663754596 -0.142692809250626 -0.851937163176868 -0.155692043003673 0.0439373020990224 -0.285033120440067 -0.191199473525703 0.668470792631651 -0.0424419492734578 1.14026952148792 -0.385687643404878 -1.25010133533232 1.04539252145008 0.401183159926737 -0.386259713562526 -0.364459855348294 0.122450781636479 -0.257706421727496 0.367961438933467 0.740798458271195 -0.062153558579637 -0.475848985572416 -0.41364349073577 -0.888989568789823 -0.622859189019548 -0.691017298817933 0.855049224834473 -0.723216235502383 0.0370557480453365 0.741561047074604 -0.0987128268611899 0.257607691417142 -0.148191367628811 0.188375632383479 0.192927253956892 0.118768963812874 -0.0161778869481048 0.199520844605379 0.906283571043253 0.169926434076873 -0.127328418922205 -0.469637203545999 -0.38695468238775 -1.51014257463357 -0.538374325476979 0.516541300049112 0.571971427337739 -1.40821072827856
0.143299589283007 -0.21745427988446 0.0458928821525377 -0.408732172016043 0.00508512520357931 -0.296041035824132 -0.326785757312331 -0.256418556819784 -0.388711002049276 -0.780213706467874 0.599992323544984 -1.37648795965342 1.39667033770506 1.07035123537526 -0.45297877766547 0.471442117032152 -0.936943189060809 1.33237607974 1.57065679868505 -0.248228054823362 0.888678722578318 -0.0392023609649787 -1.53272224803349 0.0190433799400096 3.14983834260469 1.28938211490318 -1.82398386266188 1.07680033010078 -1.57255298628624 -0.29405126011625 0.321206209226434 -1.06626369768255 -0.588172454202333 0.0875727568429532 -0.960902515703844 -0.990864593794345 0.0401940349416298 0.0738173620410777 1.91529191624655 0.373898627284213 0.0330425151955706 -1.70697507516328 -1.0453907216788 0.4161364310722 -0.545139408617669 -0.221772445411516 0.622711607774384 -1.21987391953275 -0.0671780057799781 0.486189700031045 0.214776477326301 -1.87413423233824 0.194815985362772 -0.583946334120867 0.950011328342958 1.21262804034945 0.0593721406176428 -0.736075601315762 1.63520302462966 0.945290014048624 0.39073137386896 0.533974656021844 0.0349590145012375 -0.765054747175841 0.0351963272003428 2.27311112978283 -2.69895064205929 -2.94789063497996 1.95255823753193 0.166014759749476 1.37861323242786 -1.43151699505623 -0.957017837945685 -0.196074796819781 1.77658277217462 -0.217828375201034 0.348310507630526 0.240809654707129
-0.797118186793737 -0.943648365528812 -0.402092815754943 -0.328714083686426 0.551196667423975 0.145410463887183 -0.220161135893323 0.767312174584447 -0.606307978085419 0.218672982152888 0.864022884448961 0.0442005829266321 1.73870658553465 -0.201760017190978 0.0491309277999175 0.630742958567397 -0.0717070016572685 0.529605325568329 1.06449889338497 -1.19255596256641 -0.570821630598412 0.605055851493173 0.106452871816623 -4.6810577816173 0.87522800334355 1.3987848118518 -0.387639109695462 4.4576478014489 1.26013763133403 3.3400528270185 1.52207274424482 -2.61746059793078 2.21100745057873 -0.72995380785347 -0.619473819237188 3.09790928468087 -2.21774116627707 -2.33099691643132 1.29748622787804 0.781931716712101 0.977104056788805 -1.5191753695902 -4.41755738191111 -1.72203890368752 -1.38477230686671 -0.630706963141747 0.332354506770534 -0.131853301036564 -2.30013418136902 -0.72047415539842 0.324553012481313 -2.61455191042809 1.38952216039138 -1.42431379616335 0.884423806156333 0.483584145434368 -0.0926879639379684 0.730420719946184 0.615018099762113 0.987004598613773 1.40098798901175 0.574480051395344 -1.55446708466851 -1.88406048518153 1.23714889563262 -0.567510308548817 0.900314501029789 0.563429198610683 0.840760069292249 0.611061688262837 -1.34325466870191 -0.822692165387348 -0.88343598883243 0.541860996671525 0.57589621428448 0.602369050078601 0.100960741193018 0.702374626940984
0.0134679456170438 0.349862938916764 -0.0721885690304257 -0.0220438557781009 -0.127189322313087 -0.448524086631128 0.286107069675346 -0.0100589216978276 -0.494729614766452 -0.293052644164652 -0.268269022274237 -0.177108549934735 -0.932053724706655 0.285044690398311 -0.374817024858648 -0.615399137053634 -1.49672168018006 -0.867569462316195 1.90225154486419 0.112506531080364 -0.513843700006845 -0.0646873794351974 1.43384487065504 -1.12837226198012 1.04218944278762 0.235260702733034 -0.970668846013176 0.514158917091464 -1.84396569477062 1.92303993161766 0.389809633862143 -0.454048613137818 -0.00536049020980004 -0.0604054664439743 -0.641092414772255 0.787227415155731 0.31530115964859 -0.440049992102623 0.2266706515119 0.507826807499303 -0.100164470955608 -1.01330362792404 -1.70395968693456 -0.301814702098355 -0.00398700761107819 0.297733077939854 0.45464819408507 0.127506082058805 0.0362497076209649 0.320574746616464 0.489698996921714 0.29731013168847 0.597981721912261 0.0440977388533471 -1.14625838898549 -1.73864745019251 -0.0752965169251 -0.130574434985265 -0.263382386132098 0.461933154016216 -0.371183800859671 0.943086322668309 0.646105292014351 -0.874873962621266 1.30435055554945 -0.494573291775059 -0.307150252620383 0.0189117395262047 0.736099255452618 1.15674411358745 1.07085388578344 0.355488766835639 -1.65810974218262 1.5978428581274 -0.149458406611683 1.42060292488904 -1.03936508742502 0.991934686376876
0.343567596080803 0.0991905375815989 0.101241248402903 0.217614202418418 0.308941282156642 -0.666471760957173 -1.30342650155099 0.111645983297151 -0.231197076287358 -1.12172544952371 0.535443783608721 -0.539831883105611 -0.4713403013996 -0.957633873944662 -0.291255958204362 -0.807805999999703 0.131503374077212 0.853764702359143 2.20223407979697 0.465222364590055 0.724794120696759 2.38500162486421 -2.22491068373595 1.06890859013725 -1.5146664283072 0.230062706159024 -1.01838643913597 0.896858168836862 -0.116327445513087 -1.58614100235884 -0.161729247215688 0.26299363553508 1.13446962997501 -0.537805083531346 -0.0625831896957853 -0.643602324380776 -0.127644664447557 -0.227998111387827 0.551953085582987 -0.630233109074086 0.616559218200289 1.19370704485665 0.70778756762816 -0.280008159019359 -0.846518566065662 2.87298312576207 -0.375221202066659 0.20995694694198 -0.498097758166538 -0.33884551045592 -0.453468829674673 -0.73821707203174 -0.0244324093801462 -0.626422736158875 -1.45046935799139 -1.09982351856674 0.032732183204433 1.21693026504515 1.86465226589154 1.67798898732826 0.0843593937731618 0.193999660531072 -0.164546917713516 -0.668199027167996 1.48296525693745 -0.0864301591887563 -0.563977357521292 -0.986403217895239 0.0476432882798492 0.0642801169049886 -0.382090157721367 0.731225989040006 0.353384062875861 -0.447209739374545 -1.21471268971494 -0.749662588947633 1.22030766441183 0.040600526141289
-0.198437639403505 -0.058827067029232 -0.0502555277412895 0.690891829048525 0.101493216382451 0.027565296962592 -0.569338619061642 1.6448436280594 1.04126358901787 -0.0511893519267177 -0.951976678583435 -0.519203933106462 -0.849809062190417 -0.759720225094545 0.569809387807104 0.757645603026202 0.306255766292986 0.33190687794156 2.99340505094281 -0.259217458274237 -0.811042245875801 -1.33409100466202 0.149161958570438 -1.78274518904586 -0.149159130358423 0.755134922087131 -0.359615385276202 -1.76845886171565 -0.12685662173601 -0.652659801914991 -1.5902125992202 -0.391168461180422 1.26811576031911 -1.17987503122018 0.0818823942680914 0.463151342064277 -0.490403221713533 -0.513527454481494 0.503928760011617 0.506229381931003 -1.38931930045683 0.0273115292117612 2.90593333840186 0.80429798865995 0.452391023786646 1.03369297967317 -0.389857456356221 0.488695495876635 3.04185669363868 1.07711451874467 0.392788255334661 -1.76153925535485 0.360363061688984 -0.449118782484899 -0.595512178602504 0.705349905981121 -0.0296188359959113 -0.191402847680624 -0.14180397934726 0.665981194727603 0.118120789040995 -0.544867900264197 -1.02769074244607 0.297362325055662 0.863535917761956 -0.460174263252858 -0.839628784486113 0.43371531140863 -0.0688715905567997 -0.88295339301854 -0.254847356490172 -0.233370942886421 0.575751204141148 0.375549531770621 -1.52897152468078 -0.468878214285156 -1.87670816238238 1.74043025220291
-0.782818746844184 -0.213351315580753 0.192694312130901 0.366337531016296 -0.801359476376013 -0.17259678043972 -0.510329775132878 0.814492407424331 0.893707283541591 -1.10785898312269 -0.562663010264709 0.78329620045441 0.796043209117726 -0.0610945217349842 -0.352096712188515 -0.146132943502011 0.80869405857252 -0.239633889839297 -0.277805496079777 -2.05844932359824 -0.644830539725983 1.84927244895212 3.42448806829571 1.55366567222744 2.40494514755565 -0.985518244644621 1.49543638637418 1.24649819322478 0.911490309363492 1.02427066278898 0.304355979149228 0.692398751832334 -1.06894484267309 -0.360806833865209 -1.13749504550087 -0.433142212810249 0.268333814040407 -0.146918929332092 0.698556283610093 -0.295018251515312 0.921604509750711 -1.5085569761337 0.407606286523755 -0.753497901550616 -0.108592028540952 -0.415363814971646 0.508922096879789 -2.76641969656666 -1.832806855709 -0.450702581213489 0.324003568019788 -0.14252748740282 -0.251329574963456 -0.887797605980449 0.593858703014263 0.433094904536538 0.110283042215941 -0.594974561209406 -0.644888646627389 -0.338272411857539 -1.24986993616743 0.699468767650315 -0.479107085814087 -0.948383563773038 -1.78062223026307 0.0862208714996212 1.03651296416265 0.771494071714401 0.877584418172694 0.245447408191918 0.465309782052348 0.510792573462661 -0.430871672782299 -0.09803097065531 1.3222140568587 -0.423642505760909 -0.505535698656696 -0.872734034566388
0.7880028594683 0.333124294659072 -0.192323816356892 0.0621404459602931 -0.328825155285574 -0.0295671568490855 -0.473412609476293 -0.900250994814536 -0.859655096656544 -1.46449857513838 -0.0284430711280799 -0.418946131154348 0.506638701342678 -0.959907499294812 0.256064258987317 0.857939400403967 1.45865600333506 1.09449748112149 -1.63208144989527 -4.45346461876803 0.229406560971465 -1.36014475085751 -0.916536610929407 0.0738970661978736 1.48103718767354 -1.06867153454833 4.42696221530284 -1.50604938051683 0.683667547120617 -0.107976506762341 0.741769306323006 2.10387220833586 -0.569061454284138 -0.122741316143509 0.123949734004608 -0.701923398569446 -0.52932533257881 1.12605647055992 -2.54834526692029 -0.356228987053108 -1.31648384220544 1.64609241221926 -0.0542142532322143 0.286416887446117 -0.481567373157248 -1.15799598306951 0.895864695088928 -0.470495951557929 0.692726053095564 0.150996182617477 -0.703666348501444 -1.8706627306445 0.886318965316793 0.558885547452949 0.71045662844009 1.86343279229256 1.19733075577885 0.999020900136399 0.522502399646897 1.16184852205477 0.458358294028828 -0.180497005039294 -0.169637442230942 1.26661423684915 1.8301941020272 0.109963968478574 -0.470679785338926 -0.633698954343793 -1.70774254906017 -0.0585833265755464 -2.21247966348781 -1.78371732264858 1.64751500286298 -0.540069710025083 -0.146079464583902 0.84439920682544 1.27427637741907 0.135756233617732
-0.0920341327420587 0.0146295694247984 -0.0605977848610174 0.879127593492336 -0.506471836833773 -0.324965417215186 1.0158834715024 -0.299777103896395 0.383066147976842 0.116223058778703 -2.12353162427485 0.0392836077828739 0.317170093570362 0.0626695787173447 -0.937757714121227 0.275595376944881 0.196078396362346 -0.118771792024889 -1.14261745168102 -1.55936271966706 -0.625387867671444 0.690145695296842 -4.05368630888237 -0.255481390201974 1.56738275761202 -0.0392964632920345 0.883719067144147 -2.40398355547043 1.11099032804403 0.620585563669399 0.202861991436228 0.729656588481676 -0.344437142720428 -0.894865564916964 0.598385127789722 -0.418909878618515 0.0838690846537753 0.277329070910284 0.00412687555074586 0.693822628026966 0.403227185883277 -0.0744308269382231 -0.413413120011612 0.0875858694622971 0.286314043372832 0.00615444645556062 0.0110593374207079 -0.511656463678255 -0.558758792132625 0.297384436531418 -1.35777008120536 0.0405581029610589 -0.388243061515829 -0.243821443393281 0.457660239881405 0.9752693185214 -0.066406418120157 1.1235619875624 2.97730506838022 3.23990275423315 -1.24556308348844 0.491855122918135 0.80063416854917 -0.0414854993919068 -0.313332981196097 -1.64297520835799 -0.355305190164825 -0.883922184188885 -0.467447396115577 -0.205599443556892 -0.297788870849611 0.993368846978835 -0.280122830161072 1.15743779686176 1.06028151504974 0.163731621322548 1.07455061599767 -0.860466022174397
0.194498454286504 0.208678338000864 0.324083272176584 -0.447996753645359 -0.693038184857984 -0.212206918155274 0.851582351124034 -1.84614418935298 -0.766948363675202 -2.16857964236535 0.255585776936358 -1.18425233208937 -0.034377945487177 -0.500089076535519 -0.655752580308856 0.623034023944133 0.896486901732303 -0.543553810117797 -0.875567388785391 -1.55630747935995 0.0178524455713687 0.138178982874145 2.36975267700805 -1.54414205393106 4.26618093333266 1.92355183799244 -0.200350539166607 1.66050729464108 2.07643238114268 1.22700049959103 0.531962511728022 -1.24433692502469 1.22138212786747 -0.473323135132535 0.134892857622504 1.51948030226749 -0.683796102212223 -0.428572593524011 -0.868273944218198 -0.4077939769575 -0.593539629276896 -0.592420428649372 -1.33115172104754 0.319323905575135 -0.982506970178835 -0.371830432970451 0.455878980532108 -0.571061000178983 -0.266930763770615 -0.640893411490448 -0.316230098740537 -0.509638405850219 -0.0703697715943796 -0.0415672604301684 0.667675036614608 1.63512897689689 1.21253882311587 1.95623054227876 0.423004872506542 0.775648972275117 -0.844077047765875 0.78203173257337 2.07795858719023 0.478307987364662 -1.18990721345895 1.1304034324275 -1.14250997962443 -1.74205801677283 -1.99485132000931 -0.734366075707582 -1.50751825099352 0.177279785316754 -0.705752797638215 1.38525901644354 0.474316865990652 -0.370465435007775 -0.853233769830809 0.316172506059497
-0.538840466239143 0.49644453968848 -0.709797912150699 -0.445478873621158 -0.0853135296630639 -0.15553417735118 1.85133627239277 0.0106554173228809 -1.3283571904662 1.56150650437469 0.351948102502618 -0.204166311395665 -0.0643145696695391 1.11796469887386 -0.481235186800538 -0.23695788705242 0.900031165607889 0.16308267522012 -1.50990294794282 -1.44386599715594 -0.0506651042631472 0.607273169713199 -0.086860304525271 0.209145764313944 0.63713291795078 0.211493694507042 1.44900074462488 -1.4568220363982 -1.05694910996512 0.569410867023124 1.09925376240074 0.875688230571501 0.275381718382631 -0.161359522772229 -0.225581275665628 -1.08189445416077 -0.509760018966879 -0.659005281236678 -0.0721142641874773 0.729176820879801 -0.634574414517632 -1.02674946206533 0.190182345640914 0.446527368948299 0.386531736136365 -0.754950059865401 -0.755372749006603 -0.594179062302546 -0.470766945691035 -0.264795206588851 0.287832536114886 0.638751169443921 0.201299789963028 -0.319458117090772 -0.0453529507677911 0.931996132025615 0.487093956545404 -0.742077067212311 0.139099180219863 0.714746254736809 -0.340388942885745 -0.300208791894009 -0.0186692846234352 0.290023886206407 -0.959536746410619 -0.0712467744293179 0.0996381664105721 -0.222305691931499 -0.776262437172262 0.584395762721123 0.678703006592964 0.703564018648526 -0.432084718626696 -0.0652643346863265 1.08991552054646 -0.579614284643917 0.397782620643567 0.554623431945833