8.734075627 0.234573946 0.078146220 0.140179026 8.062037705 0.063476984 0.037148798 0.050495166 5.567999300
8.753596442 0.232617493 0.122211819 0.139009869 8.079512151 0.056048646 0.058096504 0.044586014 5.534727113
9.007211423 0.587717267 0.012420714 0.351213915 9.088418600 0.168559365 0.005904503 0.134086919 5.213664086
10.336933531 0.011267807 0.016701210 0.006733528 6.184282706 0.050530032 0.007939346 0.040196024 5.011238961
10.137717168 -0.025501684 0.088188869 -0.015239550 6.268182749 0.098574277 0.041922827 0.078414635 5.240697288
8.342927924 0.292658705 -0.470116228 0.174889893 9.361006850 -0.198392569 -0.223481734 -0.157818869 5.022262180
9.124269753 0.632085804 -0.107753068 0.377728106 9.247895765 0.279283621 -0.051223168 0.222166714 5.248010994
10.390906801 0.005945861 -0.003378634 0.003553186 6.212141393 0.014012949 -0.001606120 0.011147130 4.950145701
10.384775678 0.007725108 -0.002637090 0.004616446 6.209037814 0.019648058 -0.001253608 0.015629790 4.954485119
8.450065800 0.528419400 0.157181536 0.315778108 9.121721343 -0.160706184 0.074720250 -0.127839809 5.424367286
8.632126091 0.276266516 -0.192445314 0.165094086 9.237149718 -0.242272769 -0.091483786 -0.192725033 5.317692130
9.337942818 0.118537846 -0.018160357 0.070837022 7.345842016 -0.159214775 -0.008632989 -0.126653411 5.313786247
8.948946537 0.583238216 0.078460488 0.348537279 9.043866331 0.115317829 0.037298193 0.091733926 5.191188511
8.516597446 0.266353277 -0.463751568 0.159170034 9.272957367 -0.280424079 -0.220456130 -0.223073935 5.064892178
9.114793491 0.646097485 -0.097633426 0.386101345 9.269710128 0.294866717 -0.046412538 0.234562877 5.151426086
9.120820336 0.628228118 -0.105060820 0.375422792 9.238111385 0.274942967 -0.049943339 0.218713777 5.256511733
8.419418881 0.272726531 -0.508404773 0.162978626 9.329165582 -0.238459498 -0.241683170 -0.189691622 5.032771669
9.047288805 0.596892448 -0.032427868 0.356696911 9.126105823 0.206978134 -0.015415414 0.164648581 5.232655603
10.404702254 0.000137132 -0.000247589 0.000081949 6.217671567 0.000517612 -0.000117698 0.000411754 4.946772761
8.642218372 0.277344718 -0.170159635 0.165738408 9.242627542 -0.238877945 -0.080889721 -0.190024491 5.354931973
8.473581319 0.532966229 0.165997552 0.318495247 9.101533126 -0.158868001 0.078911168 -0.126377557 5.394469764
8.668176456 0.250128424 -0.065915916 0.149474226 8.015085775 0.080235046 -0.031334811 0.063826000 5.659342283
9.130921012 0.264387836 0.185912560 0.157995506 8.275878628 0.051163512 0.088378275 0.040699950 5.251023445
8.783392985 0.305228248 0.156942473 0.182401325 9.220989382 -0.200704819 0.074606605 -0.159658235 5.583185616
9.159919623 0.235637675 0.193823528 0.140814700 8.115197122 -0.012196632 0.092138955 -0.009702272 5.271035577
8.870476375 0.296752373 0.337796625 0.177336227 9.149784917 -0.175637346 0.160580237 -0.139717366 5.549463984
8.979440427 0.287015525 0.590219988 0.171517585 9.054396190 -0.123792923 0.280576118 -0.098475760 5.527382554
9.029366954 0.308227656 0.689490329 0.184193741 8.876564915 -0.102179838 0.327766806 -0.081282815 5.178594028
9.031017640 0.291526252 0.718562902 0.174213150 9.019273710 -0.103332408 0.341587194 -0.082199670 5.504297696
8.440901030 0.267174301 -0.511611450 0.159660669 9.320002317 -0.252225365 -0.243207546 -0.200642202 5.035765527
8.239024783 0.332490003 -0.286673077 0.198692675 9.396045785 -0.187916400 -0.136277356 -0.149485205 5.064318741
8.680024513 0.281090481 -0.097655211 0.167976838 9.263012631 -0.225585622 -0.046422894 -0.179450611 5.487222674
8.584003301 0.280623720 -0.228900528 0.167697907 7.950013123 0.112473719 -0.108813702 0.089471472 5.635026960
8.593551793 0.567440179 0.201653557 0.339096532 9.027757301 -0.128669955 0.095861159 -0.102355380 5.273154032
8.716973486 0.289051234 -0.015517135 0.172734104 9.274213402 -0.220620498 -0.007376466 -0.175500915 5.583334774
8.900479411 0.235853585 0.308124556 0.140943725 8.326777242 -0.010352740 0.146474863 -0.008235478 5.376725728
8.499407824 0.539479939 0.175476434 0.322387774 9.081180205 -0.154039648 0.083417196 -0.122536662 5.362220655
10.017874922 -0.024101288 0.105185718 -0.014402687 6.362279151 0.082963850 0.050002713 0.065996731 5.305718293
8.630517986 0.578067703 0.208748647 0.345447433 9.014080579 -0.117601705 0.099233991 -0.093550722 5.249532912
8.658987422 0.253813903 -0.085016005 0.151676631 8.007883076 0.082934737 -0.040414525 0.065973571 5.665066377
10.387032916 0.007138299 -0.003024120 0.004265776 6.210235069 0.017670704 -0.001437593 0.014056830 4.952750310
8.241712759 0.343456157 -0.192479917 0.205245938 9.436408639 -0.205528139 -0.091500235 -0.163495128 5.193922473
8.801419446 0.226699330 0.214993334 0.135473235 8.141100334 0.035333559 0.102202562 0.028107415 5.465251099
8.682190105 0.245088066 -0.036290521 0.146462158 8.025478425 0.076714914 -0.017251625 0.061025778 5.646058952
8.242496127 0.329646185 -0.307193057 0.196993238 9.389701128 -0.184283724 -0.146032051 -0.146595454 5.048265337
8.673376053 0.280517247 -0.109934183 0.167634280 9.259753148 -0.227651656 -0.052260017 -0.181094116 5.465078093
8.974725341 0.583769688 0.049720313 0.348854882 9.062036311 0.138401557 0.023635818 0.110096750 5.200157503
8.322089630 0.297759926 -0.452862439 0.177938331 9.367562256 -0.190578476 -0.215279706 -0.151602853 5.018134065
9.028763211 0.310771965 0.707465827 0.185714194 8.882799663 -0.104012163 0.336311917 -0.082740407 5.180729190
9.192705483 0.194931974 0.173805812 0.116489383 7.889020777 -0.081413868 0.082623024 -0.064763739 5.303790860
10.119956637 -0.025631473 0.092802676 -0.015317110 6.281213787 0.097458783 0.044116118 0.077527273 5.254261610
8.703066491 0.284251183 -0.051019436 0.169865642 9.272417837 -0.221513784 -0.024253390 -0.176211513 5.555120827
8.764305300 0.231425111 0.145474498 0.138297314 8.090913924 0.051523451 0.069155011 0.040986277 5.517266813
9.188774423 0.200042601 0.180067481 0.119543442 7.920646053 -0.073553931 0.085599668 -0.058511255 5.299319517
8.761844289 0.305099125 0.111316835 0.182324162 9.239753346 -0.206777914 0.052917295 -0.164489309 5.592735430
8.848789884 0.298813845 0.291986178 0.178568142 9.168064795 -0.183249346 0.138803073 -0.145772620 5.554235596
8.427949181 0.525481078 0.149839649 0.314022196 9.140767202 -0.159501704 0.071230097 -0.126881660 5.449299354
9.042095976 0.595453931 -0.026761642 0.355837268 9.120816293 0.201976944 -0.012721829 0.160670195 5.230117133
8.705892638 0.238705030 0.014951317 0.142647720 8.041788663 0.071413016 0.007107490 0.056808183 5.614314586
8.383284717 0.521113067 0.139961291 0.311411917 9.173148361 -0.150570003 0.066534168 -0.119776601 5.477867599
8.615962597 0.275122939 -0.231495281 0.164410696 9.229627710 -0.247391929 -0.110047184 -0.196797262 5.259302074
8.292647031 0.500336358 0.127913555 0.298995965 9.220207796 -0.133414718 0.060806969 -0.106129781 5.476306461
8.733216999 0.297689925 0.035169897 0.177896499 9.266585162 -0.216759618 0.016718907 -0.172429632 5.598690289
8.639385410 0.580492123 0.210130211 0.346896242 9.011297573 -0.114730552 0.099890753 -0.091266755 5.244586166
8.249006334 0.368119356 -0.080875264 0.219984417 9.449575997 -0.214152168 -0.038446119 -0.170355438 5.390606973
8.479763460 0.261673636 -0.503469913 0.156373528 9.301845840 -0.274419634 -0.239337259 -0.218297472 5.045526168
8.248996993 0.379511654 -0.030951246 0.226792340 9.436985196 -0.217212079 -0.014713464 -0.172789559 5.463054137
10.146437910 -0.025321019 0.085756170 -0.015131586 6.261784514 0.098894604 0.040766382 0.078669451 5.233520457
9.178729797 0.213476159 0.189934450 0.127571201 7.996456960 -0.052426693 0.090290183 -0.041704795 5.288378607
9.111683197 0.287193594 0.168024759 0.171623997 8.381195677 0.091556753 0.079874853 0.072832280 5.240612532
8.838140080 0.224778354 0.262742830 0.134325279 8.205025147 0.019313776 0.124901502 0.015363873 5.425907926
9.225482189 0.169769802 0.107447785 0.101452723 7.682770603 -0.122938842 0.051078044 -0.097796350 5.328691347
8.570906303 0.276225324 -0.345421609 0.165069470 9.224357118 -0.260614278 -0.164204968 -0.207315479 5.134061861
8.957472130 0.288616400 0.536687908 0.172474252 9.071590025 -0.133656842 0.255128279 -0.106322388 5.535531941
8.952495792 0.481500029 0.038666598 0.287739565 8.901116260 0.204800064 0.018381153 0.162915953 5.183561799
9.047207378 0.312053281 0.837769450 0.186479896 8.962499124 -0.106878932 0.398255066 -0.085020887 5.263983217
9.000839987 0.586679482 0.019729925 0.350593746 9.082969976 0.162550922 0.009379123 0.129307276 5.210846592
8.640901881 0.261515951 -0.121564239 0.156279297 7.993089239 0.089300397 -0.057788660 0.071037376 5.668513824
8.479774402 0.534404488 0.168333720 0.319354736 9.096437781 -0.157927199 0.080021725 -0.125629161 5.386552723
8.859229503 0.226394031 0.281769461 0.135290791 8.245287749 0.009844801 0.133946297 0.007831419 5.406898439
8.619140465 0.275268726 -0.223554823 0.164497816 9.230959648 -0.246405011 -0.106272484 -0.196012181 5.270451940
10.257215345 -0.008148730 0.051006430 -0.004869599 6.187193985 0.086062213 0.024247207 0.068461441 5.117851575
10.341460444 0.011498791 0.014486063 0.006871562 6.186082686 0.048041384 0.006886319 0.038216335 5.005088340
9.196782226 0.190013057 0.166113272 0.113549888 7.856447397 -0.089033344 0.078966179 -0.070824939 5.308354989
9.058898139 0.297264912 0.805013671 0.177642516 9.008383380 -0.096403532 0.382683771 -0.076687834 5.448192137
8.719079803 0.290067090 -0.009396494 0.173341169 9.273916202 -0.220372487 -0.004466863 -0.175303625 5.586461115
8.375741147 0.284652172 -0.490974103 0.170105269 9.348217503 -0.213283855 -0.233397057 -0.169664706 5.027905098
9.232565452 0.166797310 0.095411720 0.099676391 7.652561571 -0.127820652 0.045356393 -0.101679770 5.330707878
9.257498022 0.156685069 0.060413456 0.093633418 7.563891874 -0.140484607 0.028719077 -0.111753792 5.332647786
8.945521489 0.496443471 0.036223327 0.296669615 8.933961513 0.206570483 0.017219682 0.164324299 5.180229486
9.090478418 0.645937837 -0.083722792 0.386005941 9.268899619 0.293073147 -0.039799764 0.233136114 5.104589191
8.220289602 0.435154992 0.129496354 0.260044237 9.310632713 -0.184901738 0.061559393 -0.147087077 5.501697285
8.220619397 0.437160545 0.132023847 0.261242736 9.306518629 -0.181496176 0.062760902 -0.144377994 5.498906876
8.594368645 0.275176950 -0.286765354 0.164442972 9.222981807 -0.253803194 -0.136321222 -0.201897346 5.191085245
8.248875443 0.366337311 -0.088393283 0.218919485 9.450541552 -0.213770553 -0.042020001 -0.170051867 5.378547123
8.411557466 0.523854228 0.145474241 0.313050007 9.153857895 -0.156923526 0.069154889 -0.124830751 5.463480953
9.619025116 0.034350785 -0.073841975 0.020527683 6.899907212 -0.079991670 -0.035102665 -0.063632398 5.291509422
8.950766812 0.600785930 0.015987882 0.359023616 9.179426560 0.239288516 0.007600247 0.190351096 5.055790769
8.978575973 0.623702876 -0.019419155 0.372718553 9.222300135 0.258786025 -0.009231391 0.205861126 5.030915325
9.184879932 0.205275452 0.184895895 0.122670541 7.951161142 -0.065461237 0.087894977 -0.052073616 5.294958168
8.551002807 0.275345314 -0.391880392 0.164543585 9.236302153 -0.267833895 -0.186290335 -0.213058597 5.100279665
10.297184147 0.004333157 0.035613351 0.002589451 6.177115928 0.070561664 0.016929714 0.056130943 5.065291488
8.259554684 0.319751094 -0.359854786 0.191080031 9.379967143 -0.178910200 -0.171066146 -0.142320882 5.022879724
9.128227865 0.267291701 0.184172003 0.159730827 8.290844375 0.057096433 0.087550857 0.045419516 5.249405790
8.943612133 0.592792397 0.022104526 0.354246762 9.163656345 0.233456071 0.010507950 0.185711457 5.071751622
9.141520976 0.253747098 0.190677042 0.151636708 8.217518991 0.027763364 0.090643193 0.022085418 5.257707487
9.126985659 0.639357083 -0.108769073 0.382073349 9.261721648 0.287165238 -0.051706152 0.228436445 5.219327194
8.928972315 0.542253865 0.027172872 0.324045444 9.042651644 0.212365119 0.012917318 0.168933862 5.159756660
9.922233013 -0.017162376 0.080203181 -0.010256063 6.466284382 0.060097633 0.038126627 0.047806934 5.325118332
8.930009317 0.570612066 0.026793022 0.340992020 9.114591881 0.220966045 0.012736746 0.175775794 5.119645265
9.124995723 0.643079567 -0.106083076 0.384297868 9.266754735 0.291404869 -0.050429294 0.231809019 5.193960294
8.958520843 0.608395038 0.007200895 0.363570743 9.193835974 0.245424006 0.003423129 0.195231804 5.043432423
9.277114181 0.148007566 0.038465954 0.088447830 7.505032844 -0.147442208 0.018285772 -0.117288478 5.330464624
9.064589332 0.298017656 0.829275429 0.178092348 9.007731631 -0.097189134 0.394217216 -0.077312771 5.413509064
8.636377401 0.263452671 -0.130469435 0.157436661 7.989343957 0.091085382 -0.062021972 0.072457310 5.667811405
9.055971860 0.306044455 0.850391994 0.182889082 8.981618741 -0.103914794 0.404255514 -0.082662951 5.295946253
9.838994813 -0.001605629 0.031071515 -0.000959508 6.577477518 0.027081653 0.014770637 0.021543125 5.334323319
10.405644669 0.000014765 -0.000078535 0.000008823 6.218258540 0.000155682 -0.000037334 0.000123843 4.946856259
9.014218108 0.637152089 -0.051337892 0.380755667 9.249797739 0.273203075 -0.024404776 0.217329714 5.043096885
9.022309809 0.285033331 0.462276297 0.170333046 8.740404179 -0.074595856 0.219754823 -0.059340094 5.257032282
8.686911383 0.243587072 -0.026199061 0.145565179 8.028823775 0.075640707 -0.012454391 0.060171260 5.640533850
8.927522941 0.558707627 0.026401237 0.333878047 9.084903170 0.216443483 0.012550501 0.172178151 5.140316881
9.219032238 0.172785977 0.119397279 0.103255158 7.713420783 -0.117692819 0.056758541 -0.093623202 5.326033284
9.999582825 -0.023534797 0.103713607 -0.014064158 6.379591526 0.079411308 0.049302907 0.063170727 5.310942017
10.211216780 -0.019623077 0.065895253 -0.011726553 6.214802763 0.095822136 0.031324988 0.076225341 5.171357173
8.645423983 0.259569127 -0.112569166 0.155115894 7.996831205 0.087585213 -0.053512623 0.069672969 5.668620537
8.226436522 0.448544657 0.139755237 0.268045767 9.284324409 -0.162055002 0.066436215 -0.128912777 5.483025100
8.461348527 0.263264110 -0.510174957 0.157323979 9.311088210 -0.264849939 -0.242524672 -0.210684896 5.039986878
8.232124176 0.403838333 0.063501165 0.241329718 9.378211432 -0.219994331 0.030186898 -0.175002807 5.526453150
8.928699401 0.245648619 0.324182456 0.146797139 8.389714637 -0.026526328 0.154108395 -0.021101370 5.360625186
9.395615204 0.093824715 -0.063609512 0.056068704 7.217800521 -0.158696024 -0.030238403 -0.126240751 5.298421636
8.924966841 0.291912022 0.458678548 0.174443682 9.100199965 -0.150234445 0.218044541 -0.119509669 5.544324695
8.249241966 0.373264368 -0.058745835 0.223059025 9.445370679 -0.215359539 -0.027926330 -0.171315886 5.424576478
9.194733744 0.192424365 0.170108857 0.114990861 7.872715246 -0.085284918 0.080865582 -0.067843112 5.306082570
8.682642422 0.591048612 0.214290033 0.353204694 9.000286681 -0.098340371 0.101868230 -0.078228566 5.223531978
8.952853784 0.289047939 0.525528947 0.172732135 9.075432892 -0.135889906 0.249823583 -0.108098763 5.537049120
8.243130245 0.345709291 -0.179620247 0.206592388 9.441039253 -0.207183721 -0.085387064 -0.164812123 5.217196600
10.403480232 0.000429570 -0.000552199 0.000256707 6.216989693 0.001183347 -0.000262502 0.000941338 4.946663976
9.755158736 0.012135857 -0.017061383 0.007252266 6.699229331 -0.014212340 -0.008110564 -0.011305743 5.328081161
8.579153290 0.281451488 -0.237585738 0.168192573 7.946899543 0.114049277 -0.112942437 0.090724809 5.631030253
8.673949527 0.589140889 0.213851310 0.352064657 9.002164520 -0.102029929 0.101659672 -0.081163564 5.227408554
9.010394390 0.273950578 0.412270570 0.163710104 8.679409937 -0.068276300 0.195983326 -0.054312964 5.298597143
8.221207133 0.424649195 0.112394876 0.253766079 9.332363521 -0.200916411 0.053429769 -0.159826555 5.514608312
8.312769327 0.507767299 0.130567837 0.303436620 9.209683847 -0.135509362 0.062068750 -0.107796044 5.479679363
9.015730118 0.288499828 0.680647947 0.172404590 9.028905540 -0.109503874 0.323563354 -0.087108996 5.511149341
8.244517644 0.348276817 -0.166452923 0.208126716 9.445009046 -0.208629621 -0.079127640 -0.165962319 5.241417121
8.239940550 0.331638982 -0.293330525 0.198184113 9.393811718 -0.186662933 -0.139442143 -0.148488087 5.058663229
8.850496045 0.595277593 0.166745195 0.355731890 9.000410866 0.024881690 0.079266580 0.019793081 5.177743870
9.052334776 0.598355933 -0.037885894 0.357571475 9.131399459 0.211826258 -0.018010025 0.168505205 5.235129170
8.998439632 0.411062953 0.048376217 0.245647078 8.745696564 0.190429007 0.022996868 0.151483952 5.206286574
8.729152803 0.295539469 0.022121025 0.176611408 9.269617051 -0.218122280 0.010515793 -0.173513613 5.596786862
9.119383493 0.626944297 -0.103861109 0.374655594 9.234441364 0.273408216 -0.049373026 0.217492901 5.258423492
8.307455047 0.506037945 0.129844901 0.302403176 9.212367766 -0.134801210 0.061725084 -0.107232718 5.478886449
9.466678226 0.072226682 -0.093099148 0.043161937 7.101781939 -0.142737595 -0.044257053 -0.113546016 5.287398750
8.895529090 0.234320208 0.305341593 0.140027395 8.316646367 -0.007734599 0.145151910 -0.006152779 5.379888961
8.838274214 0.299931879 0.269790730 0.179236268 9.176672569 -0.186466143 0.128251902 -0.148331542 5.557837751
9.031959781 0.296298272 0.570844987 0.177064861 8.824312106 -0.087675919 0.271365717 -0.069745124 5.195947863
8.275558723 0.491727266 0.126504245 0.293851258 9.230364514 -0.133242239 0.060137018 -0.105992576 5.472804618
9.031975099 0.298784556 0.607813996 0.178550639 8.843865455 -0.092465732 0.288939879 -0.073555362 5.184411514
8.980024594 0.260583674 0.359206650 0.155722177 8.546379785 -0.055425775 0.170758039 -0.044090528 5.340177232
8.243806747 0.390639264 0.017740820 0.233442087 9.412181418 -0.221083433 0.008433551 -0.175869174 5.511178878
9.005381654 0.287267797 0.654944003 0.171668340 9.035862378 -0.113539073 0.311344329 -0.090318948 5.515680380
8.237029686 0.460183991 0.137033023 0.275001315 9.266098359 -0.147249132 0.065142141 -0.117134889 5.472169310
8.988800995 0.263113913 0.368509546 0.157234223 8.581271103 -0.059457616 0.175180407 -0.047297809 5.334981691
9.362026619 0.107320829 -0.038761461 0.064133846 7.288696146 -0.160446625 -0.018426248 -0.127633333 5.306593332
8.239140167 0.339798147 -0.217816884 0.203059948 9.425673577 -0.201565464 -0.103544809 -0.160342868 5.150707601
9.032072563 0.298071209 0.598459719 0.178124351 8.839243068 -0.091255300 0.284493084 -0.072592478 5.186793664
8.223819434 0.444829017 0.138574792 0.265825337 9.291223090 -0.168176547 0.065875060 -0.133782392 5.487977696
8.752585621 0.600735566 0.208747419 0.358993520 8.991425639 -0.058916396 0.099233407 -0.046867275 5.197443668
8.701144664 0.239749475 0.004561729 0.143271870 8.038582448 0.072495668 0.002168534 0.057669420 5.621381860
8.738858463 0.234089611 0.089027079 0.139889592 8.065956638 0.061793956 0.042321291 0.049156338 5.559783570
10.155232727 -0.025039536 0.083213627 -0.014963374 6.255331556 0.099056861 0.039557719 0.078798525 5.225964350
9.780838218 0.008601420 -0.003538367 0.005140122 6.661195932 -0.001347575 -0.001682053 -0.001071979 5.332346378
9.947123871 -0.020171355 0.090934476 -0.012054199 6.436156787 0.067329872 0.043228021 0.053560092 5.321505006
8.966549144 0.287847525 0.558693946 0.172014780 9.064275309 -0.129427565 0.265589411 -0.102958049 5.532355886
9.425703145 0.083876267 -0.080129929 0.050123612 7.163966216 -0.153780842 -0.038091804 -0.122330784 5.292910728
8.221823396 0.422500141 0.108256290 0.252481826 9.336844010 -0.203723355 0.051462387 -0.162059444 5.516796916
8.238322812 0.333259872 -0.280168585 0.199152741 9.398386167 -0.189195657 -0.133185279 -0.150502838 5.070282772
9.038482884 0.293380885 0.738255325 0.175321460 9.015000761 -0.100473610 0.350948489 -0.079925532 5.498620382
9.086004072 0.645680135 -0.081659767 0.385851941 9.268482172 0.292293095 -0.038819052 0.232515592 5.098866579
8.710321444 0.286344198 -0.033507220 0.171116407 9.274037132 -0.221100742 -0.015928511 -0.175882944 5.571423637
8.317150959 0.299035800 -0.448137782 0.178700781 9.368885775 -0.188914098 -0.213033719 -0.150278861 5.017226010
8.778669244 0.601371968 0.201988349 0.359373827 8.991154696 -0.039420776 0.096020311 -0.031358746 5.190012746
8.553808109 0.275681413 -0.385508074 0.164744434 9.234027034 -0.266712065 -0.183261091 -0.212166195 5.104276322
8.985204570 0.627327571 -0.027359999 0.374884634 9.229289757 0.262140597 -0.013006273 0.208529647 5.031188655
9.019019241 0.289035347 0.688751225 0.172724610 9.026763130 -0.108188787 0.327415454 -0.086062861 5.509792125
8.948308400 0.598162304 0.018333968 0.357455764 9.174334242 0.237298589 0.008715519 0.188768133 5.060755367
8.991120482 0.286700348 0.619208282 0.171329238 9.045868131 -0.119046369 0.294356443 -0.094699935 5.522316662
8.294003167 0.305749831 -0.421375783 0.182713018 9.373848919 -0.182307598 -0.200311721 -0.145023471 5.014425629
9.050891738 0.642817371 -0.067806234 0.384141182 9.262800703 0.284110393 -0.032233422 0.226006352 5.066599679
9.458179062 0.074543035 -0.091279703 0.044546166 7.113917693 -0.145377633 -0.043392134 -0.115646134 5.288375307
8.742443800 0.301530974 0.062972860 0.180191871 9.258154799 -0.213349283 0.029935754 -0.169716753 5.599089284
8.456468926 0.264025169 -0.510999569 0.157778780 9.313284270 -0.261957558 -0.242916672 -0.208384042 5.038824964
8.255806559 0.477909249 0.128615781 0.285593751 9.245230601 -0.136297695 0.061140790 -0.108423154 5.469124137
8.981194896 0.584279876 0.042321753 0.349159765 9.067004710 0.144309192 0.020118724 0.114796202 5.202666395
8.735325445 0.298710639 0.041803923 0.178506467 9.264795596 -0.215996856 0.019872561 -0.171822864 5.599199429
8.795515119 0.600905506 0.196058819 0.359095074 8.991929780 -0.025536765 0.093201558 -0.020314185 5.185944323
9.038050090 0.370759956 0.074165473 0.221562413 8.643988694 0.171902904 0.035256448 0.136746663 5.219595137
8.933934210 0.579078305 0.026496320 0.346051359 9.134374478 0.225099434 0.012595701 0.179063854 5.102003183
8.873042905 0.591848083 0.150174452 0.353682450 9.006900218 0.046398539 0.071389254 0.036909472 5.177359370
9.070936790 0.604281371 -0.057559032 0.361112457 9.152585386 0.229472957 -0.027362153 0.182542938 5.244269043
8.743696773 0.233614306 0.100008175 0.139605555 8.070144447 0.059993271 0.047541436 0.047723915 5.551484023
8.914922592 0.240737626 0.316214140 0.143862379 8.357629113 -0.018383879 0.150320453 -0.014624151 5.368084853
9.056402889 0.352357204 0.093365075 0.210565114 8.593652492 0.159634438 0.044383469 0.126987248 5.224395106
8.248016259 0.359276726 -0.117845772 0.214700150 9.451977737 -0.212249624 -0.056020992 -0.168841987 5.329111459
10.203864894 -0.020805634 0.068220754 -0.012433237 6.219962608 0.096714424 0.032430475 0.076935145 5.179137666
8.627202489 0.267282691 -0.148264432 0.159725443 7.981811651 0.094868914 -0.070481277 0.075467064 5.664780879
8.237295177 0.335222464 -0.261393854 0.200325566 9.405918053 -0.193063112 -0.124260232 -0.153579351 5.090053625
8.249190531 0.371586947 -0.066038290 0.222056614 9.446984759 -0.214942294 -0.031392985 -0.170983973 5.413655947
8.910910306 0.293290564 0.425923038 0.175267485 9.113292615 -0.157545524 0.202473375 -0.125325543 5.546304154
8.332325315 0.295214728 -0.461821217 0.176417346 9.364526593 -0.194262822 -0.219538489 -0.154533706 5.020142012
8.663566667 0.251947047 -0.075535641 0.150561016 8.011508283 0.081544941 -0.035907793 0.064868006 5.662535614
8.283712908 0.496147407 0.126983727 0.296492690 9.225319849 -0.133095984 0.060364952 -0.105876232 5.474525078
9.298359046 0.137940899 0.017634932 0.082432091 7.446750062 -0.153035971 0.008383214 -0.121738248 5.325759993
8.996404138 0.632079790 -0.038556908 0.377724512 9.238866170 0.266913914 -0.018329009 0.212326763 5.034370640
9.248587224 0.160377559 0.071791429 0.095840013 7.593226359 -0.136574275 0.034127886 -0.108643170 5.332696282
9.036120964 0.292783072 0.731843537 0.174964213 9.016303209 -0.101344367 0.347900483 -0.080618208 5.500787298
9.216044006 0.174356807 0.125269327 0.104193870 7.728915189 -0.114927203 0.059549968 -0.091423188 5.324481697
9.065231838 0.343077047 0.104062054 0.205019385 8.567309152 0.152481233 0.049468550 0.121296961 5.226572541
8.933173256 0.247218035 0.326851599 0.147735006 8.400861434 -0.029230944 0.155377240 -0.023252860 5.358383973
8.606534435 0.274936304 -0.255489985 0.164299164 9.226150230 -0.250265260 -0.121453678 -0.199082962 5.227759681
8.963278800 0.460830608 0.040941157 0.275387727 8.856433048 0.201885906 0.019462423 0.160597776 5.188814519
9.096879320 0.614141998 -0.083443134 0.367005068 9.189283426 0.253038148 -0.039666821 0.201288760 5.257014408
9.355850593 0.110097600 -0.033626608 0.065793216 7.302935508 -0.160322751 -0.015985265 -0.127534793 5.308350678
9.343820218 0.115715485 -0.023309017 0.069150407 7.331527698 -0.159697683 -0.011080536 -0.127037559 5.311958236
10.327597946 0.010418331 0.021303444 0.006225889 6.181150271 0.055521304 0.010127135 0.044166520 5.023983691
8.958570161 0.255114107 0.342840175 0.152453619 8.472442195 -0.044266142 0.162977817 -0.035213176 5.347766500
8.948195969 0.289504136 0.514292862 0.173004754 9.079391327 -0.138194106 0.244482223 -0.109931726 5.538507054
8.451376359 0.264944989 -0.511514235 0.158328455 9.315516182 -0.258840234 -0.243161332 -0.205904249 5.037723715
9.126387350 0.635878363 -0.109021971 0.379994501 9.255799151 0.283373954 -0.051826373 0.225420524 5.235407026
8.983440263 0.286848221 0.600097889 0.171417606 9.051437080 -0.122132095 0.285271830 -0.097154592 5.525709856
9.855482972 -0.004963567 0.041499430 -0.002966178 6.554472280 0.034586362 0.019727812 0.027513029 5.333157293
9.125539879 0.270291371 0.182188083 0.161523399 8.305807342 0.062976378 0.086607750 0.050096940 5.247830711
9.076548315 0.645047789 -0.077618014 0.385474057 9.267396639 0.290401495 -0.036897702 0.231010847 5.088366586
9.963806899 -0.021619175 0.096446170 -0.012919401 6.417078064 0.071556788 0.045848146 0.056922552 5.318703341
8.881234628 0.295831700 0.360613822 0.176786042 9.140393073 -0.171336876 0.171426973 -0.136296395 5.548293088
8.546624983 0.553343918 0.190167023 0.330672749 9.050588774 -0.141849952 0.090400742 -0.112839906 5.311677705
8.929327945 0.584348217 0.099075222 0.349200605 9.031937914 0.097973044 0.047097933 0.077936362 5.185593961
9.656566251 0.026770616 -0.060451367 0.015997850 6.846621800 -0.062397978 -0.028737098 -0.049636831 5.300749028
9.897161401 -0.013133632 0.066905195 -0.007848526 6.498308768 0.051549499 0.031805090 0.041006998 5.328449684
8.371499884 0.519730058 0.138190806 0.310585445 9.180033873 -0.147678598 0.065692523 -0.117476523 5.480688402
9.096148842 0.307115632 0.146825189 0.183529206 8.455314394 0.117639278 0.069797097 0.093580610 5.234715685
8.802757428 0.303807492 0.196208767 0.181552295 9.205157584 -0.195810261 0.093272839 -0.155764675 5.573925832
8.513753838 0.543541377 0.180327333 0.324814849 9.070976926 -0.150599778 0.085723195 -0.119800286 5.345554219
8.758085092 0.304756164 0.102747002 0.182119212 9.243209729 -0.207955241 0.048843407 -0.165425858 5.594250333
9.034285860 0.318511906 0.802416823 0.190339505 8.928791832 -0.109546428 0.381449293 -0.087142847 5.222308901
8.475343061 0.261851501 -0.505667145 0.156479818 9.304248327 -0.272371796 -0.240381769 -0.216668441 5.044005359
10.350383270 0.011617492 0.010216686 0.006942496 6.190107599 0.042984689 0.004856762 0.034193796 4.993136288
9.287612475 0.143099469 0.027911901 0.085514800 7.475713260 -0.150428711 0.013268634 -0.119664205 5.328387409
8.832888234 0.224715779 0.257130818 0.134287885 8.195259324 0.021628505 0.122233689 0.017205212 5.431013898
8.239861320 0.395118122 0.035004448 0.236118607 9.400359764 -0.221754140 0.016640257 -0.176402713 5.520294894
9.066404086 0.298964572 0.845292115 0.178658215 9.005046597 -0.098762862 0.401831156 -0.078564652 5.377378835
8.858065507 0.594157809 0.161460988 0.355062718 9.002379996 0.032119026 0.076754597 0.025550293 5.177389602
9.126969836 0.638249852 -0.109024840 0.381411679 9.259966525 0.285945516 -0.051827737 0.227466170 5.225019529
9.033402275 0.375312999 0.070002358 0.224283266 8.656092445 0.174557853 0.033277406 0.138858643 5.218289347
8.875087200 0.229085034 0.293068219 0.136898907 8.276101804 0.002444190 0.139317449 0.001944323 5.394222558
8.705565756 0.284880221 -0.045206194 0.170241549 9.273103513 -0.221353922 -0.021489917 -0.176084345 5.561101995
8.246704843 0.386453988 0.000086800 0.230941008 9.422728084 -0.219760557 0.000041263 -0.174816843 5.497333461
9.028376993 0.315438235 0.743092027 0.188502710 8.896199672 -0.107141635 0.353247739 -0.085229864 5.189243456
9.637926700 0.030395782 -0.067344014 0.018164213 6.873420647 -0.071195783 -0.032013694 -0.056635377 5.295800679
10.172327352 -0.024143631 0.078077154 -0.014427991 6.242796755 0.098889698 0.037115966 0.078665549 5.210441507
8.975973005 0.440098153 0.042760023 0.262998221 8.811455871 0.198110840 0.020327067 0.157594757 5.195489868
10.312920495 0.008072008 0.028424385 0.004823751 6.177972828 0.063021769 0.013512256 0.050133049 5.043986767
9.025645542 0.288698839 0.483267611 0.172523516 8.760433535 -0.077137723 0.229733579 -0.061362118 5.242339360
8.692251722 0.282355428 -0.074117404 0.168732758 9.268483209 -0.222769968 -0.035233597 -0.177210792 5.525573303
8.264839566 0.484855518 0.126866349 0.289744771 9.237822902 -0.134287237 0.060309153 -0.106823859 5.470576641
8.901907004 0.587502020 0.125568197 0.351085286 9.018082494 0.073330870 0.059692044 0.058333813 5.179968451
8.262861876 0.318127634 -0.367384715 0.190109868 9.379133921 -0.178687516 -0.174645690 -0.142143740 5.020755835
9.073653576 0.333858916 0.115039189 0.199510723 8.540331500 0.144693505 0.054686811 0.115101918 5.228631085
9.570665352 0.045474889 -0.087604918 0.027175335 6.964756676 -0.101820072 -0.041645231 -0.080996626 5.284643926
9.029404055 0.317857819 0.768194081 0.189948629 8.907695473 -0.108754375 0.365180640 -0.086512779 5.199615806
8.927525846 0.552376156 0.026422372 0.330094424 9.068636354 0.214612932 0.012560548 0.170721970 5.149000762