4.3854034564 -0.6811048396 2.5640273589 3.6503850331 5.9819127194 5.2654626242 0.9519209613 2.0779692152 3.1679930401 5.2501731620 2.3702929363 0.3415666449 8.0445827953 6.3831900553 2.6983287588 2.2249125500 5.0924121511 2.4767001358 2.3568305734 0.9783859056 5.9148718315 6.5863239044 3.4619151155 3.0657395822 6.6125331636 7.2933218920 -0.0627678223 3.5728976200 5.3956114003 3.2549730793 1.8275547522 0.9691854901 1.8412360057 5.5459900358 2.8696496581 2.0691593276 6.9225084391 7.4695552314 4.0104260392 5.4602219409 6.1586687712 0.1318696046 -0.7817614220 2.4954809161 2.6513162600 3.4660736636 2.0155863713 5.5739749913 9.8862086681 6.4003776415 2.8485449451 2.5745072113 5.0858117378 0.9701898766 3.0318145619 -0.3673488694 5.7923988537 6.6806946084 5.0042232181 3.0993741973 7.8752171506 6.9582481398 0.7465292786 6.1903214325 3.2153753805 4.5150383584 5.8691485958 8.6330004203 0.4720397443 1.8089737437 3.7289662924 2.9320326377 1.1846885801 1.2576564237 4.9997575145
4.4055230829 -0.7118535975 2.5437477088 3.6801197994 5.9904020581 5.2594010407 0.9569602891 2.0764266657 3.1482459973 5.2530519169 2.3724493393 0.3478692773 8.0596990794 6.3619259223 2.7183357284 2.2553327813 5.1042254117 2.4709500269 2.4117851902 0.9578638488 5.8715654754 6.5881531160 3.4692255649 3.0748756443 6.6043020317 7.3251119606 -0.0132081614 3.6135129695 5.4006063681 3.2793328235 1.8650621889 0.9636535605 1.7675296891 5.5448373971 2.8753293799 2.0859418851 6.9393698647 7.4611492239 4.0399950496 5.4745760500 6.1928731343 0.1639951378 -0.7616785491 2.5202567250 2.6410923601 3.5361387362 2.0436587317 5.5774319558 9.9452333575 6.3910174566 2.8647024547 2.6026486100 5.1386088845 0.9804983824 3.0554021792 -0.3430944949 5.7462226553 6.7212278992 4.9809189408 3.1084348177 7.9056179874 6.9950514296 0.7783552299 6.2251103904 3.2010031427 4.5404870200 5.8690595919 8.6709367982 0.4510868343 1.7942358543 3.7267089649 2.9630234441 1.1887016416 1.2746667507 5.0006573068
3.9534196491 -0.2055594151 2.6794285790 2.9506553361 7.8185129505 5.3200495509 1.9003993521 3.3932256966 2.4119708709 6.5202938751 1.9216379107 0.1583326262 7.4885258494 6.4978129175 3.0364414247 1.6350928698 6.4652651704 2.5481280019 3.1015427440 1.9676866850 4.7650905177 7.7707459581 3.4169436575 2.8864645147 6.2737453321 7.8656622531 0.5257570575 2.4192052339 7.3260398687 3.5107376650 3.2234031197 2.0712469419 1.1547514618 7.1740089680 2.4249595397 1.9198351363 6.4717552025 7.7802881055 4.1828218501 4.6768590899 7.7839265068 0.9138133284 0.0217236058 3.3451620775 2.1016656503 4.5098949040 1.7703523687 4.2760853109 9.2743646157 6.8408987409 3.2701806207 1.5274579853 7.3787261853 1.2211629260 2.3305799794 0.5922875107 4.5306865173 6.9429835540 4.6884337140 3.1701834492 7.2666582801 6.8418774018 1.1677346984 8.0086026652 2.6606639312 4.2220948768 6.7778879767 9.2907652302 0.9197770449 2.3518549161 5.1811918639 2.0437092059 2.1736929717 3.0982153480 4.1008189639
5.1452240423 0.0491833399 2.5490004256 2.7177627906 4.7455197512 4.9270963808 2.3127324947 1.5517136759 2.7594140521 7.6648245650 1.4247754639 -0.0888558585 8.1102577326 4.7154769806 2.6910279506 1.1772156705 4.4127450064 2.1487208319 4.1805172414 1.8618683713 4.8924370023 9.2862665396 1.5605475839 2.7089216217 6.1010955776 4.6868583138 0.3025826875 1.3887627227 4.8187589552 3.6169644645 4.0836618817 1.8222980485 1.4058938500 9.0606544419 1.7240769369 1.1876918292 6.3124422954 4.4550407222 3.7986165234 4.6072871268 4.9466859750 0.7822641874 0.4082606484 1.2398734768 3.0164671910 5.5588570428 1.7207013138 4.2282769212 10.0111577873 4.2336438654 1.9068604742 1.7732845742 5.5547664089 1.2559548841 3.1865842485 0.6293761417 4.2074309131 8.4556761075 2.6659530766 3.5175428215 6.7639247292 3.5740855617 1.1721249252 8.5125134679 0.2466248363 3.4297520724 6.8601694917 6.0113984904 0.7187544664 2.0760729009 3.2193657816 1.8349755033 3.3554351524 3.0110912586 4.2405054428
5.0548403028 0.1423487094 2.7816263300 2.7370933537 5.0137998146 5.0910248929 2.3740004501 1.6024604726 3.1091166375 7.5296955563 1.3016711478 -0.1226728360 7.8711630059 4.5748521448 2.9225716912 0.9824313376 4.3774887226 2.3175750094 4.1695745921 2.0096582707 5.2755037076 9.1872420599 1.4475954300 2.7635953262 5.9490312959 4.8308482257 0.3960454145 1.1841733203 5.0228887962 3.7223378357 4.2653377051 1.6774137532 1.5159633572 8.8038164719 1.5925793950 1.2640496010 6.1376524684 4.7109728805 4.1235190347 4.3980633987 5.0747881400 0.7037219447 0.4950316504 1.3510194713 3.1619597788 5.5937733412 1.9545565377 4.5525953787 9.6514965045 4.0066518333 2.1151126820 1.4834601793 5.5315220512 1.3169127121 3.3348404693 0.7509601285 4.6651540963 8.5392015499 2.6072964343 3.7137102239 6.6078471478 3.9294997771 1.4733465075 8.2310239746 0.1659651305 3.2748799360 6.7894781426 6.1548445170 0.8136209374 1.8697786648 3.1328113123 1.8652970399 3.4208092862 3.2152579979 4.6610971733
4.5563536286 0.6175429966 2.1257876264 2.7981736456 7.5779710173 4.7972214400 1.0906225417 2.7578187857 2.3266747843 5.6075436513 1.7964236770 -0.2664254665 7.0573692590 6.5890625144 1.9797310938 1.7474057676 6.1573720934 2.1669426982 2.3196387497 1.2031362058 4.7584996682 6.2170250667 3.3525759508 2.0384378945 6.2939637704 8.3741386060 -0.3610718113 2.9272033685 6.6960985190 3.0448549789 2.5612821990 1.7689684568 1.2539072578 4.8823656857 2.7806822606 1.3747778471 6.0849106976 8.1679794577 3.0617774644 4.7249458353 8.2031949561 0.0834819597 -0.8432111941 2.3455603817 1.9039355004 3.7275176335 0.9624106531 4.3147395069 8.8382161959 7.0786871529 2.4511892527 1.8524425831 6.4728779759 0.7052022209 1.5374662879 -0.2125730759 4.5770859833 6.2995720895 4.8882742441 1.6267263801 7.0080984302 7.0820706543 0.0372564545 6.2521642078 2.9701273031 3.6035803772 6.6234320453 9.6633552363 0.3259452350 1.6815229970 4.6093836991 2.3444234575 1.6267097551 2.4590183860 4.0876221792
4.0377937487 0.0224521415 2.6963664843 2.8799629304 8.2258318558 5.4114252855 1.8547361194 3.5487278901 2.3192433657 6.7187892676 1.6728193682 0.1236922507 7.5285044722 6.8167603416 2.9857363989 1.6114815445 6.8693284383 2.6446692232 3.2740385805 2.0712061615 5.0216749344 7.8933831859 3.4457635031 2.6859889240 6.2898410683 7.8608486853 0.4427352485 2.6285367477 7.5802851087 3.5829398985 3.0273795573 2.3872971525 1.2897684611 7.0026578869 2.5962805960 1.8175549946 6.5041498897 8.0574156576 4.1302174823 4.8228418485 7.4358757402 0.8289129686 0.0578403697 3.1828798486 1.9700071095 4.6879980190 1.9065527191 4.5225234560 9.3724507842 7.1749377829 3.2495302226 1.3715495414 7.7481627891 1.3162839529 2.4760699397 0.7294731664 4.6339252682 7.3177156593 4.8577369869 3.0522132167 7.2097433749 6.8572580793 1.1895741742 8.0613714289 2.6589399559 4.0322697455 6.5029333783 9.2545712653 1.2284947664 2.1832258219 5.4726548180 2.2652973494 2.4929648511 3.2074719180 4.1477453944
5.1892562484 0.0119268951 2.4788933386 2.7500571543 4.6760937413 4.8772927439 2.2529990457 1.5772955657 2.5550334399 7.6295352449 1.5067504484 -0.0522366172 8.1703271415 4.6963910760 2.5678253923 1.1640500572 4.5502433680 2.1290403621 4.1309900931 1.7626526738 4.7534235713 9.2560402039 1.5832543807 2.7296533647 6.2638468053 4.6337744368 0.3228002038 1.4881277156 4.6881073970 3.6233105606 3.9583334278 1.6768710115 1.3478100509 9.1163665731 1.6318904058 1.1991408608 6.3558819114 4.5651235110 3.7131209000 4.7396247250 4.8955000584 0.6672007505 0.3798818549 1.3325835120 2.9689008171 5.5899546925 1.5346148145 4.2025993428 10.0475881649 4.4732007379 1.8757538881 1.8387401082 5.7245100948 1.3364782934 3.3409439078 0.5053062577 4.1186714914 8.4526883974 2.7329409689 3.4673860515 6.9005129815 3.3920471940 1.0459535095 8.5902649917 0.2903370337 3.4146795480 6.9020268811 6.0690011092 0.7655688580 2.0296792169 3.2779345746 1.7889893175 3.3045016707 2.9080589509 4.0255093263
5.1834385017 0.0171656558 2.4847199091 2.7359152877 4.6874462385 4.8774739650 2.2615660689 1.5755424006 2.5851071116 7.6432417944 1.4927065657 -0.0621236420 8.1631879896 4.7048181067 2.5833621574 1.1652298466 4.5271024963 2.1271585505 4.1358972943 1.7943381206 4.7859976978 9.2627299685 1.5891811838 2.7200922493 6.2488287702 4.6394458559 0.3191174261 1.4838521088 4.7042186547 3.6086273555 3.9803537902 1.7076316851 1.3408096107 9.1142628837 1.6509698563 1.1874725754 6.3404957542 4.5425007867 3.7248220314 4.7046494934 4.9183829569 0.6905669312 0.3889422260 1.3058904471 2.9679999991 5.5990920010 1.5572814053 4.1879276176 10.0543660642 4.4332332191 1.8770036338 1.8320766251 5.6954587141 1.3119718257 3.3125319757 0.5170807129 4.1354762989 8.4414116857 2.7288271717 3.4767320190 6.8725244984 3.4135293113 1.0648308624 8.5778165661 0.2656301046 3.4197046336 6.8890397622 6.0791646497 0.7400618858 2.0514567261 3.2552681258 1.8140114498 3.3084295918 2.9265790072 4.0512595130
3.9502869665 -0.1459614448 2.9138218485 2.9082028802 7.4967518103 5.1897351385 1.9328139480 3.0289132868 2.4808298377 5.8166053572 2.2979255160 0.2315252008 6.9781868680 6.2312299363 2.9452577982 1.9632658556 6.0520307878 2.4581663811 2.8974195856 1.6309921430 5.2110789109 7.0311737196 3.3922410333 3.1239204049 5.8871295643 7.9920142493 0.1748454061 2.9753173161 6.6652556585 3.4328471835 2.7701531303 1.6039429892 1.3682679226 6.3113918468 2.7694813139 1.9713111038 5.9558799429 7.3446264221 4.0927996766 4.3639790321 8.2730616069 0.7213220495 -0.0538478514 3.3592364858 2.4215654277 4.2837887626 1.9761264234 4.7026310291 9.0181910188 6.4751704372 3.3587459538 1.7299058777 7.0741489799 1.2230589540 2.6068692591 0.2550466842 4.4648495804 6.2241998837 4.6362919621 3.5317460312 6.4508590592 6.9181140704 1.2082408195 7.2019029843 2.4349686758 4.3125622086 6.6532632907 9.3222040735 0.0042883456 2.4698271646 4.7157733838 1.7600661684 2.1810298963 2.7738168695 4.3519657926
4.6165696746 0.3603414862 2.2135409422 3.1705353970 6.9854138284 5.0893552716 1.3029163526 2.5966718038 2.4716687625 5.7588243145 2.1234575014 -0.2388000298 7.3852178179 6.8341054654 2.2921563260 1.8568539947 5.9370118861 2.4480198405 2.4211544494 1.0575755336 5.0855284507 6.5569426598 3.6623609259 2.5878316317 6.4344536614 8.1385303713 -0.3132924583 3.1438207149 6.2733763668 3.2803163981 2.4580907464 1.6238826989 1.3324135337 5.5876423073 2.8216819639 1.6274011498 6.2683037482 7.4853256135 3.5351098617 4.9538008693 7.7700555119 0.1759906913 -0.6224287672 2.9413289955 2.5030923478 3.8951628518 1.2212157619 4.7868503920 9.2759826579 6.9710148860 2.8713507509 2.1821372119 6.0977381819 0.9661602040 2.1535689143 -0.5367145700 5.2280680754 6.4312084570 5.2294032113 2.4715690814 7.4100469286 7.2313519275 0.4433767245 6.2625759090 3.4081024489 4.1565023372 6.5596561886 9.5762267328 -0.0397232115 1.5306636803 4.4418294334 2.4373713773 1.2150392436 1.6095946230 4.2376034096
5.1714642695 0.3372264015 2.8100546356 2.7043217078 6.1031123942 4.8913270569 2.0153510218 2.3355104984 2.8507879073 6.9048586760 1.5967223619 -0.2416641198 7.2302752116 4.5794946477 2.8491563600 1.0080294282 5.3315397772 2.1098051197 3.6070350246 1.9255723110 5.2192525059 8.3139228623 1.5894794623 2.6453290598 5.8676993645 5.8330147742 0.2055063783 1.6441309911 5.8445021469 3.4457840500 3.2315546647 1.7851551399 1.3330729843 8.3524423822 1.4784850718 1.0942718547 5.9720082113 5.4465384304 4.0001651445 4.3081781876 5.8304793333 0.4521918584 0.4827926725 1.3105164948 3.0451891863 5.1216612180 2.1793933895 4.9406594892 8.8160365198 5.3934969111 2.2984981293 1.5276723660 6.2837508026 1.0347922925 3.0812107167 0.7237666558 4.3096416419 7.6195214459 2.8415085952 3.3284317737 6.1973779643 4.6238792174 1.1769789579 7.4516414546 0.5152870372 3.3752352855 6.3494453289 7.2478484694 0.6530805620 1.3858850761 3.8317001688 1.8004542271 2.7491446440 3.0793143675 4.4822313795
3.9397125977 -0.2372110789 2.6868353462 2.9684764397 7.7014319770 5.2514645403 1.9426233564 3.3314164217 2.3708308257 6.4485674544 2.0222478457 0.1667715525 7.4508623435 6.3949737857 3.0719501673 1.6762513321 6.3817439219 2.4996970297 3.0903351435 1.8882854762 4.7883991962 7.6817953588 3.4059121640 2.9558924785 6.2609680902 7.8613342053 0.5096423631 2.4808100966 7.2156716040 3.5287664359 3.1556281917 2.0553985061 1.1551461969 7.1581844787 2.4273339295 1.9228175825 6.3951498065 7.6639181325 4.1370389351 4.7327058646 7.8518328667 0.8792569489 0.0653387015 3.3221442681 2.1868857230 4.5231571973 1.7978235050 4.2148604002 9.2480870608 6.7263870096 3.2556439445 1.5341220144 7.2331702899 1.2169321728 2.3203123085 0.5352198868 4.5026519438 6.8005771470 4.6852747815 3.2174582416 7.1815853332 6.8160819635 1.2048507805 7.9584532286 2.6452921961 4.2917379892 6.8070546828 9.2390254748 0.8535540546 2.3815132587 5.0953410870 1.9958233637 2.1627734549 3.0314272744 4.1558618703
4.6150899709 0.5895995035 1.9195737807 2.9006485729 7.1377437388 4.6634965651 1.0981748988 2.6407973620 2.2409827195 5.7380425785 2.0152920813 -0.3470323046 7.2496125599 6.5222382748 1.9731641617 1.7367980006 5.9932237813 2.2437323929 2.3295132888 0.9856038215 4.8928221343 6.4287126580 3.4305195855 2.1507175905 6.3154465938 8.2008736265 -0.5225293347 3.0160117633 6.4552900084 2.9730867251 2.5464320375 1.6806682084 1.3443105156 5.3273013727 2.6899222187 1.3072375463 6.0496516250 8.1279290740 2.9227629217 4.9061085018 7.8094073922 0.2928351341 -0.7380912647 2.5925687348 2.1067601043 3.6719981791 0.9239941242 4.1339233778 9.0076024089 7.0449303128 2.3061813900 1.8911147570 6.4867700567 0.8387821165 1.6404280103 -0.4952875660 4.8427968598 6.2687217867 4.9749780129 1.9764994118 7.4172733314 7.2961318331 0.0911680094 6.0302282572 3.1731105597 3.6551166402 6.8417167849 9.5957773499 -0.1013386831 1.5442513564 4.4765871791 2.5093927427 1.4807438214 2.0293347555 4.0623097003
4.1108640609 0.1452498106 2.6581537105 2.8473174689 8.2748570997 5.3339790844 1.9080932793 3.5991955695 2.2524064672 6.7602906923 1.5950312435 0.1099999673 7.5242196469 6.8437425114 2.9760856843 1.6172214036 6.9330989556 2.6486827748 3.2648842250 2.2418794225 4.9990974150 7.8241034938 3.4953693831 2.6639465872 6.2107705583 7.8118235467 0.4605615244 2.7297233320 7.6070631863 3.5361731403 2.9852278944 2.3624607673 1.2906581702 6.8431051594 2.7095197905 1.6432741023 6.4281792086 8.1050095294 4.0724954285 4.6771193286 7.3196945412 0.6315644551 0.0969027558 2.9128658340 1.9826553759 4.8331934794 2.0175544665 4.7078298501 9.3593691504 7.3791418061 3.2005045970 1.4140808447 7.8205559929 1.3728065460 2.6457552730 0.8653511825 4.6866664318 7.4284032984 4.9608683836 2.9949970476 7.1493158616 6.7623492268 1.0789773041 7.9802064719 2.5717866176 3.9234463353 6.4023989875 9.1735348188 1.1849334745 2.1134694128 5.5007809363 2.2602054395 2.6861404542 3.1659753387 3.9757145886
4.0256382054 -0.0015576145 2.6989373964 2.8866449010 8.2028188460 5.4190611233 1.8443659819 3.5380285391 2.3332918669 6.7067168628 1.6913181101 0.1280960386 7.5291734015 6.8011079179 2.9877633323 1.5991556248 6.8427476640 2.6255580868 3.2539733420 2.0530806414 5.0135907311 7.9089357025 3.4373522329 2.6940094965 6.2882769408 7.8682488442 0.4494730187 2.6098550509 7.5771241568 3.5911033398 3.0540809812 2.3662812011 1.2585941818 7.0168047506 2.5652921071 1.8332618554 6.5143160615 8.0445139485 4.1514535437 4.8476894995 7.4725181135 0.8554494872 0.0649668919 3.2288670808 1.9721980808 4.6739518899 1.8864151764 4.4859399492 9.3702448763 7.1427529084 3.2607542555 1.3820500647 7.7159893206 1.3220114926 2.4528800681 0.7155552851 4.6236057927 7.2827290555 4.8417054432 3.0689675596 7.2207530875 6.8728184206 1.1947912755 8.0631339766 2.6682740748 4.0591467778 6.5253114967 9.2488148605 1.2123793221 2.2023318859 5.4565857519 2.2541025648 2.4581755419 3.2074857053 4.1729758978
4.5888251314 0.6527830228 1.9934755005 2.8292884029 7.3798848163 4.7104956644 1.0773293549 2.7090683678 2.3082028975 5.6538583227 1.8253359554 -0.2984092305 7.1650938548 6.5344495283 1.9509207020 1.6626980888 6.0730772031 2.2147775831 2.2649837650 1.1403288844 4.7360544126 6.2671426874 3.3504635877 2.0585674741 6.2803629759 8.3435919551 -0.5175001613 2.9745636052 6.5741751027 3.0026078618 2.6366650375 1.6351517390 1.2996826777 5.0494188418 2.7205125010 1.2874792051 6.0436007335 8.1911597881 3.0222662338 4.9124642671 8.0489086451 0.1856508941 -0.8862306943 2.3832471085 1.9370693102 3.7910335867 0.8527369231 4.1839880245 8.8954160558 7.0834139835 2.3111845236 1.7939523328 6.5157937222 0.6740303929 1.5295511995 -0.1539437874 4.7226624926 6.2416601241 4.8787113502 1.6691752557 7.1613485452 7.1655212539 -0.0318220039 6.1817413742 3.0961520867 3.5749336350 6.6916154924 9.7686737594 0.1383645441 1.6752212116 4.5516558941 2.4644802057 1.5614320288 2.2587013374 4.0399233103
3.9649834491 -0.1664614137 2.6817644287 2.9374386379 7.9201781621 5.3683733165 1.8669785916 3.4358745727 2.4162962901 6.5752224014 1.8537307766 0.1537142106 7.5108800711 6.5856819167 3.0153334903 1.5912015455 6.5486507603 2.5631836958 3.0891126924 2.0128156616 4.8023213504 7.8534482805 3.4300035085 2.8376408532 6.2871530168 7.8754491646 0.5172067900 2.4297483135 7.4147976764 3.5247188676 3.2324899897 2.1166572285 1.1360174366 7.1306485585 2.4104058635 1.8837188533 6.5116022743 7.8687881770 4.2258211754 4.6965057023 7.7190999074 0.9299141851 0.0290560164 3.3627239167 2.0502640562 4.5584930361 1.7701489087 4.3064470309 9.3200763904 6.9277304472 3.2749519220 1.5078003819 7.4709009670 1.2588031396 2.3578956803 0.6539689846 4.5543071066 7.0314788138 4.7072572858 3.1472445390 7.2896967683 6.8732735799 1.1532303166 8.0304942625 2.6792286380 4.1819234759 6.7321565086 9.2923281016 0.9808899757 2.3301817902 5.2559650947 2.0934056133 2.2324769374 3.1173729950 4.1351671261
5.2022307929 0.0003186641 2.4733574828 2.8444314787 4.6416540297 4.9097734761 2.2261249282 1.5765663901 2.4521799469 7.5531229788 1.5644129605 0.0028677030 8.1859844372 4.6538835954 2.5297261169 1.1440064550 4.6410760416 2.1756616780 4.0991013800 1.6146338436 4.6729101792 9.2622409964 1.5483542257 2.7516080326 6.3047746060 4.6344121169 0.2949169952 1.4138890867 4.6684638780 3.6988760592 3.8813020894 1.5599737562 1.3064373910 9.0661068144 1.5613978357 1.2299019532 6.4867204496 4.6589942229 3.6899823324 4.8269759003 4.7476446765 0.6085721241 0.3744789928 1.4878387118 3.0205780816 5.5737050567 1.5129606400 4.3070623228 10.0183802225 4.6276748777 1.8910615273 1.8669533736 5.8342133433 1.4564248689 3.3833215772 0.4239664840 3.9947953690 8.5255404353 2.7518306776 3.4451810884 7.0187667753 3.3928962549 0.9713069849 8.5669671582 0.3615692430 3.4292875402 6.9990422112 5.9152394132 0.9436233150 1.8993741447 3.4130831581 1.5871655767 3.3343883996 2.8243255454 3.9929788809
4.6109659280 0.3425417184 2.2495713502 3.1981685082 6.9778787364 5.1375084667 1.3154975386 2.5992380279 2.5110261895 5.7520551701 2.1355686870 -0.2170010842 7.4134236086 6.8642846669 2.3222747227 1.8548216597 5.9263515512 2.4777778388 2.4302180860 1.0747930402 5.1075645244 6.5733535648 3.6818687030 2.6357739632 6.4333445781 8.1245581053 -0.3106256203 3.1483483404 6.2681039606 3.3325299862 2.4380825116 1.6267634064 1.3717623770 5.6129251886 2.8411600590 1.6558850252 6.2850598680 7.4906403395 3.6151366423 4.9407205821 7.7819101296 0.2022776081 -0.6221931267 2.9526393356 2.5333502961 3.9037937052 1.2469787180 4.8233751887 9.3062162790 6.9729297763 2.8996249341 2.1967622863 6.0763445300 0.9774473353 2.1802123659 -0.5150669679 5.2609600101 6.4375261947 5.2382335193 2.4879945534 7.4118954679 7.2444014870 0.4729378228 6.2936661558 3.4333489562 4.1974971451 6.5563907816 9.5674252162 -0.0200871203 1.5547403614 4.4245762587 2.4438623448 1.2277587905 1.5641501382 4.2512107166
3.9313584077 -0.1534749615 2.9097159067 2.9305541083 7.4867904687 5.1786569620 1.9477942428 3.0382434416 2.4530581527 5.8191339545 2.3028945897 0.2105816004 6.9929910833 6.1980865883 2.9677191929 1.9304101195 6.0462033870 2.4336292661 2.9162131040 1.6618783982 5.1554209192 7.0749104003 3.3831826615 3.1132714471 5.8926391715 7.9766414026 0.1917371846 2.9726122776 6.6579373265 3.3939835458 2.8289863417 1.5698855984 1.3518265928 6.3543624309 2.7477530331 1.9556989530 5.9740322371 7.3537814560 4.0803612789 4.3896168293 8.2246589828 0.6880003705 -0.0289591859 3.3654297951 2.4538989662 4.3148815368 1.9494923408 4.7177318807 9.0370040851 6.4587761578 3.3508982414 1.6746221989 7.0704098969 1.2273212004 2.6347127781 0.2707792804 4.4889952470 6.2457574619 4.6435873385 3.4938920337 6.4586231088 6.8862289552 1.2110046931 7.2559538496 2.4613053410 4.3236318038 6.6916241671 9.2970068201 0.0176604635 2.4946271154 4.7161831321 1.7745486209 2.2060127898 2.7711759985 4.2982481445
4.3390656960 -0.5617801858 2.6086913570 3.5616163239 5.9453480566 5.2484324625 0.9434187180 2.0772515534 3.2317266470 5.2373578049 2.3513538099 0.3056261835 7.9581364907 6.4763134376 2.6136583334 2.1756256717 5.0942803273 2.4561136283 2.1727701706 1.0436725089 6.0888000607 6.5954987612 3.4806427985 3.0228470077 6.5628093779 7.2053972769 -0.2175670361 3.4283129350 5.4823245971 3.2506084512 1.7470462616 0.9958583601 1.9944469539 5.5376903571 2.9052487022 2.0540149405 6.8974574159 7.5385287613 3.8741475072 5.4811727768 6.0974994731 0.0012659644 -0.8540747985 2.4252143818 2.6893806790 3.2719050228 2.0063442211 5.5696712296 9.7554708981 6.4239889086 2.7966114147 2.4617150193 4.8897671340 0.9274449108 2.9159584182 -0.4382311602 5.9275374886 6.6245059732 5.0685148234 2.9472625325 7.7773227486 6.8238169263 0.6831989377 6.0466229644 3.2016011769 4.4823306304 5.9587328938 8.4309190103 0.5153986827 1.7952604168 3.6201833486 2.8640381389 1.0979659570 1.2023059910 4.8953067134
5.0861754391 0.6137760451 2.7074575105 2.7522662341 7.3433425468 5.1038199466 1.9572597280 3.0507652832 2.6066736919 6.6587099133 1.5169679065 0.2408871968 7.3990629016 5.3431225556 2.9891896256 1.1285747071 6.1934626819 2.3875836450 3.5700415308 2.1175458976 5.1867806531 8.2016106142 2.2133123647 3.0645381237 5.8421535789 6.5394417219 0.4113148282 2.1453456423 6.5283291239 3.5198446542 3.0049752235 1.9681188528 1.4306021148 7.8363177218 2.2859706604 1.5533214660 6.0224241978 6.0624568615 4.1652950087 4.3844582912 6.4422647295 0.8112462856 0.5396967014 1.6093753209 3.1671045759 5.0497624202 2.3892596100 5.0397608708 8.7821544041 6.6880843779 3.0854428141 1.4105416925 7.0223591362 1.1433627242 3.3566196433 0.7683738916 4.4493387932 7.6291296045 3.6239979854 3.4999571219 6.7012962021 5.5405366105 1.2491309085 7.2790366913 1.1058456089 3.7437288408 6.2053528516 7.9981418662 0.7588498165 1.2966882477 4.7083234818 1.8916124639 2.6701658443 3.1123500591 4.3937454416
4.4650764398 0.1410269285 2.6662113500 3.3915291111 6.8557145052 5.4175638381 1.2697600845 2.5007203454 2.9608110883 5.6885141050 2.3833866916 0.2607185005 7.7734259863 6.9794561044 2.6241161682 2.1489665765 5.7552626234 2.6667888125 2.6891585164 0.9297581021 5.3748365395 6.8860574121 3.7619745913 2.9533836690 6.3699491859 8.2261196705 0.0199909196 3.1094878093 6.1725286578 3.8043659460 2.0315333596 1.7701013773 1.2095149268 5.9620788883 2.9153449651 1.9765311474 6.4724745777 7.8109820310 4.0798070603 5.0589742882 7.6524752079 0.7562444948 -0.4862292885 2.9017910254 2.6836226848 3.9503812023 1.7358331237 4.9715283270 9.5720605272 6.7875482640 2.8991128950 2.6670415694 6.2841952871 1.2688864751 2.6808394439 -0.5438289058 5.4307278890 6.9431814135 5.2273266730 2.5704495613 7.4901448431 7.4150213264 0.7308908989 6.3666221641 3.3958055179 4.3487385108 6.5172842927 9.8247556279 0.2064931033 2.1105916242 4.2256630250 2.8006804663 1.6520249533 1.4242220753 4.3514794623
5.1293976424 0.5851471305 2.7623039338 2.7811645986 7.1325266042 5.0508048155 1.9881185232 2.9256088788 2.6207503331 6.6628159233 1.5564341645 0.1607822773 7.3759111196 5.1808967710 3.0059563551 1.0907586655 6.0431155730 2.3448217410 3.5210608991 2.1211831105 5.1834127062 8.2217251872 2.0420948631 3.0488593599 5.8378130373 6.3677768570 0.4003732774 2.0627071406 6.3171372583 3.4787883398 3.0904588786 1.8828243121 1.4751116581 7.9567254467 2.1140346629 1.5328059413 6.0394341841 5.9681341465 4.1433347473 4.2586757467 6.3673250674 0.7505134795 0.5298899995 1.6010742708 3.2489802728 5.0869071390 2.2203507190 5.1205534978 8.7713654540 6.5290858264 2.9191365982 1.4173639112 6.9147245807 1.0677698124 3.3181048371 0.6972885117 4.4714315427 7.7154961024 3.4173554036 3.5276312654 6.6805098967 5.3885369596 1.2432264715 7.3087913022 0.9409933802 3.7000490152 6.2822351633 7.8662138282 0.6456814288 1.3717910436 4.5486202013 1.9532107556 2.6740323939 3.0918009024 4.3951130210
4.4592355517 0.0720247103 2.8352989269 3.5594609394 6.8397676837 5.4373481063 1.3010828799 2.4489284296 2.9538737363 5.6726464145 2.4555860239 0.4017220024 7.8181241299 6.8965174666 2.7526366361 2.2378562817 5.6400614280 2.7425598680 2.7779540519 1.1409802224 5.4497577170 6.9722332068 3.6506406917 3.0538346804 6.4183676764 8.2682611431 0.1961108003 3.2570523707 6.1802721584 3.7810037738 2.0055686452 1.6358676349 1.1611653081 6.0851486105 2.9297868838 2.0799964140 6.6207807184 7.8426415015 4.1161084496 5.1564461246 7.5971237822 0.7652900295 -0.4325706093 2.7968530945 2.6122477188 4.2461682995 1.7002527910 5.1612271524 9.6974688119 6.6123615363 3.0539971003 2.9078969314 6.1691933026 1.5082046613 2.9100745663 -0.4815898538 5.3996565530 7.2217596614 5.1532898753 2.7354969953 7.6228910357 7.5414847546 0.9157313099 6.3476073165 3.3609118761 4.4519767684 6.4325094334 9.7791120151 0.4431026770 2.2879575880 4.0966933741 2.8709210422 1.6309188081 1.2886243300 4.3294021941
4.4810133151 -0.0550332738 3.0909202665 3.8300497555 6.9190749005 5.5862938566 1.3864084622 2.4174526815 2.8783037069 5.6593153537 2.5127499554 0.5058641980 7.8702606596 6.8261331104 2.9657665896 2.3880161400 5.5432184625 2.8269598790 2.8259920856 1.1122804517 5.5353824243 7.1718050691 3.5571593082 3.3218065526 6.5514833199 8.1621042453 0.3277213831 3.3285907741 6.1465549644 3.8940165190 2.0091718013 1.6066045498 1.4368505898 6.1267026598 3.0250329610 2.2910537862 6.9843411329 7.9095951775 4.3195595356 5.2163729600 7.5280255392 0.7723706806 -0.4656584622 2.4985895392 2.5720267448 4.2355094154 1.7609324891 5.3100954416 9.8777751714 6.3222212393 3.4828793569 3.1762121521 5.8911483009 1.5039629215 3.2486904521 -0.3334825008 5.3873343524 7.3285376747 5.0633860547 3.0115038861 7.7762578824 7.7737371502 1.2264947897 6.4713747055 3.4703637571 4.6526330900 6.3632915192 9.7258314882 0.8319891881 2.3978460984 4.0096363535 2.9911659428 1.8572155362 1.3142353492 4.3535408547
4.6307365374 -0.6728640321 2.8304535701 4.1564651799 6.5103176574 5.3263354637 1.1501189408 2.3672733558 2.6684138974 5.3240695294 2.5167432105 0.7074053910 8.3778882593 6.7257384094 2.9271375791 2.4274532407 5.3908127423 2.7437679254 2.7991841417 1.2337821226 5.1815488775 7.1789997155 3.6090674075 3.1358035061 6.8096458473 8.1129171573 0.4098731880 3.2656035547 6.2437522043 3.6719855949 2.0328874643 1.2371612316 1.5582208586 5.8952152523 3.0156752404 2.4430968457 7.8017433921 7.9385206172 4.1853726888 5.6502470481 7.0707044956 0.5291769759 -0.5833902871 2.4891314944 2.2027268603 3.8442236195 2.4152014596 5.2266188205 10.0457390310 6.3440321423 3.3386500629 2.9204085916 5.4982824604 1.2907166055 3.6737187981 -0.0376620252 4.7477073252 7.5802314293 5.0468836616 2.6286671544 7.9167982944 7.9085094184 1.4384053090 6.6678719579 3.6271929155 4.6044162392 6.0374858835 9.4968603609 0.7204278471 2.1482520022 3.9676590662 3.0636056725 1.5053192658 1.7302267924 4.4044594673
4.4995089408 -0.1473469879 3.2335522082 3.9723250993 6.9540145983 5.6580254678 1.4190937556 2.4423405293 2.8533970151 5.6256444366 2.4935011762 0.5853823972 7.9434698573 6.8062858958 3.0494915097 2.4828257377 5.5319277426 2.8340091261 2.9026310595 1.0552278127 5.5396755238 7.2188895386 3.5315172284 3.3382975672 6.6406131336 8.2667452537 0.4918998591 3.3016581750 6.1605844722 4.0282050808 2.0793023683 1.4501898972 1.4103439879 6.1347324276 3.0938113770 2.3660303117 7.2606950350 7.9835570671 4.3914020835 5.3738669276 7.4106871117 0.7914829453 -0.5406078810 2.2978759662 2.6150198538 4.1618398268 2.0297282562 5.3414712272 10.0115665002 6.2165220292 3.6782971152 3.1658958734 5.6742947396 1.4508738526 3.3350054646 -0.4190852879 5.4000989397 7.3792334654 5.0854985350 3.1356683988 7.8096578511 7.8040302987 1.3778242040 6.6313423828 3.5878145593 4.8416625274 6.3233968877 9.6934630530 0.8939647759 2.4282485730 3.9527684946 3.0659263740 1.9598313411 1.4749949441 4.3850816328
4.5952554926 0.6493825758 1.9645253642 2.8389156727 7.3225902723 4.6836633140 1.0769041531 2.6955944612 2.2943594392 5.6695961265 1.8541723088 -0.3076399419 7.1902042333 6.5221341058 1.9442876733 1.6679890088 6.0487687866 2.2302954904 2.2664696357 1.1107094078 4.7723194220 6.2842931578 3.3607545412 2.0644760546 6.2746089386 8.3111213487 -0.5464215916 2.9772405548 6.5450373555 2.9861352509 2.6297561052 1.6089333498 1.2894119563 5.1223686870 2.7095508005 1.2733221010 6.0395941557 8.1985817466 2.9796834862 4.9328062096 7.9995741426 0.2198636060 -0.8762001873 2.4074315766 1.9550770881 3.7838445316 0.8364102693 4.1407829892 8.8923001165 7.0849665333 2.2822486869 1.7933440264 6.5286179093 0.6758416688 1.5358674447 -0.1781710667 4.7530763727 6.2337476609 4.8600730939 1.7102262130 7.2159916902 7.1930348111 -0.0234348214 6.1531271252 3.1218512436 3.5648659892 6.7353509967 9.7630570186 0.0908161115 1.6583422962 4.5199172975 2.4839793205 1.5348998239 2.2175429563 4.0193397188