-28926.2413406031
-28925.8830623732
-28925.2401978406
-28925.0355079296
-28923.8364483021
-28924.6727843142
-28925.5869788585
-28925.5590903337
-28925.187249957
-28925.0999353377
-28925.3046766782
-28926.1069039185
-28926.0471031235
-28925.1956990874
-28926.3100517612
-28925.6567980636
-28924.7177066124
-28925.5168453622
-28927.3804489567
-28925.1434316241
-28925.055014264
-28925.3452818926
-28926.6238525988
-28925.1087352226
-28926.7495755225
-28925.1920758935
-28925.5518500684
-28925.239420956
-28925.217218655
-28924.8563327596
-28925.5194469052
-28925.3377931875
-28925.2607591599
-28924.5954781729
-28925.6835267038
-28926.3754737449
-28924.9816069678
-28923.9818858633
-28925.2166737474
-28925.2858477708
-28925.3071271982
-28925.8677475421
-28925.4039023944
-28925.5258898773
-28925.1329586481
-28925.2192665827
-28925.6411282602
-28924.7889436659
-28925.1616127648
-28926.4666919712
-28923.9384743403
-28925.6872981997
-28925.6329440325
-28926.5701490554
-28924.9737703653
-28925.1213681011
-28925.2581193849
-28925.4585481314
-28925.9875797484
-28925.5410818491
-28925.7116659814
-28926.088663729
-28925.5517259846
-28925.353477549
-28925.6632723288
-28924.9333987606
-28925.753547273
-28923.7768688716
-28926.7048476495
-28926.474426531
-28925.5576928938
-28926.1319702161
-28926.2642684952
-28925.3008808282
-28925.8704511277
-28924.968513809
-28925.273065774
-28925.2276578889
-28925.0536194092
-28925.7611516264
-28925.633086484
-28923.7255659153
-28925.0365181517
-28926.3401347469
-28924.476625984
-28925.6691710735
-28924.7570160214
-28926.1568520206
-28926.0928753688
-28925.9440287672
-28926.0833682604
-28925.6017178971
-28925.570049849
-28926.1263223602
-28925.7157159857
-28925.3854314526
-28925.0796932078
-28924.9504634188
-28925.0913588582
-28926.6452702599
-28926.1074737246
-28924.3141958747
-28924.9039921134
-28926.5897001526
-28925.0440259047
-28926.7542942461
-28925.8528353032
-28925.7687766604
-28924.4880717665
-28925.4839211012
-28926.1751719394
-28925.0045287373
-28926.0253125306
-28924.6731541167
-28925.2075576663
-28924.5147567325
-28925.0125194922
-28927.6342457304
-28925.2208478355
-28924.5414972096
-28925.6096852501
-28925.5923431719
-28926.0934069429
-28924.0825175909
-28923.5129342299
-28925.2430546263
-28925.6454556843
-28924.9441722862
-28925.6807673348
-28926.1386891115
-28925.7484641891
-28925.4028057762
-28925.6008966579
-28926.4048092343
-28925.6641805082
-28925.2718913313
-28925.8959435554
-28927.0641140603
-28925.1032179813
-28925.3072221658
-28925.6535526996
-28924.6385630233
-28925.802255353
-28925.9404016277
-28924.9685218363
-28925.9440709448
-28925.3922657242
-28926.0374599582
-28925.5682541707
-28926.2854322742
-28925.6236837312
-28925.687380378
-28925.9890264409
-28925.6178708384
-28926.3157028824
-28925.1917379282
-28924.413053285
-28926.0436769399
-28924.5275311101
-28924.7884825692
-28925.9819786961
-28925.1626870697
-28925.7841743501
-28924.7678417928
-28926.0107754004
-28925.8912880982
-28924.4534763192
-28925.5870225328
-28925.5045455509
-28925.8941971297
-28926.1903214614
-28923.7134523658
-28925.1588294499
-28924.449732715
-28925.3993574154
-28925.6953976639
-28925.8145082247
-28925.6336162894
-28925.1606190056
-28926.0662638736
-28925.7229652307
-28924.8235393853
-28925.6267241936
-28926.1578797941
-28925.0659867047
-28924.9903565116
-28924.9625064909
-28925.5386589487
-28924.9379674135
-28925.8478063699
-28925.6561126092
-28925.2764017519
-28924.9378142135
-28925.9305667583
-28925.5264411797
-28925.4966211918
-28925.7606087595
-28926.4078321454
-28925.3709456159
-28926.0345367768
-28925.6670017831
-28926.1087609584
-28926.3957437665
-28926.3401679448
-28925.9376882459
-28923.5017378397
-28925.1527011773
-28925.8586725502
-28925.6024841692
-28925.5058318323
-28924.7177902874
-28925.310427257
-28926.0896056506
-28926.0106798885
-28925.0557914208
-28926.129138737
-28925.2060098836
-28926.0778191818
-28926.3212738662
-28926.0063974992
-28925.9085007863
-28925.8039088519
-28925.630042212
-28926.0531573812
-28926.101386269
-28924.9614527306
-28925.1522557271
-28925.260309492
-28924.9210854796
-28925.646306856
-28925.574228563
-28924.8813144298
-28926.5595729483
-28926.039539179
-28924.3717177175
-28925.3338585595
-28924.429239016
-28926.154122176
-28925.080445058
-28924.5555759642
-28925.5897708811
-28926.4030679788
-28925.2647286185
-28924.8330043161
-28924.9847094721
-28924.8984438511
-28924.9333784881
-28924.9790636571
-28926.0078507224
-28925.518601584
-28925.8933628291
-28924.8715293573
-28926.0378583327
-28925.7725644831
-28926.4228209843
-28925.9821240048
-28925.7097873085
-28925.9696190198
-28924.8534290343
-28925.0885593524
-28923.5946332388
-28925.9217799348
-28924.6874164121
-28924.5608342894
-28925.5357046103
-28925.9623222909
-28926.0872147236
-28924.9406070525
-28926.3206157592
-28925.0557833934
-28924.6890463731
-28925.6622553038
-28925.5153943159
-28925.9164059614
-28925.3562581429
-28925.8619169619
-28923.9767547513
-28924.8489919483
-28925.2904928877
-28925.7977958177
-28925.9323248849
-28924.6640814378
-28925.1659695773
-28926.1354663329
-28925.0322267826
-28926.3517975401
-28925.0107612295
-28925.4324648088
-28925.9240860984
-28926.3389318683
-28925.4560638694
-28925.1395194454
-28926.3286707329
-28925.7534238694
-28924.5858498378
-28926.6595246639
-28925.5110157343
-28924.9715197129
-28924.861766598
-28923.6488833225
-28926.0645501015
-28926.26973662
-28923.5862460143
-28924.9193480337
-28926.2801399349
-28925.8297721706
-28926.7735898285
-28924.9592133709
-28924.8930819867
-28925.954843382
-28925.7230074083
-28925.6491475869
-28925.6637360105
-28926.0688120823
-28925.6914125588
-28925.9182640898
-28926.2345509581
-28924.4798405992
-28924.5734470314
-28925.7517281929
-28925.8904152935
-28925.2601305772
-28925.9893337933
-28925.0916954628
-28924.7474211563
-28923.5025905079
-28924.6293342872
-28925.6590976965
-28925.4528742887
-28924.7335648546
-28925.9164294992
-28925.0045582617
-28925.0460320629
-28925.9263575675
-28925.0859771295
-28926.2705190829
-28926.0667259226
-28925.6280253053
-28925.4205829642
-28926.0063747777
-28925.1520493289
-28925.395012848
-28925.7106425618
-28925.0470130328
-28925.266395723
-28925.6407581855
-28925.4223268048
-28925.5671293887
-28926.4381379923
-28925.4678631276
-28925.9852924967
-28926.6112352308
-28925.8697870343
-28923.8329095995
-28924.992456277
-28926.7128329621
-28924.9993192566
-28924.7137149766
-28925.0173408027
-28925.8115974245
-28925.2319978303
-28925.7718369871
-28926.4630493212
-28925.2482241063
-28925.8690313745
-28925.09995044
-28925.1207663217
-28924.9796001292
-28925.9018293747
-28925.4125911209
-28925.8571942925
-28925.2107124165
-28925.6982822052
-28925.8289501151
-28925.490808571
-28924.9571463952
-28926.2759091111
-28925.2531833784
-28925.4434247323
-28925.0528022518
-28926.0206942169
-28925.6262324842
-28926.147437839
-28924.1944893849
-28925.826992121
-28924.1553191621
-28925.6708610356
-28924.4861310516
-28924.6681457281
-28926.0724985426
-28924.7765122876
-28925.8349303579
-28926.0024596058
-28926.2475638434
-28925.694878471
-28926.4241418242
-28925.9602602133
-28926.60282338
-28924.8031055513
-28924.7411603643
-28926.35502821
-28926.0136811666
-28926.9021868171
-28926.1065440481
-28925.6784633481
-28926.4122109991
-28925.6919848139
-28924.5000559259
-28925.5517080251
-28925.9624428373
-28926.1199387089
-28924.9828205949
-28925.9561842222
-28926.0214479718
-28925.034843564
-28924.361746111
-28925.7832937902
-28924.3742603479
-28924.4962007551
-28925.0286829098
-28924.5163566249
-28925.3802984358
-28925.0835887875
-28925.0622699037
-28925.7347995915
-28925.4851447965
-28925.1049512095
-28924.5214187561
-28925.1279231841
-28925.6193886886
-28924.5013469694
-28926.3254399269
-28925.0613919289
-28925.0790599992
-28924.576473616
-28926.103580866
-28925.6240223767
-28924.7194674602
-28925.0620243211
-28925.7682399161
-28924.8538720354
-28925.7180485443
-28925.0631686953
-28925.9364757073
-28925.022963488
-28925.8068727143
-28924.544645293
-28924.7867358714
-28924.6832042281
-28925.6917302516
-28924.7061498076
-28925.3449348116
-28924.8749174449
-28925.858619488
-28925.3028291623
-28924.8083528558
-28925.0763319233
-28924.6964133073
-28925.3398182577
-28925.0732211195
-28926.1397421915
-28924.7753348516
-28925.9157147926
-28923.6509198214
-28925.0948868123
-28925.6968718399
-28926.2407541981
-28925.1276546079
-28925.9247292392
-28925.1821712269
-28925.4949498694
-28925.9687611813
-28925.4234881861
-28925.8729821933
-28925.1057346249
-28924.7524290007
-28926.0700572746
-28926.4856886367
-28926.1046355787
-28925.6537887582
-28924.7380717377
-28925.9897923049
-28925.9678000757
-28924.2335879057
-28926.102161657
-28924.879017246
-28926.0897064687
-28924.0847252494
-28925.0704983499
-28926.0232075951
-28926.1341362411
-28925.4633250874
-28925.0456326
-28923.6164194779
-28924.0264374066
-28926.2421842916
-28925.8340570089
-28925.644308453
-28925.7024839128
-28924.4775483134
-28926.0725717412
-28926.3272705718
-28925.837726054
-28926.1511754568
-28925.7013898797
-28926.7215411447
-28925.5714392615
-28924.7530656107
-28925.0458847134
-28924.7545415554
-28924.7465527054
-28925.6654010742
-28925.9422102314
-28925.0560149622
-28925.820918135
-28925.6537442676
-28925.9241601133
-28926.6949089687
-28923.9874579355
-28925.775721138
-28926.0144776434
-28925.0274090095
-28924.7060755205
-28925.6292412453
-28924.9180809362
-28925.5937102712
-28925.4543379883
-28925.7004973468
-28926.0528449947
-28924.9565383572
-28925.1525765492
-28924.6462754058
-28925.4574502887
-28925.5491411766
-28925.154890468
-28926.0560285889
-28923.891120026
-28924.6184339566
-28925.0974434565
-28924.8753916031
-28925.3847126642
-28925.6010747563
-28925.9658008564
-28925.144537086
-28924.8153067214
-28925.7188693753
-28926.5227094334
-28924.7313403251
-28925.2115565132
-28925.2126891865
-28924.4398607021
-28925.239677151
-28925.0710632579
-28925.8071829239
-28925.0646591981
-28925.3453968606
-28926.2404819483
-28925.0995225412
-28925.9778851537
-28926.1947449417
-28925.7917380225
-28925.5259886546
-28925.6810493807
-28925.4313413874
-28924.4490988261
-28926.1115344773
-28925.1703157773
-28925.1090765893
-28926.436296871
-28926.4032806356
-28925.9046726908
-28925.1000143868
-28924.9353971636
-28924.0213799014
-28924.6897572702
-28924.870466073
-28924.9542160028
-28924.5858937841
-28924.7684661576
-28925.3924874969
-28924.7159412748
-28924.5228883061
-28926.7171912711
-28925.2892306883
-28925.5715818491
-28924.5419495986
-28924.8219634388
-28925.7009442935
-28925.1060766718
-28926.0706994629
-28925.1156357539
-28924.5448667935
-28925.417521549
-28925.5642822631
-28924.5481151508
-28925.1563506301
-28925.5530490014
-28925.1120833096
-28924.5662592841
-28925.319016526
-28926.3853350093
-28926.4504878726
-28926.3727716558
-28925.1365419773
-28926.2599261048
-28926.1477786614
-28924.6035995423
-28924.5754681559
-28924.8596398934
-28924.8643243307
-28924.7713169568
-28925.6261575168
-28926.083637789
-28925.3339966572
-28925.9380663479
-28925.2660619756
-28925.1862865385
-28925.9732686087
-28926.2298337311
-28924.8396462033
-28925.5300083181
-28926.2127014526
-28926.1123706827
-28925.3020302365
-28926.0476204116
-28925.0432442581
-28925.3139998378
-28925.097262637
-28925.1228240455
-28926.0748413055
-28923.9583238102
-28925.3939808568
-28924.829706298
-28924.7632660648
-28926.1569947443
-28926.4200055599
-28926.0741225172
-28924.0207529514
-28924.6215082972
-28924.886910448
-28926.2155884429
-28924.694430959
-28925.9462369699
-28926.0324375557
-28924.725033818
-28926.2487205987
-28926.3517965877
-28925.4869173451
-28925.3925972947
-28925.2797325597
-28924.8352268047
-28925.0622942579
-28925.1201014119
-28925.7118457125
-28925.7146667153
-28925.8953557898
-28924.8495163114
-28925.1071343778
-28925.2676274457
-28925.6180928831
-28925.1553972798
-28924.4768476206
-28924.8866927571
-28925.2604738487
-28925.0972065816
-28924.7797469032
-28924.7311676689
-28925.3219980758
-28925.3912652982
-28925.8483331821
-28924.5910465292
-28925.8742646652
-28924.7701078196
-28925.0609784521
-28926.7619196883
-28926.0397575502
-28925.9249809443
-28925.7361846502
-28925.6577421621
-28923.5327366241
-28925.1664401979
-28925.7296850785
-28925.0139509463
-28925.2777918448
-28925.6262051367
-28925.5883156171
-28925.4563838751
-28924.5348799487
-28925.0805933599
-28925.8038979674
-28925.6836159571
-28925.6588719781
-28925.7617157181
-28925.5944304201
-28926.0304979292
-28925.420103908
-28925.685106732
-28925.5062561936
-28925.5184253904
-28924.6146586512
-28925.0161390125
-28925.9432067117
-28925.9008026897
-28925.2912160299
-28923.5492623612
-28925.4943754374
-28925.2407794836
-28927.7722475127
-28925.7217662977
-28925.0762694733
-28925.7000512164
-28925.0554465167
-28924.8075412767
-28925.7993660498
-28925.6734741435
-28925.2868714626
-28925.6989468429
-28924.3964811525
-28926.7843950553
-28927.5189507479
-28927.7877156798
-28924.7972553788
-28926.0220690713
-28924.9442551448
-28925.2262653471
-28924.6690079203
-28926.3722028022
-28925.1291064705
-28925.3026450774
-28924.7059707567
-28925.9849328985
-28924.6261502848
-28924.4179048001
-28925.6380067079
-28925.4381996051
-28926.1545081693
-28925.1460764332
-28924.9077547656
-28926.0355121684
-28925.6563430895
-28924.397473007
-28925.0451415709
-28925.3685744171
-28925.5616237122
-28925.7581264023
-28925.0689923366
-28924.0046895355
-28924.4907039223
-28925.6593726674
-28925.9958585356
-28925.5096536692
-28926.1128098742
-28925.6653184877
-28924.7611875244
-28924.8285602912
-28926.2611334733
-28925.9045782673
-28925.4749405328
-28925.8905884939
-28926.0053019694
-28924.6297451789
-28925.8783637859
-28924.4970287971
-28925.9017808024
-28925.7203096731
-28925.7316049767
-28925.8648127958
-28924.8409879959
-28926.3106743573
-28924.5645493216
-28925.1781066646
-28925.4746918209
-28924.9924319228
-28925.8003939593
-28926.7469564281
-28924.5790928465
-28925.0782221612
-28925.0517845466
-28925.0353371782
-28926.2202534241
-28924.6779139296
-28926.2114207495
-28924.8560350672
-28924.9414945513
-28926.4203333209
-28926.1591517896
-28925.7000682235
-28925.5786860575
-28926.7274061473
-28925.9966687541
-28926.5344119552
-28925.8786567163
-28925.7974952681
-28925.1233712661
-28925.5658730397
-28925.8432755408
-28926.1725337971
-28925.7022579224
-28926.3903451667
-28924.4689673439
-28924.9943190313
-28924.4097405728
-28926.3185336812
-28926.0425770563
-28924.6980311593
-28926.0963254984
-28925.7294008557
-28926.0277532544
-28926.7737812605
-28925.2266430409
-28925.05469834
-28926.3379372928
-28926.7302706882
-28926.4984521298
-28925.5150050572
-28926.7870210886
-28925.8482065131
-28925.0565995985
-28924.5998315839
-28925.5911005647
-28926.0535263674
-28925.7129159357
-28925.4011505086
-28923.5580246944
-28924.9764510934
-28925.0867165984
-28924.7593687164
-28925.1767081362
-28925.905704818
-28925.6484811805
-28926.7828557082
-28924.6324453631
-28924.5566174794
-28925.735774711
-28925.4446156379
-28925.2133554569
-28924.7403342271
-28925.0817965107
-28924.9507088654
-28925.8445834553
-28924.7226895585
-28926.4714498793
-28926.7386452594
-28924.9768393997
-28924.9761234686
-28925.2772489779
-28925.2317582342
-28923.9692550256
-28924.9859893589
-28925.4801969531
-28926.2572617035
-28923.7742308653
-28925.0029084363
-28925.8421957936
-28925.0583257517
-28924.022972991
-28925.6662491166
-28925.4387189341
-28926.6916275496
-28925.6098339602
-28925.8826351547
-28925.8086082555
-28924.6060699265
-28926.5142592146
-28925.1704571403
-28925.6015181656
-28925.2999801319
-28925.1253078993
-28925.7738223287
-28925.1621488288
-28925.9108605563
-28925.8139312076
-28925.8914584414
-28925.3474521354
-28925.9187245061
-28925.3592358831
-28924.9333492359
-28926.2372776735
-28925.4584097616
-28925.7408130321
-28924.0064607236
-28925.0897075362
-28925.6409145149
-28925.3970556056
-28926.2498602109
-28925.7048127979
-28923.6845791976
-28927.7201901212
-28926.0135935459
-28923.9609603198
-28924.7415064929
-28924.793062787
-28925.061969082
-28925.2347016881
-28926.0734033207
-28924.6122245941
-28925.3036357073
-28925.7584435508
-28923.5181411256
-28925.2688090994
-28926.2082420533
-28925.6135503531
-28924.741343905
-28925.6078710681
-28924.8641803826
-28925.1940259963
-28926.4334330104
-28925.6537401859
-28923.9874036488
-28924.9947809443
-28925.0210735223
-28926.1733436074
-28925.0598427856
-28926.7247401133
-28926.0028745792
-28924.8483481273
-28925.1614084075
-28925.5693864358
-28924.9380870075
-28926.0378330261
-28925.8986286374
-28926.1043597914
-28924.9330364412
-28925.1773949512
-28926.3678844938
-28926.3247650849
-28927.2261485163
-28925.859375556
-28925.5342666254
-28925.5041913949
-28925.6154823604
-28925.3993741503
-28925.5575987424
-28924.8893351172
-28925.1024932065
-28925.9596876861
-28925.8036938821
-28926.3332143513
-28925.4156226036
-28925.55646811
-28925.8824790975
-28924.9431502271
-28924.9011512464
-28925.0931402505
-28926.1366146527
-28925.0551341301
-28925.6797135745
-28925.9589706665
-28926.672068153
-28926.0394654362
-28925.0808555415
-28924.6649973726
-28926.0898709615
-28926.4354908703
-28924.7703387081
-28925.6189197006
-28925.7378222305
-28925.0509087486
-28924.7689922895
-28925.7751131
-28926.0356008774
-28925.0295382992
-28925.6375079235
-28924.5502043038
-28925.0192458707
-28924.7691819527
-28925.0726915863
-28924.9726526583
-28925.5617268433
-28924.9002200733
-28925.5346660883
-28925.1969314903
-28925.0237836387
-28924.5460566107
-28925.2557124032
-28925.463400599
-28925.2345882167
-28925.7950484217
-28925.6936799462
-28925.9637254452
-28926.1686599864
-28924.308471963
-28925.6401049766
-28923.9035497716
-28925.9438528457
-28926.1440354654
-28925.0775220126
-28926.7195348503
-28925.0432054819
-28925.9856632516
-28926.2516884068
-28925.496214926
-28925.1319319631
-28925.6496490925
-28926.2725106831
-28925.1098828622
-28926.2840016365
-28925.3977350735
-28926.1625880414
-28925.0669842736