0.39097382877173 0.214895776451311 -0.418887510032575 0.538041367789718 -0.442475055350685 -0.86783634268637 0.509983190605908 -0.638243633942259 0.257138465332779 -0.454722498928018 -0.820311067980616 -0.775015967004047 -1.5941885510934 0.12358412332408 -0.159031132953055 2.02354327379474 0.909105355304012 0.0222078920749906 0.021601369152792 1.62209091950618 1.33696446806961 1.02856903083193 0.055602134001196 -0.512117976457122 -2.34651685842058 0.0774045633172603 1.03358807871842 -0.689988600974899 1.15312451642818 1.01519030244846 0.180626588571633 0.470332429481406 0.178386387545302 0.160085027594044 0.825353512893782 1.17262452405358 0.621085642975748 0.389342207549063 -1.303429329763 0.973298311856892 0.723104906793052 0.083181829134048 -0.959196075417862 0.48755701198537 0.221276479868099 0.0225817302813817 0.914376628280237 0.220115627390894 0.191778742768481 0.114187517458208 0.317158780722301 -0.350182269764314 -0.638774052250227 -0.0707204698842817 0.316714751435893 -1.35182003734545 -0.555072346325723 0.962494027737931 0.340003020500743 -1.61991165359327 -0.346269052775818 -0.226718474005977 0.791571034590925 -0.491896260547449 -0.992481559736569 1.12114489473001 1.39356598935295 -1.88333851978706 -0.187458006139593 -0.88515502751739 -1.77598499099865 0.635264241139191 -1.21682742097186 0.350083025233594 -1.93633201386939
0.407107235658139 0.269195904484719 -0.366061394679526 0.985785125014796 -0.158906177404014 -1.38685155691835 0.599493015569185 -0.907011449971928 0.190561840271335 -0.354378050844161 -0.634370526142344 -0.178428810725532 -1.01031420782383 0.39448723942533 -0.1363218760208 1.94652514708285 -0.652265394893943 1.41259291424124 -0.967413831093704 4.76429283255927 -0.291712071669381 1.49693765273395 -1.24363270023288 -0.220293290527494 -1.29139091676462 -0.139621113891784 1.25345713744361 -1.22252498263185 0.843220613745593 0.484420781970542 -0.721633722324709 0.843328857132726 3.06515550422104 0.392797254191074 0.864640720219221 1.37338823928461 0.917349336218542 0.350864897300743 -2.3092014290902 0.575826280314646 0.438224509801813 0.461440530905181 -1.47432815455279 0.449909653408461 0.105006884146235 -1.27163842693931 0.127036341754076 -0.0659677881475963 -0.87715915792966 0.768105102389475 0.560120704773103 -0.444087907529977 -1.20471007514723 -0.0764499132069918 1.76403682367457 -3.96687742639374 -1.27384931740476 0.742651451361608 1.3688548725342 -1.54101739387448 -1.05128702951041 -0.127995876957825 0.751838769538345 -0.124558056698089 -0.510535720389632 0.160594362866988 1.36621717916462 -2.05947879277182 0.262800802897671 -0.02362199808266 -0.225393842342066 -0.0631665727014947 -0.360389286927672 0.348637294673389 -2.17205680048312
0.0730899973327692 0.620959144765607 0.179416885159618 -0.511918973175315 0.943639623782582 -0.820234706256201 -0.286044077680459 -0.706267532225006 -3.65601578827868 0.328628465995416 0.988217644458171 -0.367020415662909 -0.803570623951642 0.11215968944321 0.367851138664869 -1.05207738621361 1.03849579789558 -1.71142410977359 -1.77630175074437 -1.16575839661089 3.62996615584613 0.942917144167755 -0.023141973370602 0.0826994904303411 0.258343540761497 0.155862764165326 -1.47588649937324 2.01410553029956 0.18597319483154 1.20966021750462 -1.48928733923246 1.05816652668263 -0.821412270895315 -1.82489120449844 -0.659830862034974 -1.41893145158798 -0.787017356136046 -0.216126305788167 0.169529455953993 2.3987017409767 -0.485467734636584 -0.402063505194057 1.46677400025982 0.00976633030933159 0.520335989243147 2.2128856404671 0.668891939111754 -0.894547776730513 0.912209703656121 -0.315510704447908 -0.451179006382982 -0.59420014533757 -0.973590646135204 1.34345624308554 0.56695675032436 0.662918755335358 -0.0687242664218188 -0.847470387963915 0.67584239869454 0.352359478795758 -1.46643435770779 0.243295395958428 0.361005837147016 -0.533195869276893 0.0577603168790828 0.372754229858734 -0.843047321482108 -1.83684657090764 0.247619475019698 -0.0418662795732447 0.182293948109767 0.381846417267682 1.68271030162259 -1.22170300137612 2.86893903969031
0.0299985877365163 0.195785547863666 0.134013026575551 1.94567771191898 0.232886547301248 -0.553208040387248 0.177112663697666 0.25955787215681 -0.489759932035135 -1.4988652077775 0.39185417403905 0.472312177892143 -0.314257292304747 -1.93328782930015 -0.583853003124361 -1.46128058408529 1.07740299637023 0.943916531449902 -0.781826558647167 -1.55612107447712 -0.419037919489754 -0.94812362537781 -0.872402362430043 0.249630847982971 -0.130786036666049 -0.56853180730672 0.574246338238804 -0.21406813877155 0.0513716430466155 0.508502750170969 0.0684496727461477 -1.11677170762375 -0.104039635636989 -0.162052434715987 -0.710847693028756 0.656834757069997 0.0764306299432509 1.02848212759 -0.0879859329073759 0.702809143150613 -0.526637245613322 -1.16569103374288 0.0134435201496386 0.883263210789311 0.138693460350753 0.136238572321439 -0.189022521604441 0.538616780379748 -0.544100940587673 0.357257684896142 0.102681065428894 -0.515452952643573 0.897555708763918 0.868538253486541 1.32016206048648 0.468575081379148 0.195178767831285 0.975135107005763 -0.245827417042706 -0.531666063686778 0.632591580784696 0.31362608680496 -0.0617948898740554 0.314766884687874 1.36632105167864 -1.06722760375941 0.723862867613163 0.317366525750337 0.933710028506911 -0.367710756504835 -0.582753599980944 -0.944489887158466 -0.178153959939677 0.460897257088052 -0.308121872002744
0.514759012259082 -0.182647217501501 0.104523517001795 -1.65788811320469 0.353834519916849 0.862284819610443 -0.212235971605977 1.12538824119376 -1.02641958970027 -0.367965295586215 1.51858581594009 -1.02971934179162 0.0666409026072469 -1.27151244294954 -0.605641034270165 1.40643126870055 0.635300750785207 -1.51059791676804 2.22412109836331 -1.44308489641934 -0.90058909470546 -2.15241872468934 0.221337157871337 0.84919945394602 -0.475032403630533 1.64660766102642 1.2225946594915 1.12354578962085 -1.06455031542162 0.552148232212045 -1.09094113306729 0.670682968648013 0.850668324422714 1.01270019032404 0.0384945366305943 0.880198457405417 0.818657592392375 -0.288737049739428 -0.105504392350751 2.7456066272356 -0.395131043324095 0.783923292191266 -0.954658080684159 -0.576868090777023 -0.465713187929808 -0.406315079183661 -0.203330446190041 0.705737628137405 -0.523988239395683 1.20597171481626 0.0758289921145333 0.462799872443826 -0.698617990054064 -0.38365981538988 -0.857297653386668 0.732035886117126 -1.87347140228591 -0.964223865050585 -1.462684919906 -0.0793434312088667 0.085661913961317 -1.04579232778497 -0.29678357003325 1.29673135238013 1.42194401160468 0.35084458559627 -1.1994251753313 -1.11307137786695 0.115778001051561 -0.00680930609220318 0.629536083367397 1.48368825077264 -0.888456579380023 -0.453691487093335 -0.559975694629771
-0.303151160830694 -0.609507457205317 0.116718510101753 -1.58512695979625 -1.03801474474279 -1.53579342917196 0.294617416739684 0.697700106699995 -1.15233570238609 1.67926605360827 3.09784937800818 0.0521712557164068 -0.10890081787099 0.811652625450747 0.230188175928432 -0.472022928936029 -1.03381073613708 3.59710567466027 -4.48254069516718 0.168510014077555 1.90255596332111 0.241460143470657 0.335938879834701 0.598985737177706 -2.59073707970802 -3.86196850122731 -3.12983182791836 0.428399815480893 0.364500221647059 -0.104802481550581 -1.2159936126477 -0.480159180683793 0.304670167793114 2.27247401074882 0.137066724221567 0.0977939150663879 0.239837263994218 0.426087623603261 0.974514700133671 1.38217369424498 -0.267364251539512 0.578960710558191 0.403153138150512 0.689314715184699 0.271756464799333 1.4723000694276 -0.0274907350094604 -1.94986912212571 -0.487386290823716 -0.588206392746517 -1.16837474983526 0.779295566003621 1.26426039312184 -1.72424439483912 1.25331624106321 1.7513795464652 0.258411932070231 -0.0847532865738436 -1.11469194335174 1.45881746853012 0.521825171424315 0.125919712228384 1.39331016472066 -0.779767106079633 0.260053066369678 -1.3513261286835 1.36905824668912 1.27759387011306 0.614641690453889 -0.51745506964025 -0.705423696603703 -0.416555520670837 0.290657662808026 -1.68118975199907 0.0825315974807033
0.337587213219277 0.127924914547259 -0.162731976930218 -0.127429206114025 -1.87583193087799 0.555551856817414 0.818020730468557 0.325081888128181 0.939681412512024 0.236905179464862 0.844992360018112 -0.385397623118214 0.674212834353339 -1.41611995173455 0.8954990844084 -1.04043826532975 -0.943969239037461 -0.834310203236177 -4.09267938215821 3.00475800819275 -0.383762145242799 0.404572129251662 1.43920176132228 1.73478256991846 -0.721671003301275 0.42056052599474 1.15799829706116 -0.033440778869367 0.214497769887698 0.0712742852189217 1.05057997650658 -1.620415075332 -1.76479864114743 -1.29224400835252 -0.863508921192718 -1.86414061662694 -0.315414545239387 0.156881434711214 1.15587302428673 -0.96345433427223 0.772845957057733 -0.973852384301715 0.648322610234377 -0.676000778567399 0.522238347488737 1.68489008175587 0.0473458117978722 0.461626678677827 0.241230029856681 0.911174578058507 -0.0500583242307654 1.11090265347156 -0.728266393721045 1.19138971077535 0.965905365648796 1.7002878964081 0.631426614544559 -0.401690952538582 0.633601509584355 0.331664680148974 0.129153901223015 0.0597218104668119 -1.42480564794384 -0.525199999689164 -0.332528313254385 0.373712993731933 0.31447686440121 -0.706545211222876 -1.64547071979626 0.284904308238277 -0.415247858279017 -0.484816217432323 0.61199834066028 -1.08044229584599 -0.0485750555838118
-0.168374259900819 0.15232492804432 0.226009107010494 2.73101176768553 0.611845617211452 0.78130025410213 0.5840898016031 -0.818408966845209 0.459160992020818 -1.23387742566142 0.193076892083521 0.546296918662492 -0.372739831688474 -0.656689489816482 0.25428222830747 -0.00206459477119739 -0.115898328617305 0.656678948298971 0.217138291469292 -2.01599400459525 -0.440999500009227 0.893721424601668 -1.34971841870787 -0.570956099224232 -1.63363953760554 1.21142090803927 -1.44554646931342 -1.74076320989017 0.825516006529572 0.147198665211427 0.206359718368652 -0.0433654890515575 -0.620780196078091 -0.785287004603025 0.0379677178651917 -0.0963713244226725 1.25301182260629 0.150904651392254 -0.056933450529871 0.412610422019622 -1.15102726866372 0.0522080224726062 0.126319261453096 0.923677846268137 0.670796611348993 -0.632571269080222 1.23268443441132 0.853817409946702 -0.319233145680461 -0.0451529190452517 -0.0319608526547951 -0.109266428551519 -0.108598199185349 0.373641774211184 -0.69148446802083 0.200752402382968 -1.03148928829286 0.937117766875211 -0.318428133696822 -0.331481617698527 0.39202540942107 1.4566276610997 -0.152184288774103 -0.584981202608298 0.626699129605829 -0.2653305099903 0.867581289384623 -2.12995063710894 1.23480662186355 -1.15796050186423 1.37044098525444 -2.10513127690305 0.811255647327867 -0.240707581964393 0.892967834654672
-0.159533012030686 0.17652233871701 0.255828488949311 2.90901763215968 0.658106938256533 0.657446936416227 0.686094924360327 -0.942989392129238 0.586997717775234 -1.50780801417 0.211957264167374 0.484937573438799 -0.362278275443735 -0.848228863004392 0.159451508102608 0.387381999512249 -0.131470978194127 0.408601045822604 0.662349770499908 -2.57366110688996 -2.08244490277711 0.541385342832582 -1.72405259064245 -0.238984943736869 -2.18006166892726 1.29775747912133 -0.979687242799542 -1.60391682909561 0.83448735215241 0.488043207341825 0.144199989144618 -0.215065726282415 0.568673732127854 -0.631473408597904 -0.0340339320620385 0.272449376743091 1.1139069859624 0.275557067527582 -0.23259858389605 1.09151371744531 -1.24673550592389 -0.266571580844667 -0.268289076868528 0.9871956314799 0.612433371090276 -1.24372011769517 1.22550051878217 1.10163485980747 -0.779073679915509 -0.0564760515139358 -0.117319119489738 -0.265523856848076 -0.100734484231791 0.571235835103568 -0.265130735377944 0.778646877011376 -0.898562038021012 1.21579383803535 -0.560051799244002 -0.592604005320186 0.521176996652436 1.32838444414562 -0.0805608479263785 -0.177938758716328 1.37800079597144 -0.662151281438468 0.814718407275374 -2.13705330592018 1.33252186121388 -1.35817091598099 1.58571857032782 -2.12520566867775 0.715378745787512 -0.167281541622165 0.776435215215381
0.538574614309701 -0.0827066895154711 -0.220555542914371 -0.704145087662586 0.36601614328728 -0.0286978673196437 -1.17718463026304 0.120413183434519 0.50121033404451 0.859165815977891 -1.66903949607099 0.0960383667354121 1.4163289823135 1.22918053683449 -0.364234369717617 -2.63930262221506 0.885614997635157 -1.77685402341791 -1.44461984421312 -1.15766353960262 -1.9907177595938 1.98465021638017 0.319764335318978 0.389068899424308 -0.0439506718285495 0.0863540545745254 0.346223544273389 0.73373692708926 0.0549868693327682 0.740835739247761 -0.890071488440781 1.32594395428657 -1.30887775165546 -1.81150861946222 -1.61807537266477 -2.11628831619338 -0.616732253353591 -0.15477390253942 1.0519089790436 2.13902894056799 -1.059609686141 -1.24784905012738 1.23256744927795 -0.387720356513357 -0.0546546829760575 3.39677750407961 0.398949386654986 0.532628427102543 0.192155152076704 -0.153417646322974 -0.815549644497701 0.787376796172178 -0.628508671075279 0.467921764403605 -1.39113398412994 0.412682412870922 1.90747910910926 -0.660575196015375 0.587703485228153 0.655382855865396 -0.0119641081554331 0.817303650167578 -0.879457208747215 -0.0203461572383479 0.0154016713049859 0.273146402449781 -0.494902649919754 0.404157410526141 1.3023006160587 -0.190045820133628 0.435502998512508 1.20076240539419 -1.18387926521353 -0.548460243744043 1.33882903111827
-0.271723554695882 0.110534495975123 -0.083996868414832 -1.2484414319895 0.153821823530984 -0.505679423249112 -1.25523428302998 0.439086343135942 0.577574629560492 0.256757170931075 0.806423775654752 0.987899599161536 1.9366839977102 -1.30603257036803 -0.678525857676731 0.400864343299553 -0.483758980358953 0.847779434404137 -2.87636386756113 -3.07511338161687 2.59437261769865 0.44915169258835 0.21725656215357 0.381805793858734 -2.47737977103141 -4.1668656973122 -0.075545656692633 -0.421204072783321 0.236160845484461 0.563834147149242 -0.515025121298707 0.701200147624069 -0.552804634509787 0.544110967884819 0.662381395052443 1.19369907444097 -0.387472759406924 2.26445885789735 0.233310264883183 0.770898347419897 0.174129157131667 0.95424593306047 -0.0151383904773762 -0.642932295243324 -0.332530113025668 0.910842391701796 0.691823082132121 -2.12081139853646 -0.522213407800966 0.14919486867389 -0.765603677417 0.736298001624241 1.85107273445498 -1.84367901691633 0.22798397032775 0.817482855965277 -0.71883430664989 -0.197417426196517 -1.98541151963266 -0.721671774631825 0.495365962469903 0.370078227071857 0.143689111210575 -0.253769293491961 -0.298216702194477 -1.73215876049877 1.17554838105707 3.34395961625242 0.443723839510548 0.268335613811689 -1.36028487590736 0.981386741110578 2.26854228182714 0.32955149155315 0.228520302169931
-0.424960452560057 -0.142909553135074 -0.0927303871181985 0.362791981589794 0.753974583830292 0.0351973556410756 0.476695649405735 0.455196352995679 -0.438070757912252 0.482414036990567 -0.690297133194754 0.789333661776609 -0.290075051132866 1.27790471632457 -1.17764382905026 0.404191863290691 -1.28947133213676 1.24183678560314 -1.26968310399598 0.523230021465389 -3.04733391187166 1.08203509343099 -1.41193548350276 -0.676036773993049 -2.06759010483181 -0.228163176125449 1.64427207212212 -0.342404943832315 -0.759971678853727 -0.676557936334421 0.265431297182119 -0.0452413649482769 2.0094366664826 -1.11316213776163 1.21035312944838 0.277555842091877 0.978202174381306 -0.120172528303032 -0.211593196147945 -0.692004087701103 0.533059857989974 -0.242845453137806 -0.911463055684072 0.254289170282417 0.590464077265307 -0.340727814107219 -0.210591751984332 0.15539173830968 -0.108316149314365 0.681273337094541 -0.217566122814158 -0.602374449392449 0.117436618843466 -0.413897772706968 0.854552230850324 -0.852490464291141 0.303439638456259 0.504359162458315 0.0363890613402661 -0.00324164518994479 1.49410378429459 0.76960045521504 -0.501776747778127 -0.0911908113411213 -0.195914874285822 0.219522474198222 0.0410604962590563 -1.10500326031774 -0.684132916552232 0.42814193396713 0.546241897083285 0.544998769347452 0.87997142911364 -0.106786600834433 0.571978369312686
0.127408637299368 0.657884280837871 0.373633803795504 0.302820260024899 1.21845955641489 0.212389723495538 -0.0289968864627199 -1.30225947842938 -1.43695873208393 -0.509712967803351 -0.765329340851512 0.333637743694948 -0.495609702923589 1.40019686097801 -0.211346627482244 -0.89303494041249 0.479477838698279 0.262912388717185 -0.73511580900183 -0.301651951352381 1.33666082094323 1.6544664908865 0.271693987024812 -0.4865686804411 0.652666743889938 -0.635793888116609 -1.78068470803759 0.848758767091993 -0.867893678257227 -0.76462331628841 -0.975712062256892 0.744685707131187 0.244096551289319 -1.71022134833652 -0.19488386245114 -0.640032863707236 -0.200752145272785 -0.238854845984163 0.283437751753232 -0.340449106668617 -0.844667886966897 -0.207530598143002 0.265571679342153 0.123430885654885 0.604734977984524 0.700862047733144 0.450992344389969 0.241864320678667 0.912846565579939 -0.156436634094257 -0.0794354766544568 -0.322326438294692 0.44362870874276 0.0302027332219872 0.874413221172949 0.36082611712895 0.179076985497411 -0.238985972177601 -1.35334418651154 0.217978270437847 -0.973616357153526 -0.10800684576396 0.325895384747866 -0.512393341463343 0.513666551090612 -0.411398404615958 -0.042091508093739 0.684057326158367 0.0268407604662989 0.388711516269642 0.195242016936355 0.445106835186049 1.25049214281081 -0.775119839518065 0.900109584213769
-0.129409725855312 -0.670609692245797 0.594820037989295 -0.391925650669983 1.07089245231092 1.59503521492672 1.65134980124559 -0.138862381741124 1.12709956657322 -0.00506198528709018 -2.15268637639006 -0.69369253027426 -0.305332997845436 2.31674349920456 -0.424406637225417 -0.917689750101115 -0.31383743137556 0.91852484397619 -2.94815854379087 -0.727215584402255 -1.2410639123924 -1.19545436566176 0.584342798023381 0.576171836400884 0.0120486974057101 0.0415888576855583 -0.694038857691048 0.746859316620066 -0.145769389702948 0.558393695672463 0.125376952631622 -0.239558299445433 -1.16256817345758 -0.0345427531146163 0.775497277267021 1.259831670216 0.196105650041766 -2.16408329948133 1.9284212477523 0.818413337718323 0.564849218152566 -1.99449033731208 -0.947258192501117 0.281767564003083 0.236493546061538 1.94111246350586 0.285786967497246 1.02643630186218 -0.0769525636151725 -0.631602992130243 0.782691220193311 1.07566904529465 -0.127264912706952 -3.05024362781508 1.78064871261194 1.62287279157333 0.211400363510536 0.198379018281732 -1.21696137537731 -0.153107314331836 -0.911753075970736 -1.30834193403365 -0.232716597470145 1.09587867702571 0.376002559913442 -1.33985721474093 -1.46737692363945 2.20441128882841 0.394115972320771 -0.0357200606435469 0.20581130234786 -0.667646497384272 -0.275205855017314 -0.493773679105268 0.444396696860016
0.282152200837169 0.122969115765835 -0.0550259500806165 0.445634939502368 -0.317006828604022 0.0804289504023904 -0.749178707582827 0.229143023033672 0.761837270343118 -0.817536849103751 0.949901285184543 -0.0396420193782723 0.30674581830219 0.0342172516226691 0.0105176062646789 0.118249858352968 -0.996500191900182 -0.465873624684133 2.76889669607173 -1.37807330104311 -1.03928255505621 0.778679272894461 -1.13368621524676 -1.53956189312731 -1.87505957188762 -0.804166348246145 -0.285317998523066 -0.75232573622535 -0.0732851439618276 -0.18702246148923 0.352539198813824 0.321087167211607 0.860432597850579 0.720648476102638 1.05199074008186 1.0754569293935 0.293649396899888 -0.0295764128156812 -0.407642281949404 0.681381066261307 1.17436027490045 0.171144365014752 0.184767090962089 0.311014618674069 0.802282244823563 -1.16943378667991 0.939898927727022 0.119868624066474 -0.602653671051418 0.475064542403434 0.826104017518579 0.732834213236001 -0.109236089549899 -0.127791731472355 -0.394039353486174 -1.72675841821058 -0.0613871131234801 -0.443930298987668 -1.08851684114978 0.555550314156315 0.133363309142572 0.0364721079294438 0.286756787108324 -0.902543389208059 0.149785450764729 0.264190740548118 0.536665828309531 -0.0195799688923743 -0.150528756304397 0.256312370314117 -0.0964410012823231 -0.369792577658307 -0.885818371790078 1.9769214842728 -1.0857014846436
0.350523197867254 0.15597434998484 -0.162045235630857 -0.142683810394213 -1.74829088183427 0.384044966444333 1.45727172210864 0.245106480088978 0.823686667576014 0.167315480166349 0.690437515354788 -0.490526120381109 0.494175542321629 -1.40454150885393 0.95234203215378 -0.357366185393458 -0.789330062234044 0.275871256171468 -3.28078635868616 2.90507793282231 -0.622172961940554 -0.315069760483698 1.5928988864144 1.88014495420138 0.204911673816799 0.380214024714465 0.834062606129743 -0.31527236330807 -0.153711266152203 -0.291819286615781 0.672326416939108 -1.35581141582964 -1.08333272852567 -0.855870691869838 -0.548229615909702 -1.58712984812348 -0.363123396615955 0.0919037778791699 0.925114835082113 -1.90022423106955 0.378918189391073 -0.861265377734005 0.104886299470308 -0.913432262577297 0.564766171563388 1.14517672644472 0.0878396372131279 0.652626634701356 0.320564976429502 0.833044706914404 -0.221176978227196 0.854810369474269 -0.421564541260185 0.713873108554619 0.93709205585689 1.62143914519174 0.638116107291385 -0.121450880133965 0.376725039528269 0.120997080660595 0.16460168218254 -0.102439638966857 -1.29620273384345 -0.373240168105005 -0.244501242717695 0.047703452062721 0.352379790500232 -0.146770062536011 -1.41978608583698 0.178504144009213 -0.392473809580592 -0.42325838314719 0.620547511362283 -1.13848363415532 -0.354634132586641
-0.276029378934144 -0.951059566559915 0.373875230257541 -0.31015921309452 0.507486907837096 -0.0363687496357924 0.191158850116755 0.0210187574776322 -1.49401945215449 0.079227731626421 3.25280762854896 -1.11021282685 -1.64520795318901 0.573932920925468 -0.784423114387431 3.08039802432262 0.385277295552471 -1.04276691225911 2.82625952060757 -0.484903377784432 3.63568120099858 0.432618993587412 1.1385376272938 -0.770773391870856 0.682548860713459 -1.24404047698345 2.6797874487739 -0.857580731698385 0.270098361227795 -0.328430234044159 -1.344763391257 1.02816253963227 -1.24621485780288 0.446053257770455 0.243077623633247 0.268187004125792 0.199722418989018 -0.108260613514791 -2.42602818257908 -2.16565732802296 -0.189349051537122 -0.0813015823642141 1.19368776159291 0.706452908667103 0.553722260753673 -1.80050327517999 1.06403352395336 0.108113546489993 -0.776720607518747 0.116079077076103 0.516819750377531 0.710511135798931 -0.439186873217578 1.41071009636957 -0.392928380384512 -3.45019985794753 -0.837192151279807 0.510760177579576 -0.159363833530132 0.998223601458256 0.422768845358353 0.154452257700221 0.852532630361188 -0.48704561983096 -0.690466568805491 0.272737083038106 0.80271496126191 -2.68881638707778 -0.267166790918805 -0.863999487422288 -0.372586594019279 -0.827888619300258 -0.657835944123427 1.3168152572316 -0.417602987557245
0.139578690711554 0.545365665578896 0.0207475062343428 -0.717760100304428 0.611845360101269 -0.989944910668993 0.58033316471618 -0.387283012091713 -2.55996459032004 0.116667088065111 1.41639917339352 -0.893471770613768 -0.712925914639664 -0.47024629757003 0.643188634095987 0.963242475481263 1.32261746273616 -0.896241104397152 1.84013295326947 -1.46408565618414 2.86477616871392 -1.17841130294715 -0.692810899456024 -0.65919425722134 -0.294784795468955 0.077036638645083 -0.649603533167142 1.45249487201474 -0.157167084124764 0.950253269025361 -1.42434027851222 0.927904223459786 -0.115640961323909 -0.213075950574532 0.92462246908126 -0.00130354862888801 -0.768717795956071 -0.361173215876287 -0.859216723794167 2.28414064242228 -0.178082483308744 -0.521490413965772 0.861429156920712 -0.546857933082262 0.562528284528706 0.184001159726299 0.934588059782582 -0.0385958380427801 -0.300362286673387 -0.422254367881744 -0.196713972735247 -0.542400413835905 -0.847549577900344 0.808192950825438 -0.0586352628325554 -0.37497643317224 -0.117477242252414 -0.496439140374633 1.03069636048783 0.135628192746492 -1.07536719793956 -0.146642278774955 0.597396024914903 -0.164908671741296 -0.23463695342856 0.287630961731247 -0.664227703278093 -1.62983996331803 0.373747703606667 -0.326116499505429 -0.00467040647805735 0.307309918044158 0.516452854146087 0.127201406491698 0.947459509774572
-0.0562168844492574 0.0299427948267592 0.0520792102708166 0.608069697060792 0.110533981754757 0.175868250410917 0.0677091954184954 -0.048812368282917 -0.0137268555715389 -0.103800523166601 0.104195958628382 0.338960695817999 -0.214434006562261 -0.163692283464517 0.135151510466816 -0.776161649980443 0.28505420347509 0.660431985643325 -0.870735260002093 0.632619862904849 1.98873158342849 1.09425682599 0.6689693292769 -0.924720942281431 1.21675363034928 0.0989321418474702 -1.20284782609022 -0.50000191618341 0.26253983606171 -0.0117231959137629 0.13143678253976 0.123961303962853 -1.40226634084268 -0.505749100108762 0.0288377352593113 -0.579589087845963 0.63288725749539 -0.0260691728064778 0.0879329682096341 -1.82200462847151 -0.277555584981694 0.494938645345404 0.561031131931858 0.293334179815269 0.277078131371468 1.29444332885972 0.368312651443735 -0.0540381327567136 0.395844781192693 -0.00704096236727776 0.109774478273547 0.168089896038186 0.131393845139164 -0.0610482419020059 -1.02144065100236 -1.27486310285716 -0.892469555119606 -0.0319287138818935 0.30396877121331 0.201375123246709 -0.0304554725320852 0.78919610782859 -0.144977747448836 -1.13223508537271 -1.4268615009688 0.792304055723264 0.482314278239481 -0.647374387878689 0.427998466484898 0.0797545503918237 -0.263858554191408 -0.869865713362468 0.332572536205898 -0.0956650427493874 0.414647506001216
-0.260287807966951 0.110843285305162 -0.134878716562427 -1.61365899104772 0.261287195249098 -0.516868087091975 -1.52215039152015 0.271792717335166 0.523923961849879 0.513813618115409 0.874388024374994 1.04499142956427 1.33800859252363 -1.40273222449467 -0.453436176681405 1.64422090719566 -0.46176063308328 0.109287254476359 -2.6407324119439 -3.61866179242082 3.76809037425125 0.300671076003425 0.131855100807847 -0.00661107414094625 -2.49535665793145 -2.96979410859803 1.75583706571156 -0.825264038550024 0.0557972806302544 0.173499494292979 -0.283450864372576 0.488255580353158 -1.66511830866681 0.505906451540888 0.564046263050393 1.16573268559256 -0.135218359114451 1.39852153102419 -1.72682115309528 1.14538961367642 0.114612520591059 0.898490561390079 0.423354285245528 -0.721038769360755 -0.360419625929291 0.931251540935032 0.878004536212063 -2.0067303246941 -1.03258277790206 0.360353034391839 -0.506713263295809 0.652579069317462 1.8888118813673 -1.10712853309218 0.313038075815952 0.494820631771309 -0.633165964933993 -0.0327707497319149 -1.46068460268061 -0.646891020734249 0.508572941250986 0.198357935246709 0.215851969222679 -0.525871057267349 -0.630488933706383 -1.32429510668162 1.01956888886857 3.33680732517581 0.317850664225326 0.234834414049267 -1.0736679567387 1.12286624740662 1.83613463281033 0.91027366397653 -0.00734409527328544
0.541298953811022 -0.175461502101075 -0.420371807120262 -1.17050927857629 0.156242515905931 -0.343087057148378 -1.01354736837773 -0.252416379707896 0.00701653689987256 1.37242253343646 -1.72157327714573 0.692116444851167 1.60602076172484 2.24850285703736 -0.783086655655092 -1.74208089957913 1.11276207431655 -1.18845479803398 -1.86647671975161 -2.07282949614532 -0.268672171041514 1.40846089648683 0.482855752285327 0.052697560261443 1.01632030170368 -0.0228560668468696 0.115396192429491 0.498397805750347 0.175233445368565 0.907715674763748 -1.36285674907004 2.07758037811072 -1.07652316532328 -1.34487883372926 -1.28612889975499 -1.51639600850967 -0.554055218440933 -0.45438414192691 0.60905314351158 1.60859520598935 -0.674738881788192 -0.423829424864105 1.16662280104685 -0.395614924688901 -0.361204326208456 3.80478616804009 0.888933004549516 -0.466487860911828 -0.250735393330052 -0.230982903504742 -0.518968677288822 1.02346436525442 -0.486059345168156 -0.0792452151188795 -1.66952594853763 -0.060337332245423 1.05805905462605 -0.801234520826972 -0.642574140758109 0.785916924551896 0.000864147325777635 0.855678630562978 -0.756959375947208 -0.0989393409326002 -0.0707122423584188 0.227735601890767 -0.770347103187089 0.345648388793542 1.43710039979488 -0.301438549900315 0.418983669241097 0.784848117520281 -1.10062750210965 -0.215750924920676 1.52563063496012
0.386917915631551 0.142808765943254 -0.525315185051243 -0.348989278514207 -0.529054081335521 0.510770461986905 -0.810352419254241 0.206954414222423 0.90495713960806 -0.0851181259238223 -1.13644500751263 -0.542072341242126 -2.11103452670962 -0.141381547316241 -0.600492917071699 -0.359785849327672 -1.318245818291 -1.10686988024787 0.797874862062932 -2.15796947643471 -1.6060428732006 -2.25320077430502 1.61680884790226 1.24484060387361 0.395445746188347 0.0680192702994498 0.118666633959955 0.930758917823996 0.81775924941223 1.28483537842325 1.20022298822981 -0.756411474146782 -3.82884679609531 -1.21287820855771 0.16129884476899 -0.647553336566205 -0.564348881736034 -0.0896579204288076 2.25657251724767 -0.439155248665043 -0.524516343712001 -1.00913355786252 1.8049600230958 -0.174287537004526 0.458122523990822 0.77036715778138 0.811659567425694 1.3062490571423 1.45672279186748 -1.13502858751331 -0.313721731793115 0.293918334151529 0.991179296658597 0.244868653169506 -1.55575443535586 2.36967271574107 0.649792509151804 1.09377577283721 -1.64620888313226 -0.49129847937148 0.403964320778548 -0.311532695693242 -0.32462320356133 0.484629298329127 -0.253111091422937 -0.318599883299208 -0.476738072585965 1.81009348501382 -0.49152576477344 0.00532475189433348 1.639473881883 0.54260404510101 0.192472426042788 -0.461877103996276 2.28381591226088