10.585130 0.000000 0.000000 0.000000 6.263011 0.000000 0.000000 0.000000 5.119095
10.683001 0.000000 0.000000 0.000000 6.474754 0.000000 0.000000 0.000000 5.037683
10.640845 0.000000 0.000000 0.000000 6.371781 0.000000 0.000000 0.000000 5.094283
10.784801 0.000000 0.000000 0.000000 6.297819 0.000000 0.000000 0.000000 5.020842
10.895363 0.000000 0.000000 0.000000 6.207485 0.000000 0.000000 0.000000 5.157572
10.539910 0.000000 0.000000 0.000000 6.320080 0.000000 0.000000 0.000000 5.068299
10.729861 0.000000 0.000000 0.000000 6.377896 0.000000 0.000000 0.000000 5.113377
10.523458 0.000000 0.000000 0.000000 6.503810 0.000000 0.000000 0.000000 5.184748
10.361191 0.000000 0.000000 0.000000 6.403608 0.000000 0.000000 0.000000 5.166225
10.377202 0.000000 0.000000 0.000000 6.906812 0.000000 0.000000 0.000000 4.929997
8.935903 0.000000 0.000000 0.000000 9.011571 0.000000 0.000000 0.000000 5.292170
8.908742 0.000000 0.000000 0.000000 8.655565 0.000000 0.000000 0.000000 5.325572
8.901870 0.000000 0.000000 0.000000 8.780912 0.000000 0.000000 0.000000 5.504172
8.915984 0.000000 0.000000 0.000000 8.678574 0.000000 0.000000 0.000000 5.506497
8.739903 0.000000 0.000000 0.000000 8.716419 0.000000 0.000000 0.000000 5.358611
9.375165 0.000000 0.000000 0.000000 8.815905 0.000000 0.000000 0.000000 5.364629
10.571714 0.000000 0.000000 0.000000 6.278261 0.000000 0.000000 0.000000 5.120643
8.760273 0.000000 0.000000 0.000000 9.535122 0.000000 0.000000 0.000000 5.334994
8.668219 0.000000 0.000000 0.000000 8.771417 0.000000 0.000000 0.000000 5.447188
8.967962 0.000000 0.000000 0.000000 9.223775 0.000000 0.000000 0.000000 5.317108
8.799705 0.000000 0.000000 0.000000 9.277145 0.000000 0.000000 0.000000 5.284198
10.628249 0.000000 0.000000 0.000000 6.272251 0.000000 0.000000 0.000000 5.174127
10.575780 0.000000 0.000000 0.000000 6.214589 0.000000 0.000000 0.000000 5.123406
10.495339 0.000000 0.000000 0.000000 6.248867 0.000000 0.000000 0.000000 5.188100
10.529227 0.000000 0.000000 0.000000 6.239575 0.000000 0.000000 0.000000 5.053737
10.405662 0.000000 0.000000 0.000000 6.356317 0.000000 0.000000 0.000000 5.141995
10.909713 0.000000 0.000000 0.000000 6.231549 0.000000 0.000000 0.000000 4.997677
10.554770 0.000000 0.000000 0.000000 6.324634 0.000000 0.000000 0.000000 5.062822
10.732381 0.000000 0.000000 0.000000 6.347928 0.000000 0.000000 0.000000 5.109462
10.773593 0.000000 0.000000 0.000000 6.270403 0.000000 0.000000 0.000000 5.042106
10.416819 0.000000 0.000000 0.000000 6.511378 0.000000 0.000000 0.000000 5.092966
10.678827 0.000000 0.000000 0.000000 6.249406 0.000000 0.000000 0.000000 5.249119
10.364276 0.000000 0.000000 0.000000 6.386788 0.000000 0.000000 0.000000 5.125649
10.681450 0.000000 0.000000 0.000000 6.580240 0.000000 0.000000 0.000000 5.042784
10.433043 0.000000 0.000000 0.000000 6.393904 0.000000 0.000000 0.000000 5.138135
10.921162 0.000000 0.000000 0.000000 6.258482 0.000000 0.000000 0.000000 5.168346
11.028361 0.000000 0.000000 0.000000 6.194214 0.000000 0.000000 0.000000 5.150725
11.051166 0.000000 0.000000 0.000000 6.297118 0.000000 0.000000 0.000000 5.100411
10.602552 0.000000 0.000000 0.000000 6.278159 0.000000 0.000000 0.000000 5.168269
9.264138 0.000000 0.000000 0.000000 8.541418 0.000000 0.000000 0.000000 5.104693
9.455815 0.000000 0.000000 0.000000 8.435045 0.000000 0.000000 0.000000 5.028686
10.531815 0.000000 0.000000 0.000000 6.396510 0.000000 0.000000 0.000000 5.139208
10.548776 0.000000 0.000000 0.000000 6.282473 0.000000 0.000000 0.000000 5.051177
10.515995 0.000000 0.000000 0.000000 6.312841 0.000000 0.000000 0.000000 5.122169
10.628527 0.000000 0.000000 0.000000 6.364639 0.000000 0.000000 0.000000 5.196471
10.595722 0.000000 0.000000 0.000000 6.394882 0.000000 0.000000 0.000000 5.044784
10.454456 0.000000 0.000000 0.000000 6.468747 0.000000 0.000000 0.000000 5.117871
10.474269 0.000000 0.000000 0.000000 6.374350 0.000000 0.000000 0.000000 5.059599
10.543495 0.000000 0.000000 0.000000 6.518671 0.000000 0.000000 0.000000 5.192386
10.586978 0.000000 0.000000 0.000000 6.502826 0.000000 0.000000 0.000000 5.054276
10.462616 0.000000 0.000000 0.000000 6.303338 0.000000 0.000000 0.000000 5.133845
10.630268 0.000000 0.000000 0.000000 6.270176 0.000000 0.000000 0.000000 5.153871
10.314346 0.000000 0.000000 0.000000 6.519112 0.000000 0.000000 0.000000 4.984449
10.680681 0.000000 0.000000 0.000000 6.384766 0.000000 0.000000 0.000000 4.985359
10.865709 0.000000 0.000000 0.000000 6.348676 0.000000 0.000000 0.000000 5.071172
10.615387 0.000000 0.000000 0.000000 6.348866 0.000000 0.000000 0.000000 5.062872
10.599405 0.000000 0.000000 0.000000 6.343400 0.000000 0.000000 0.000000 5.157258
10.617326 0.000000 0.000000 0.000000 6.417919 0.000000 0.000000 0.000000 5.083363
10.813585 0.000000 0.000000 0.000000 6.301550 0.000000 0.000000 0.000000 5.191907
9.142222 0.000000 0.000000 0.000000 8.510256 0.000000 0.000000 0.000000 5.320705
9.457902 0.000000 0.000000 0.000000 8.695435 0.000000 0.000000 0.000000 5.150103
8.721356 0.000000 0.000000 0.000000 8.605595 0.000000 0.000000 0.000000 5.268929
10.434816 0.000000 0.000000 0.000000 6.325472 0.000000 0.000000 0.000000 5.088271
9.123167 0.000000 0.000000 0.000000 8.343545 0.000000 0.000000 0.000000 5.363275
10.417130 0.000000 0.000000 0.000000 6.423757 0.000000 0.000000 0.000000 5.062047
10.298598 0.000000 0.000000 0.000000 6.124774 0.000000 0.000000 0.000000 4.835247
10.140503 0.000000 0.000000 0.000000 6.223242 0.000000 0.000000 0.000000 4.954280
10.365758 0.000000 0.000000 0.000000 6.328473 0.000000 0.000000 0.000000 4.760139
10.244971 0.000000 0.000000 0.000000 6.112924 0.000000 0.000000 0.000000 4.935745
10.092490 0.000000 0.000000 0.000000 6.322609 0.000000 0.000000 0.000000 4.932662
10.210422 0.000000 0.000000 0.000000 6.249234 0.000000 0.000000 0.000000 4.850914
10.030144 0.000000 0.000000 0.000000 6.282039 0.000000 0.000000 0.000000 4.886487
10.259068 0.000000 0.000000 0.000000 6.222345 0.000000 0.000000 0.000000 4.935971
10.325058 0.000000 0.000000 0.000000 6.122567 0.000000 0.000000 0.000000 4.972662
10.037503 0.000000 0.000000 0.000000 6.297670 0.000000 0.000000 0.000000 4.885453
9.910693 0.000000 0.000000 0.000000 6.344560 0.000000 0.000000 0.000000 4.954107
10.072816 0.000000 0.000000 0.000000 6.294595 0.000000 0.000000 0.000000 4.992430
10.330560 0.000000 0.000000 0.000000 6.139141 0.000000 0.000000 0.000000 5.065272
10.344464 0.000000 0.000000 0.000000 6.283356 0.000000 0.000000 0.000000 4.870710
10.181345 0.000000 0.000000 0.000000 6.198352 0.000000 0.000000 0.000000 4.829296
10.480681 0.000000 0.000000 0.000000 6.289522 0.000000 0.000000 0.000000 4.887108
10.291169 0.000000 0.000000 0.000000 6.349267 0.000000 0.000000 0.000000 4.884200
9.812433 0.000000 0.000000 0.000000 6.337951 0.000000 0.000000 0.000000 5.046036
10.530315 0.000000 0.000000 0.000000 6.088844 0.000000 0.000000 0.000000 4.988545
9.863289 0.000000 0.000000 0.000000 6.388437 0.000000 0.000000 0.000000 5.151853
10.172644 0.000000 0.000000 0.000000 6.180234 0.000000 0.000000 0.000000 4.952513
10.461230 0.000000 0.000000 0.000000 6.257776 0.000000 0.000000 0.000000 4.911807
10.375761 0.000000 0.000000 0.000000 6.223180 0.000000 0.000000 0.000000 4.857666