10.3292 6.12009 5.03723 5.03409 0.108651 2.47568 0.26309 3.05101 -0.188527 5.10594 3.28271 2.4148 3.01719 4.5744 4.85229 2.17495 1.78832 2.19593 7.31892 1.43384 0.137586 8.32168 4.53397 2.78443 1.07581 4.8064 2.11813 4.04775 1.45171 4.78557 9.34497 1.50165 2.74102 6.3183 4.62614 0.270149 1.11966 4.71676 3.64952 4.04901 1.67333 1.19826 9.21198 1.53272 1.24169 6.47331 4.75089 3.87422 4.79835 4.76719 0.687622 0.323643 1.51342 3.15131 5.54993 1.46943 4.30482 10.2193 4.70554 1.53989 1.79712 6.07154 1.44173 3.31587 0.248113 4.20348 8.78016 2.77621 3.57917 7.0198 3.35337 0.850564 8.60981 0.310066 3.37721 6.98145 5.90441 0.965128 1.8068 3.62749 1.41206 3.29035 2.62272 4.01373
0.104933 0.0233684 4.92649 5.28739 6.28825 2.56173 10.3045 3.1293 4.95909 5.32804 2.91948 2.30528 2.85719 4.66627 4.90536 2.14625 1.36107 2.34724 7.25545 1.44643 0.000253582 8.48365 4.95777 2.55471 0.993444 4.70267 2.21551 4.06616 1.5029 4.73997 9.3588 1.49697 2.84556 6.39466 4.75041 0.22444 1.00315 4.77968 3.81962 4.03138 1.39669 1.28703 9.11677 1.36743 1.26074 6.4297 4.67508 3.70244 4.89136 4.78393 0.779981 0.244728 1.64701 3.16451 5.52888 1.48494 4.17635 10.187 4.59005 1.72347 1.5229 6.05962 1.57566 3.37196 0.264343 3.96898 8.58773 2.67526 3.44225 7.20799 3.55201 0.928372 8.92323 0.177139 3.52997 7.02388 6.03765 0.848871 1.77659 3.55633 1.47955 3.34304 2.80412 4.19117
10.4833 6.25827 4.97824 4.79897 6.01083 2.35488 0.0910048 3.17727 5.01681 5.69805 2.80742 2.38587 3.00628 4.60691 5.01199 2.16718 1.69662 2.45053 7.46973 1.55998 4.96891 8.35008 4.91799 2.47216 1.07765 4.89352 2.2783 3.95177 1.39239 4.83994 9.34939 1.62539 2.65306 6.34956 4.49017 0.161518 1.01666 4.7278 3.76459 3.85131 1.51338 1.30288 9.21001 1.38342 1.0824 6.20241 4.40658 3.77192 4.98639 4.34921 0.868552 0.145176 1.70319 3.21831 5.37808 1.34217 4.16713 10.2697 4.9093 1.62231 1.65064 6.21151 1.86484 3.38327 -0.0004513 4.50625 8.62385 2.9258 3.1981 7.35882 3.3896 0.678209 8.40256 0.478991 3.34392 6.89641 5.78053 0.885751 1.92771 3.708 1.63914 3.10933 2.58776 4.24343
10.3162 5.90424 4.96784 5.22062 -0.141563 2.47096 0.355893 3.07747 -0.137148 5.33512 3.05431 2.4543 3.08751 4.90288 -0.121154 1.95177 1.45018 2.3289 7.50295 1.45921 4.93625 8.45286 4.76066 2.51623 0.95969 4.71235 2.38454 3.86148 1.61216 4.84989 9.46359 1.62987 2.72778 6.39917 4.63584 0.131303 1.05227 4.7133 3.9147 3.83156 1.52983 1.38126 9.39853 1.6144 1.21442 6.40836 4.5929 3.61967 4.92725 4.81677 0.785692 0.0529867 1.302 3.40514 5.31095 1.57114 4.30975 10.3162 4.75729 1.75271 1.75687 5.85414 1.64224 3.18999 0.327186 4.24683 8.86391 2.86989 3.44837 6.88794 3.30683 0.754172 8.41564 0.432442 3.15038 7.1267 5.89144 0.646892 1.60287 3.36195 1.75357 3.12508 2.81991 4.17677
10.325 6.00527 -0.092119 5.52389 0.189309 2.5682 0.192889 2.95173 -0.0382314 5.09217 3.17925 2.28442 2.84408 4.69946 4.98351 2.21996 1.37042 2.26129 7.63296 1.78714 0.0720718 8.26809 4.70911 2.532 0.903647 4.46347 2.22841 3.98079 1.6198 4.62018 9.49365 1.51489 2.90177 6.31675 4.83069 0.110484 0.823562 4.55295 3.75467 3.89176 1.40877 1.03432 9.43803 1.70177 1.32104 6.53773 4.65465 3.76591 4.79449 4.79628 0.59552 0.0936094 1.31565 3.38073 5.42464 1.7039 4.1603 10.3319 4.44143 1.68007 1.74602 5.72819 1.6406 3.20896 0.382246 4.00633 8.7761 2.75521 3.62103 6.97699 3.55288 0.853766 8.64427 0.324278 3.37301 7.04765 6.05698 0.751769 1.72974 3.2373 1.6374 3.02021 2.86564 4.24004
0.147118 0.0714346 0.0452857 4.75714 6.11924 2.73989 10.352 3.16959 4.91028 5.12293 2.98854 2.57807 3.01286 4.68837 5.0311 2.19521 1.43463 2.43446 7.4746 1.34994 4.86416 8.20174 4.90511 2.50076 1.13256 4.72846 2.20869 3.96657 1.55083 4.86867 9.33782 1.66987 2.68976 6.41058 4.54737 0.110629 1.10487 4.78775 3.78053 3.98928 1.62273 1.32046 9.31439 1.48638 1.1395 6.41151 4.74517 3.62214 4.93102 4.69474 0.712585 0.27648 1.74097 3.26803 5.44496 1.37435 4.34903 10.2143 4.72293 1.73242 1.90435 5.94798 1.60515 3.1121 0.362149 4.34549 8.55785 2.88359 3.20976 7.06545 3.25561 0.733218 8.66514 0.444355 3.41619 7.35787 5.69375 0.542006 1.88984 3.42538 1.62071 3.31672 2.7824 4.12344
-0.138605 0.262373 0.0955999 5.21627 6.35789 2.31853 0.0105277 3.2816 -0.0357789 5.36238 3.18094 2.4208 3.0125 4.28319 5.0847 2.14654 1.52463 2.26406 7.42292 1.43953 -0.0668646 8.2929 4.85201 2.55114 1.01114 4.84435 2.31867 4.01391 1.34624 4.61433 9.36805 1.65829 2.80082 6.32064 4.6596 0.201004 0.992244 4.65279 3.82028 4.0091 1.36913 1.07774 9.24753 1.63001 1.24255 6.42361 4.75592 3.77672 4.81591 4.69963 0.743761 0.126804 1.4875 3.16288 5.52871 1.40217 4.12401 10.303 4.98567 1.69279 1.66482 6.20875 1.75412 3.44184 0.000695756 4.13811 8.65426 2.90971 3.45224 6.90551 3.33023 0.848717 8.51993 0.419682 3.53258 7.03791 5.87076 0.865015 1.81078 3.61233 1.57558 3.21523 2.53019 3.87447
10.3181 6.34346 -0.106028 5.05067 -0.10241 2.28352 9.97275 2.96025 -0.0309411 4.78714 3.40993 2.55205 2.98329 4.70332 4.90459 2.17941 1.57227 2.46879 7.42809 1.49439 4.92244 8.26803 4.51309 2.78255 1.20115 4.86904 2.34693 4.02802 1.51486 4.75788 9.41404 1.39526 2.67916 6.4506 4.67719 0.113374 1.35145 4.94493 3.86829 3.98976 1.62861 1.14799 9.2362 1.33392 1.12248 6.36959 4.80664 3.72767 4.97803 4.49724 0.791753 0.319534 1.68066 3.21788 5.6186 1.51201 4.29107 10.3242 4.47109 1.85042 1.49687 6.23485 1.53051 3.29269 0.276111 4.21195 8.49986 2.57544 3.32134 7.27994 3.34104 0.432079 8.88939 0.17933 3.49344 7.18789 5.94837 0.674165 2.1596 3.79545 1.72862 3.28726 2.77679 4.17496
0.319724 0.0205414 -0.0098631 5.08121 -0.0649587 2.3375 10.1543 3.08834 -0.0347375 5.15091 3.20018 2.47496 3.12162 4.78422 4.89076 2.17483 1.43345 2.29338 7.53352 1.52526 4.98081 8.13721 4.76921 2.56226 1.21716 4.63285 2.42917 4.18198 1.61677 4.7853 9.10362 1.37749 2.63654 6.28625 4.68888 0.14415 1.34821 4.66647 3.97071 4.06711 1.62317 1.16576 8.98053 1.41243 1.11541 6.30517 4.61481 3.79969 4.779 4.82099 0.717683 0.267317 1.43257 3.09553 5.66772 1.53663 4.34501 10.0291 4.86346 2.08527 2.09338 5.7387 1.65959 3.50187 0.289288 4.15825 8.42975 2.66083 3.28512 6.94751 3.54272 0.917311 8.36865 0.151172 3.34961 7.01312 5.91102 0.77283 1.54916 3.31636 1.85445 3.56311 2.84161 4.19116
9.75655 6.25593 4.97753 5.92904 -0.0317687 2.70306 0.484096 2.80624 -0.0506825 5.11165 3.29071 2.5879 2.96737 5.22161 -0.0133678 2.20925 1.58043 2.38956 7.47509 1.76537 5.04329 8.03032 4.58064 2.51227 1.13141 4.81078 2.22474 4.19016 1.24342 4.7726 9.31003 1.30522 2.67354 6.1676 4.71897 0.192363 1.07021 4.83914 3.75825 3.99073 1.37758 1.31754 9.3763 1.43481 1.07729 6.38508 4.59673 3.61408 4.67697 4.34381 0.404182 0.360438 1.39491 3.2402 5.68621 1.71078 4.42265 9.98884 4.85208 1.67478 1.92644 5.98353 1.54351 4.06777 -0.208797 4.07267 8.50011 2.56744 3.39399 6.92319 3.59171 1.04597 8.55206 0.0121095 3.09834 6.74483 6.03909 0.809411 1.69907 3.49847 1.53515 3.11153 2.0985 4.02888
9.3999 7.51447 4.20261 6.18747 -1.21005 2.52027 1.07163 3.01481 4.83838 4.88803 3.2615 1.57565 3.64419 5.87216 4.82174 2.43462 1.27365 2.3511 6.64873 0.637811 4.84844 7.95029 4.84999 2.5343 2.33116 4.80794 2.29761 3.52924 -0.0647621 4.90084 8.23441 1.59878 2.32548 6.68342 5.99253 -0.0606122 3.43286 5.59746 3.05344 3.74175 0.755653 0.930428 7.03474 1.61112 1.32044 6.76572 5.99831 3.53959 5.32824 5.31532 0.274325 9.63874 1.58409 1.58814 4.86159 -0.100929 4.10544 0.970487 5.44515 2.70186 2.52677 4.58875 0.733463 3.01455 -1.49645 0.0419803 8.16675 2.95123 3.20805 7.75193 5.14853 0.555822 8.11525 0.404407 3.37148 6.69164 7.42298 0.340281 2.4156 3.32565 2.8198 2.2764 0.507622 4.07274
0.863176 -1.18063 4.48498 5.42126 7.24577 2.20429 0.837848 3.20726 5.12077 5.03331 3.34734 1.82048 3.77755 5.89033 4.98363 2.18863 1.58842 2.07481 6.72147 0.191739 -0.199987 8.17434 4.70389 2.31579 2.3712 5.04253 2.34127 3.62796 0.496723 4.80505 7.95498 1.31342 2.47622 6.79972 5.63943 5.10421 3.48401 5.9776 2.97003 3.40352 1.68385 0.553237 6.71633 0.893068 1.55035 6.74663 5.65018 3.57037 5.36168 5.14875 0.380572 9.22357 1.25703 1.59344 5.01788 0.455212 4.059 1.00778 5.41893 2.82759 2.27095 5.24393 0.76581 3.42517 -0.906257 0.228504 7.7829 2.75199 2.95512 7.68879 4.4167 0.411829 8.18449 0.302853 3.64338 7.33903 6.9356 0.373608 2.55446 3.60877 2.80044 2.62385 0.764345 3.66288
0.888313 -1.02374 3.58725 5.13217 -1.10242 2.24703 9.74297 3.52594 4.6574 5.45877 2.68729 0.221314 3.51733 6.10651 4.95991 2.53284 1.6434 2.04895 7.01331 0.0428662 5.01726 7.95686 4.74052 2.23103 2.25274 4.84394 2.17287 3.60358 0.342088 4.94367 8.04682 1.48312 2.1952 6.61498 5.68304 5.13873 3.1378 5.70789 3.07492 3.49317 1.49521 0.505291 7.19966 1.42799 0.89952 7.34833 5.90438 3.71189 5.19622 5.04263 4.97701 9.55968 1.13363 1.87769 4.99928 0.100966 4.27317 0.837113 4.95164 2.79639 2.22304 5.16319 0.646336 3.27399 -0.928148 0.317056 7.94906 2.80676 2.96249 7.42934 4.57151 0.453465 7.6206 0.278291 3.13689 6.59383 7.06439 0.410205 3.07004 3.49 2.41174 2.57663 0.751673 3.85188
1.11281 7.27747 4.68602 5.41629 -1.18659 2.18863 0.767695 3.85793 -0.0948389 5.19937 3.13244 1.54646 3.79205 5.89016 5.15594 2.26446 1.56803 2.20711 7.01437 0.261719 4.66566 7.77482 4.5127 2.13 2.09144 4.98109 2.34667 3.69064 0.612798 4.99999 8.10452 1.15987 1.73229 6.93609 5.68393 4.83936 2.78601 5.90282 3.46965 3.65704 1.49784 0.743452 6.97625 0.241171 1.10463 6.66231 4.66178 3.55972 5.57386 5.46791 0.173449 9.53855 1.09752 1.01795 5.00342 0.662817 4.32638 9.55952 4.66683 2.85718 2.0305 5.66531 0.953561 3.29984 -0.805408 -0.0626351 7.80239 2.57613 1.38111 8.11848 5.50197 0.221081 8.10134 0.926169 3.23469 6.87634 7.01217 4.0586 2.69092 3.5792 2.21125 2.49408 0.885307 3.95607
1.46814 -1.20014 2.60786 5.25323 7.36296 2.02371 9.34666 2.80797 4.79717 5.3991 3.38499 0.42115 3.56293 6.12958 4.73214 2.54563 1.96848 2.19552 6.77797 0.0987209 4.94692 7.8023 4.57768 1.81605 2.38048 4.90593 2.04784 3.5577 0.440585 4.98998 7.91866 1.22764 2.15375 6.91658 5.70052 4.39743 3.05622 6.07226 2.84672 3.9282 1.44585 0.834532 6.94857 0.253135 1.48147 6.51482 4.87388 3.04687 5.72642 5.54967 0.0176759 9.43388 1.08762 1.78025 4.87134 0.000955552 4.17161 0.94535 5.21517 1.64014 3.15475 4.63068 0.803149 3.10688 -0.851484 0.304896 7.33952 2.62583 1.63701 8.09338 5.02086 -0.106067 7.79908 1.23207 3.66967 7.05931 7.21039 3.88854 2.41334 3.7194 2.97662 2.42772 0.919964 3.91752
9.82074 7.09413 3.65491 5.13072 -1.048 2.50765 0.524989 2.37438 4.96523 5.21247 3.51175 4.98365 3.26246 5.95945 4.19684 2.4637 1.55723 2.18794 7.25313 0.144652 4.93077 7.95203 4.66271 2.39766 1.92232 4.71754 1.36705 3.70871 0.531327 4.68693 8.68102 1.26432 2.28886 6.51451 6.02721 4.96778 2.98775 5.18617 2.34315 3.77574 0.866264 0.89781 7.61123 0.961016 1.30958 7.76988 6.15439 4.07897 5.21625 5.94483 3.97096 0.69667 1.14201 1.69981 5.1744 0.748181 4.23252 9.93563 4.97645 2.11056 1.77916 5.52119 -0.0553082 3.13446 -0.824949 4.2075 8.35568 2.62188 2.99657 6.51862 4.96362 0.754515 8.47171 0.281795 3.52193 6.58332 7.37981 0.353558 2.20339 3.1964 1.03432 2.77385 1.55359 4.00542
-0.0626741 0.169364 -0.00751668 5.09861 6.06816 2.44766 0.0609168 3.17635 0.00158886 5.27945 3.11047 2.6286 2.91423 4.61859 4.96585 2.1496 1.61371 2.42901 7.27182 1.22356 -0.035832 8.35105 4.78024 2.62974 1.13026 4.74189 2.18253 4.06014 1.55051 4.69361 9.27918 1.7267 2.73405 6.33285 4.46882 0.221185 1.10358 4.71605 3.74841 4.08013 1.63443 1.1244 9.16628 1.59625 1.18783 6.47435 4.90146 3.83926 4.81379 4.4507 0.716023 0.253409 1.62094 3.12108 5.5324 1.40697 4.12081 10.2873 4.87052 1.62573 1.91941 5.98224 1.56869 3.15286 0.341619 4.14511 8.92032 3.16516 3.32657 6.92207 3.16788 0.654556 8.54096 0.513612 3.36092 7.098 5.64735 1.04287 1.85937 3.47499 1.4847 3.39189 2.73996 3.87122
9.24539 -1.67469 -0.0022 4.62089 7.5516 1.50196 0.777677 4.25765 4.68792 5.15365 2.18319 1.69849 3.86124 6.11667 4.39856 2.43641 1.40887 2.34617 6.62961 0.157055 4.32448 7.96692 4.91797 1.83571 2.66639 4.6931 1.7755 3.43171 -0.216063 5.01414 7.98129 1.47878 1.75696 6.90484 6.39895 4.55274 3.60427 5.83886 2.5628 3.53913 0.612025 0.952464 7.92404 0.45541 0.596845 7.18964 5.20176 3.59512 5.50374 6.38989 -0.12382 9.25098 1.39017 2.52797 4.78088 -0.384923 4.28074 1.29282 4.9017 2.26053 2.87487 4.96 0.233385 2.98353 -1.66658 0.150399 7.63328 3.02576 1.33057 7.9019 5.97984 0.375221 6.83251 1.3226 2.8163 7.23649 7.83956 3.9627 3.26101 3.30522 2.08 2.2838 0.341619 4.09524
1.45165 -0.94434 2.09784 5.60124 7.01114 2.25392 9.06657 2.63165 4.9788 4.95225 3.26481 0.832796 3.6809 5.97466 5.05311 2.42663 1.83311 2.37599 6.84564 0.178319 4.87133 7.94111 4.59408 2.39856 2.38753 4.8658 2.36849 3.56789 0.573822 5.11186 7.82457 1.47346 1.98354 6.84373 5.63821 4.88684 3.45256 5.85683 3.07741 3.60405 1.5425 0.810925 6.88814 0.533178 1.28891 7.83767 4.48881 4.38602 5.40089 5.22971 4.52622 9.33027 1.32799 1.39255 5.06322 0.45598 4.38895 0.948709 5.62901 2.25477 2.96847 4.38241 0.970414 3.45526 -1.05337 0.174518 7.20609 2.86496 1.67057 6.9508 5.73513 1.02269 7.92934 1.16983 3.523 7.1423 7.08261 4.29982 2.34741 3.53963 3.14966 2.43446 0.927729 4.02997
9.07225 7.24276 2.30312 5.49548 -1.37195 2.05592 9.73891 2.56791 4.94373 4.64279 3.67673 0.184672 2.99619 6.72888 5.15455 2.70237 1.86834 2.49666 7.36645 -0.221561 5.03207 7.6219 4.12853 1.85065 2.00951 5.04523 2.34543 4.02464 0.407507 -0.00157728 8.50032 1.1229 2.19299 6.56602 5.85835 4.46824 2.01943 6.21416 3.34997 4.08475 1.50164 1.17871 8.01697 -0.220804 1.58587 7.17375 4.85236 3.53746 5.07634 6.15659 4.32519 1.03399 1.54759 1.8176 5.47323 0.115272 4.87318 9.56043 5.03187 1.76302 2.94021 5.40073 1.14003 3.40174 -0.895424 0.673348 7.51645 2.16407 1.69179 6.62253 5.25191 0.603148 8.45199 0.925062 3.79243 7.38537 7.2159 4.38299 2.42748 3.70849 2.96915 3.14245 1.01718 4.23612
9.31373 -1.40532 3.8415 5.30871 -1.12906 2.13474 9.29508 2.63863 4.8305 5.35049 3.25307 -0.162659 3.55609 6.15955 0.0519976 2.68421 1.54238 2.21187 6.60173 0.245633 4.70835 8.02111 4.69414 2.9164 2.78018 4.59627 2.52291 3.2039 -0.193014 4.80036 7.82607 1.59512 2.18989 6.99019 6.30447 0.249113 3.69397 4.90019 3.79503 3.15496 0.130653 1.11508 6.90131 1.46796 0.938052 7.37702 5.7817 4.12093 5.41666 5.8315 0.729917 9.37293 1.80865 1.72435 4.70108 0.0367901 4.35502 1.36516 4.31367 2.94566 2.72708 5.7268 1.55293 2.9524 7.61764 4.30015 7.38503 2.8762 2.95482 7.90168 5.57437 1.17986 7.77348 0.272338 2.96834 7.22939 -1.46511 0.335785 3.32273 3.30433 1.73229 2.3186 0.836988 4.02224
-0.199766 -0.101403 0.102383 5.20141 6.2621 2.59011 0.0498871 3.00231 4.99011 5.08715 3.30003 2.41217 3.0491 4.66557 5.07057 2.183 1.55502 2.49416 7.42063 1.60448 -0.0868699 8.21085 4.58036 2.56078 1.11442 4.64285 2.31858 4.15891 1.61059 4.64281 9.20566 1.48006 2.74318 6.37856 4.7041 0.0718864 1.16769 4.72157 3.86808 4.06693 1.53348 0.981149 9.20004 1.50298 1.20129 6.29616 4.71438 3.66408 4.88909 4.9976 0.591276 0.102134 1.44222 3.09468 5.6192 1.47347 4.18878 10.1798 4.57771 1.84615 1.84918 5.88078 1.65475 3.33432 0.43643 3.97076 8.57308 2.72821 3.4346 6.82254 3.37026 0.745921 8.47542 0.353819 3.43795 7.14655 5.84525 0.729381 1.87057 3.36923 1.65393 3.4596 2.87722 3.94583
0.262289 0.272509 -0.178365 5.34832 6.07821 2.51554 10.0908 3.39065 5.04649 5.14957 3.0761 2.50967 3.0776 4.43492 4.9355 2.1366 1.79183 2.6533 7.45733 1.40055 -0.108084 8.14754 4.92008 2.52702 1.11569 4.75268 2.2315 4.0898 1.29805 4.82017 9.25347 1.75916 2.59495 6.42021 4.41758 0.174715 1.10497 4.59647 3.76358 4.00819 1.42342 1.22875 9.35912 1.58569 1.10697 6.44128 4.52445 3.78055 4.94565 4.54446 0.633419 0.10533 1.68507 3.2895 5.54873 1.31634 4.26299 10.19 4.73558 1.70418 1.65621 6.08052 1.77835 3.35144 0.073135 4.1025 8.58413 3.0997 3.11357 7.01101 3.1757 0.764581 8.3889 0.650262 3.21755 7.09923 5.64027 0.92305 1.96744 3.59552 1.4729 3.28349 2.50002 4.17666
0.164937 0.0530914 -0.0214959 4.99687 6.14647 2.34236 10.0963 3.07133 -0.010312 5.33994 3.04486 2.43444 3.1536 4.56554 4.90528 2.01047 1.68145 2.59604 7.36809 1.50385 0.0338556 8.21682 4.80005 2.52008 1.16022 4.72396 2.31498 4.22147 1.49469 4.69836 9.14043 1.52831 2.60326 6.36814 4.66099 0.118287 1.23282 4.67854 3.90873 4.14605 1.40773 1.04056 9.11825 1.31072 1.05891 6.43486 4.72701 3.72857 4.91941 4.48711 0.6645 0.0999832 1.65688 3.17406 5.62231 1.35717 4.15494 10.1518 4.7784 1.80333 1.85359 6.01479 1.89631 3.32259 0.277486 4.06716 8.34451 2.75915 3.03691 7.28761 3.49978 0.645679 8.52077 0.372671 3.46497 7.05635 5.87315 0.985411 1.89836 3.56285 1.60072 3.62227 2.82243 4.03269
0.508874 0.357013 0.122676 5.02673 6.13069 2.28662 10.0845 3.66449 0.0885784 5.21736 2.98287 2.5999 2.9439 4.44878 4.98437 2.18264 1.73974 2.42401 7.45044 1.28049 4.96024 8.2256 4.80822 2.56402 1.12319 4.85819 2.31105 4.05719 1.31057 4.81134 9.30512 1.67768 2.67103 6.25162 4.54352 0.110843 1.13303 4.50831 3.75515 4.21343 1.48131 1.23748 9.20835 1.55928 1.13115 6.36583 4.78207 3.62328 4.8395 4.2748 0.699346 0.1969 1.56305 3.15313 5.54951 1.53329 4.20563 10.1787 4.99749 1.73591 2.03913 6.05073 1.8445 3.41848 -0.0385988 4.18544 8.66555 2.99107 3.24852 7.14241 3.32211 0.613781 8.43573 0.495555 3.31437 6.96311 5.76606 0.829345 1.71581 3.56176 1.5484 3.33161 2.55034 4.11181
10.3238 5.99989 -0.0523833 5.64788 0.357441 2.44989 0.316363 2.82215 -0.0784048 4.75883 3.2542 2.52791 3.06673 4.8812 4.89437 2.05514 1.26885 2.17636 7.41457 1.8724 0.113284 8.29075 4.4918 2.75682 1.21969 4.46754 2.20058 3.91154 1.63328 4.83853 9.33209 1.42369 2.70418 6.33478 4.90163 0.108234 1.05203 4.65743 3.70843 3.97078 1.56009 1.22889 9.30204 1.50729 1.13625 6.22525 4.65167 3.69252 4.9888 4.71355 0.686144 0.284115 1.25453 3.46741 5.37609 1.6675 4.30195 10.2186 4.38853 1.52889 1.90169 5.78958 1.60423 3.12723 0.405171 4.11737 8.39671 2.56122 3.3579 7.29178 3.75722 0.740072 8.62139 0.0709076 3.19137 6.95745 6.23188 0.628426 2.02411 3.31252 1.68197 3.15406 2.98004 4.28488
10.6607 6.2076 4.85187 5.21938 0.27147 2.35548 10.4188 3.2352 4.81432 5.02064 3.4215 2.46277 2.85287 4.6391 0.10843 2.21892 1.40554 2.376 7.52085 1.52985 -0.0143164 8.25386 4.46441 2.54956 0.875421 4.47007 2.30093 4.12199 1.69058 4.77534 9.52179 1.51175 2.63896 6.37987 4.71979 0.196908 0.908574 4.52396 3.80494 4.06363 1.61562 1.35611 9.38123 1.55666 1.15186 6.43877 4.70692 3.67694 4.86713 4.79841 0.831913 0.0163029 1.71982 3.16221 5.64043 1.72667 4.37534 10.3493 4.47873 1.64245 1.66276 5.74006 1.55144 3.25059 0.560404 4.02612 8.75871 2.72122 3.33952 7.26685 3.5518 0.880458 8.77276 0.254539 3.2546 7.1458 6.02669 0.817119 1.65276 3.24048 1.68772 3.36906 3.00323 4.13518
0.223066 0.100587 0.0197107 4.76314 6.13418 2.7416 10.297 3.19162 4.90016 5.17585 3.01418 2.59666 2.99142 4.64496 5.02493 2.23112 1.48142 2.43545 7.46088 1.35741 -0.222884 8.21487 4.8671 2.50077 1.12004 4.76227 2.24885 3.94085 1.51537 4.83517 9.36016 1.66044 2.70618 6.39474 4.54771 0.101957 1.12154 4.74747 3.84054 3.9443 1.61037 1.29388 9.31897 1.48809 1.13893 6.39671 4.69724 3.58638 4.89794 4.69325 0.679298 0.286747 1.7658 3.25763 5.43309 1.38081 4.35599 10.2377 4.79937 1.75057 1.91575 5.97897 1.68546 3.1139 0.315973 4.31747 8.55636 2.88027 3.21957 7.05874 3.27045 0.757149 8.68425 0.427007 3.42105 7.31281 5.72003 0.561769 1.86439 3.44505 1.66811 3.31126 2.7338 4.06454
10.3454 6.16527 5.02671 5.02646 6.19204 2.5881 -0.257923 3.14149 5.04666 5.50048 3.02375 2.39035 2.9126 4.62498 -0.134326 2.24406 1.70503 2.32093 7.55826 1.43065 4.87924 8.24267 4.67201 2.55989 0.984312 4.79452 2.32603 4.07899 1.4291 4.80616 9.42308 1.62516 2.66854 6.37701 4.64407 0.193183 1.09995 4.61856 3.86445 4.0942 1.5852 1.27803 9.31472 1.71926 1.1072 6.29907 4.62216 3.77899 4.96645 4.28153 0.836862 0.122219 1.69596 3.30417 5.42912 1.5742 4.18091 10.2142 4.70632 1.78556 1.5956 6.11004 1.78377 3.31509 0.0850795 4.18432 8.41335 2.80913 3.31276 7.37811 3.50302 0.807968 8.78572 0.315383 3.31177 6.92295 6.07018 0.701415 1.85417 3.64028 1.6779 3.12717 2.70067 4.33187
-0.087419 0.0894303 0.0114851 5.08134 6.15995 2.4352 -0.00694527 3.1342 0.152436 5.58372 2.88426 2.62039 2.84218 4.58301 4.92653 2.21134 1.71468 2.42782 7.61558 1.46609 4.97876 8.21822 4.57153 2.42588 0.94432 4.81918 2.3484 3.96286 1.53014 4.79631 9.35206 1.53033 2.73266 6.34863 4.67999 0.0789002 1.00987 4.70747 3.84485 3.98321 1.60849 1.29901 9.38023 1.68935 1.19689 6.43243 4.82984 3.57691 4.91709 4.56314 0.573731 0.0119781 1.64929 3.22199 5.37437 1.48295 4.23008 10.3315 4.74439 1.71085 1.67101 6.0917 1.83869 3.23972 0.203492 4.22052 8.36549 2.64941 3.16267 7.27569 3.47076 0.58422 8.72732 0.176841 3.2994 7.04039 5.9516 0.88425 1.8205 3.6282 1.69096 3.04238 2.66667 4.20883
0.285394 6.3913 5.11235 4.94685 6.26943 2.56239 10.2015 3.10444 0.0491701 5.64402 2.95301 2.5593 3.00424 4.52727 5.00219 2.22147 1.44161 2.43089 7.30752 1.58759 5.03276 8.24316 4.99321 2.6533 1.18945 4.65658 2.24309 4.05385 1.38139 4.59332 9.13584 1.40972 2.73703 6.3787 4.91725 0.226097 1.27727 4.71751 3.77535 3.84163 1.4318 1.02022 9.06799 1.46198 1.13194 6.46344 4.94603 3.74408 4.88271 4.73524 0.730371 0.27288 1.58989 3.15673 5.51399 1.45148 4.06501 10.1118 4.76116 1.74755 1.99859 5.91527 1.51483 3.37594 0.0650532 4.03419 8.32748 2.58248 3.36277 7.25978 3.69577 0.781624 8.66133 0.137833 3.51762 6.92621 6.14095 0.898418 1.86004 3.58533 1.49126 3.26191 2.61222 3.76472
9.73544 5.93764 5.00063 5.72118 0.323244 2.52116 0.58959 2.88426 -0.0230638 4.43628 3.35968 2.47032 3.05082 5.08972 5.05016 2.34033 1.14595 2.35249 7.377 1.80417 -0.228954 8.31468 4.23088 2.36997 1.09485 4.40386 2.45716 3.83645 1.90244 4.93214 9.29907 1.21436 2.61974 6.38189 4.94662 0.102179 0.905023 4.6425 3.96296 4.06892 1.67806 1.15596 9.34744 1.71765 1.16926 6.37948 4.69732 3.81335 4.96445 4.97187 0.698783 0.104425 1.33404 3.23592 5.24887 1.98452 4.26906 10.5278 4.51192 1.69955 2.27638 5.51684 1.8632 3.00472 0.831108 4.27183 8.4039 2.34493 3.47314 7.13658 3.67518 0.844307 8.64488 6.10112 2.83145 7.29003 6.14866 0.477097 1.76411 3.03135 2.04176 3.1036 3.23961 4.46134
0.44886 0.231888 0.0827035 4.53382 -0.224987 2.40215 9.84509 3.32806 4.81072 5.2486 3.07744 2.49931 3.16688 4.41228 -0.217023 2.18063 1.80992 2.54824 7.46997 1.23811 4.97671 8.13784 4.58447 2.37017 1.39909 4.84279 2.3938 4.03503 1.32805 4.95554 9.20637 1.62118 2.67442 6.42069 4.76394 0.0454701 1.15612 4.73273 3.91455 3.9995 1.66283 1.42608 9.28328 1.62757 1.11817 6.24516 4.73351 3.61396 4.93209 4.76053 0.689425 0.238735 1.63669 3.52943 5.38236 1.47802 4.33843 10.2624 4.80701 1.56674 2.08071 6.22834 1.96329 3.38173 0.0966264 4.31606 8.26148 2.70213 3.2272 7.13151 3.42917 0.51481 8.50862 0.257502 3.26093 7.10561 5.94088 0.754822 2.13157 3.68348 1.65739 3.22921 2.59423 4.23995
10.4343 5.94302 -0.00188743 5.30102 -0.0361332 2.67017 0.305396 2.88344 0.0463528 4.87474 3.46123 2.5383 3.05192 4.8572 0.019222 2.30548 1.41275 2.3709 7.33403 1.78894 4.94243 8.24594 4.58361 2.52683 1.08369 4.61252 2.29113 4.04507 1.64588 4.79479 9.33977 1.24669 2.61754 6.39109 4.83891 0.136996 1.16856 4.82833 3.81014 4.04308 1.27294 1.26746 9.28336 1.32162 1.10909 6.45976 4.67187 3.66241 4.87175 4.97242 0.427333 0.0158808 1.31291 3.19774 5.41131 1.66699 4.10108 10.2599 4.63848 1.81883 1.7605 5.80755 1.54241 3.16806 0.439336 4.15982 8.53812 2.47386 3.26094 7.06148 3.61248 0.943179 8.59285 -0.0499974 3.0858 6.97199 6.20042 0.674026 1.77343 3.34211 1.69131 3.19718 2.97089 4.47011
10.1537 6.09459 4.95543 5.24412 -0.0919292 2.58322 0.429898 2.68488 5.06282 5.39016 3.04078 2.49642 3.10552 4.91997 4.91538 2.18694 1.53775 2.40809 7.45692 1.42141 -0.101011 8.12607 4.7276 2.70767 1.08686 4.69587 2.22777 4.03831 1.62317 4.89647 9.25053 1.48912 2.58415 6.31573 4.7708 0.136141 1.2546 4.57865 3.76333 4.08327 1.6454 1.35058 9.34426 1.61502 1.06881 6.31752 4.82707 3.70567 4.82523 4.69485 0.756623 0.272704 1.18108 3.01592 5.53144 1.5172 4.30482 10.0454 4.91759 1.69448 2.00544 5.78434 1.46474 3.09189 0.401336 4.3628 8.62313 2.76376 3.30753 7.10085 3.57952 0.598486 8.30222 0.352352 3.33041 6.90161 6.01075 0.870158 1.60026 3.20959 1.70835 3.38469 2.82559 4.1469
10.5488 -0.0187814 5.04759 5.29545 0.146494 2.49245 0.0428553 2.87138 5.04059 5.14557 3.07293 2.2218 2.90126 4.79695 4.96861 1.85757 1.553 2.26984 7.3841 1.62269 0.0308967 8.48506 4.54859 2.647 0.959434 4.61805 2.16321 4.06006 1.7349 4.69067 9.51355 1.33842 2.9136 6.36801 4.73277 0.209151 1.05568 4.60356 3.65895 3.7948 1.61343 1.13548 9.46698 1.48355 1.24963 6.58858 4.74903 3.88 4.8475 4.78606 0.540458 0.0529707 1.4497 3.3778 5.53924 1.59033 4.29193 10.3922 4.42902 1.63678 1.58705 5.76454 1.20397 3.10518 0.6978 4.02124 8.75136 2.55235 3.76056 6.89667 3.40424 0.834784 8.94396 0.0612101 3.51919 7.11138 5.962 0.883083 1.7572 3.37742 1.62827 3.51788 3.11264 4.08786
10.5491 0.22471 -0.069464 5.11872 5.9602 2.68177 -0.14645 3.16864 4.85337 5.45494 3.01369 2.58713 3.08571 4.61778 4.92508 2.03378 1.72063 2.38131 7.17171 1.38022 0.139498 8.81443 4.77012 2.20868 1.00146 4.77209 2.15571 3.81424 1.44302 4.90309 9.43095 1.63602 2.69539 6.32893 4.65038 0.261561 0.962534 4.65447 3.74086 3.75628 1.37165 1.30168 9.18294 1.50198 1.14938 6.34406 4.71447 3.96032 4.77024 4.57663 0.750744 -0.0772624 1.59414 2.97003 5.34833 1.55875 4.41346 10.617 4.57489 1.59129 1.72394 6.07601 1.69149 3.28866 0.135529 4.12593 8.85201 2.95655 3.16398 7.11646 3.41356 0.828827 8.71027 0.449394 3.34709 6.98957 5.80572 1.12155 1.80951 3.49558 1.51954 3.05803 2.6684 4.27011
9.98026 6.07973 0.0135729 5.72625 0.32769 2.63772 0.217301 3.05998 4.82593 4.84248 3.37255 2.4533 2.87775 4.94101 -0.0680183 2.02776 1.20673 2.36471 7.649 1.77895 -0.00169117 8.48812 4.34145 2.55784 0.864155 4.33594 2.19798 3.85542 1.87134 4.86038 9.50458 1.30167 2.63359 6.37922 4.89783 0.197006 0.680984 4.66734 3.67768 4.00125 1.61785 1.30628 9.63101 1.59696 1.04959 6.60139 4.5495 3.79464 4.89961 5.09443 0.664343 -0.154171 1.39387 3.25629 5.33276 1.94095 4.26159 10.5748 4.36626 1.40042 1.84426 5.70561 1.73583 3.08733 0.584196 4.20837 8.46319 2.34521 3.21687 7.12916 3.67906 1.07759 8.96041 6.20104 3.02455 7.11459 6.2003 0.498174 1.6587 3.08089 1.73393 3.09504 3.09553 4.41874
10.3278 6.28256 5.16516 5.12788 0.0488968 2.43851 10.7073 3.03094 0.0246536 5.12102 3.04353 2.46913 2.99538 4.78535 4.80104 2.157 1.43713 2.47391 7.47068 1.42393 0.0398941 8.26503 4.76754 2.47553 1.05277 4.65452 2.23805 4.01624 1.60658 4.81067 9.33847 1.59802 2.86379 6.4022 4.61016 -0.0176242 1.14377 4.6898 3.77795 4.11806 1.57572 1.19232 9.28337 1.55459 1.29408 6.46411 4.63549 3.6024 4.91423 4.76062 0.543189 0.229508 1.31395 3.34218 5.4739 1.49696 4.15 10.173 4.7898 1.81387 1.81811 5.88659 1.55739 3.12614 0.382951 4.28467 8.85173 2.96568 3.5137 6.93983 3.28028 0.585017 8.46762 0.474906 3.57033 7.2359 5.80092 0.620034 1.66215 3.34601 1.62742 3.28074 2.86132 4.16758
8.93428 7.02256 4.56412 6.25364 -0.804659 2.31852 1.53233 3.23324 4.88811 4.20293 3.41503 2.46164 3.08786 6.68899 4.89044 2.55728 -0.328172 2.58572 7.56832 1.87633 0.496194 7.55666 4.02912 2.11833 1.28334 5.44349 2.11809 4.42993 0.644821 4.96792 9.07541 1.32919 3.12735 5.97905 4.98944 4.81725 2.14836 6.31247 3.08858 3.3945 -0.0527225 0.814601 8.59604 2.43388 2.19896 5.97075 4.77378 3.29071 4.47577 5.24839 0.190313 1.31178 1.0045 2.87629 5.91672 0.916575 0.403212 9.14719 5.5342 2.68075 1.39091 6.12615 0.643368 4.58042 -0.431559 3.77454 9.01998 2.08635 4.57272 6.29212 3.57084 0.530493 8.22174 0.131012 3.09262 7.07175 6.01714 0.159686 2.0053 4.13535 2.09465 3.78439 1.9843 4.41111
8.65566 -1.18171 4.62317 6.17797 -0.765287 2.25406 1.45729 2.64972 4.73439 4.02992 3.67539 2.27989 3.11234 6.66293 0.140988 2.73092 -0.439907 2.45524 7.33671 2.43843 4.64611 7.90525 3.9426 2.36758 1.3679 5.16815 2.71662 4.35642 0.987494 0.419766 9.03436 1.10471 2.26015 5.99989 5.00172 5.01512 1.43806 5.74523 4.14896 4.33651 0.513013 1.87773 8.67489 1.62498 0.853745 6.61447 4.16576 3.73328 4.57661 5.4298 4.53441 1.1957 0.939016 2.43001 5.83048 1.24855 4.94136 9.21304 5.30754 2.23537 2.20532 6.06384 1.77681 3.69908 -0.136742 4.4032 8.69336 2.38473 3.1131 6.29361 3.73793 1.00946 8.30489 -0.176106 2.61173 6.72417 6.2522 0.42585 1.89549 3.71134 2.70678 3.41545 2.15714 0.24384
10.3106 6.12235 -0.0770751 5.41519 0.187432 2.33677 10.6456 2.96341 -0.0033592 4.95478 3.42353 2.58539 3.07357 4.73544 4.93326 2.11232 1.6195 2.3479 7.4093 1.52784 -0.0228888 8.26955 4.50442 2.58988 1.09817 4.66855 2.28008 4.01063 1.53386 4.69631 9.28122 1.41642 2.81196 6.45159 4.79798 0.124126 1.27658 4.81504 3.83297 3.87283 1.34201 1.05993 9.23861 1.39979 1.26257 6.45663 4.8346 3.70579 4.97685 4.63112 0.676304 0.237696 1.5303 3.2659 5.51285 1.67699 4.24543 10.1496 4.3284 1.89727 1.49762 6.00691 1.51785 3.57849 0.141157 3.92546 8.53068 2.54752 3.50188 7.24414 3.66395 0.892439 8.50368 0.21951 3.45599 6.86335 6.20139 0.643473 1.99249 3.50332 1.50441 3.10773 2.75069 4.18613
-0.0282105 6.28365 4.92377 5.30709 -0.0265053 2.42151 0.147631 2.95457 4.94297 5.24508 3.11745 2.51671 3.08658 4.86957 4.96463 2.12182 1.53135 2.34143 7.40489 1.48162 4.9541 8.29831 4.52862 2.61215 1.07371 4.71699 2.25356 4.00734 1.6366 4.67733 9.30699 1.45205 2.71376 6.3641 4.71686 0.261522 1.1944 4.67503 3.85052 4.0345 1.50285 1.20125 9.15835 1.55334 1.1843 6.3986 4.60653 3.75735 4.87678 4.80283 0.722507 0.246598 1.55423 3.14083 5.44508 1.49664 4.04303 10.1164 4.72505 1.84603 1.75665 5.87293 1.58051 3.20036 0.386694 4.16832 8.28477 2.58974 3.43906 6.93252 3.46409 1.0086 8.66945 0.178972 3.45992 7.04072 5.98333 0.787744 1.79826 3.49424 1.61338 3.28364 2.9461 4.20333
0.0496301 0.0534479 5.07221 5.27663 6.37079 2.44335 10.5177 3.19722 0.099157 5.09373 3.13253 2.4851 2.97426 4.78363 4.7696 2.21611 1.51626 2.33625 7.31275 1.50018 0.0166961 8.21301 4.7384 2.58561 1.11684 4.68697 2.18645 4.02653 1.56976 4.71152 9.34452 1.41904 2.75076 6.32265 4.65615 0.236635 1.08813 4.83539 3.74745 3.98184 1.51498 1.13995 9.05666 1.55504 1.2387 6.55777 4.43152 3.88129 4.86124 4.72275 0.709228 0.313599 1.35835 3.13073 5.4856 1.64732 4.28487 10.2141 4.84083 1.63913 1.99102 5.74487 1.38372 3.31257 0.342372 4.03739 8.78669 2.64727 3.67856 7.02933 3.34682 0.978346 8.72706 0.11676 3.44486 7.0996 5.88153 0.83689 1.65319 3.30814 1.74879 3.25417 2.85279 4.0642