-32410.5085888064
-32410.288126369
-32409.8996807981
-32409.9275444245
-32410.2519035458
-32410.6471148157
-32410.1402659075
-32409.3142341608
-32410.0458195963
-32409.6600362497
-32409.5434424685
-32410.0910643492
-32409.6659001639
-32408.6934098855
-32408.9014789044
-32408.4773984119
-32410.4748707898
-32408.7378106777
-32409.3500862291
-32409.1059988804
-32408.2116870038
-32410.3185726266
-32410.4913699957
-32410.2842336465
-32410.1298717084
-32410.0487909418
-32409.9347554376
-32410.7129368065
-32409.7938285691
-32410.5564435379
-32409.8220353309
-32409.2703600446
-32409.0299956194
-32409.5296956926
-32409.8210150406
-32409.3936338089
-32409.3214129284
-32409.2948425223
-32410.8185457659
-32409.3557300033
-32408.8840554642
-32410.2739014893
-32410.5135737933
-32410.3239410217
-32409.8488374419
-32409.5381252308
-32410.0585198229
-32409.7166556274
-32409.627624651
-32409.6397198328
-32409.8882737918
-32409.1597850102
-32408.7926905686
-32409.0644056212
-32409.2701233057
-32410.968729126
-32408.6753680669
-32408.3841919868
-32408.4918223427
-32408.761547836
-32408.855649107
-32408.5204423092
-32410.6744445551
-32408.7302577539
-32410.2494196919
-32409.7184342986
-32409.5854466194
-32409.3634063308
-32409.7108853203
-32409.6323171156
-32410.3459030463
-32409.7640892629
-32409.3243812807
-32409.4610396376
-32409.3844642575
-32409.494290435
-32409.0346630497
-32409.5225656334
-32409.0676513934
-32409.5150550232
-32409.1922404193
-32408.9876452039
-32408.3925813882
-32408.1435134064
-32408.5224404401
-32409.9287615891
-32407.5618777214
-32408.00604279