0.152516475130814 0.569600614338335 -0.452139312917281 0.43720146838281 -0.452933526273225 0.000722222504644266 -0.595131912641532 -0.318137856299975 -0.00234047399778453 0.126597968891698 -0.307474468561414 0.605241227935269 -0.444748680700834 0.309848109772833 0.0449264049738414 -0.611686723118227 -0.903363827802691 0.524521485915665 0.676300569041025 0.2327754757021 -0.116296592291101 0.0861326827067793 0.579838484723679 -0.445499185325631 -0.363637359872197 1.83302719913602 -0.846750222340736 0.923883020194341 1.29129450044592 -0.578879463740296 2.24814727365398 1.52585714903153 2.01444285885993 0.177915361689656 1.67235853142608 0.274919948493581 0.330809274569426 0.0153139967325104 0.276920265718975 -0.521356202450135 -0.177264101595578 0.0517629647454651 -0.329386426815527 0.327792857899975 -1.75143688203606 -0.261487226971638 -0.570824973030794 -1.27306590267651 0.68971015064648 -0.866970909809677 0.295423714274238 -1.3270384723365 -0.177648481319481 -0.0903562316864131 -0.809684704108438 0.148921046328768 -0.393490680355198 -0.783821733668897 -0.126697727642785 0.911695483289696 -0.343564767868787 -0.547369582346856 0.852104027685773 -0.176020716749562 -1.47125080276991 -0.281871436517101 -0.23042574573772 -0.545110355166966 -1.02072125670973 -0.463419250875185 0.442908543119581 0.589514826468886 -0.334700894302532 -1.12326245419895 0.845139169932726 0.185724569284373 -0.964551423423998 0.195155370804612 1.50987363738193 -1.41829921764746 -0.408176042689754 0.0512988808647663 1.02162319923244 0.178533968790466
-0.416027673464701 0.158713087656421 0.252370356985101 -0.173523148429835 -0.221909228028985 -0.272088651156044 0.0603357895843237 0.153165164123059 0.344380064259755 0.234599672451994 0.699369523119595 0.347847195080377 0.709209644051509 0.106182649014066 0.225502599949565 -0.229258208395752 0.38982377492222 0.349760094843479 1.62633786551249 0.363612163074242 0.9231883084793 -1.37938507719786 -0.835557958955308 -0.105905998456929 -0.360995809849871 0.707472607653724 0.665239431849035 -1.52274868691649 -0.412276178781446 -0.0857045942517303 1.41180949951299 -0.0774261605726502 -3.64631527817625 -0.735418170577288 -1.09602163028758 0.555175447509191 0.676122905904425 -0.606016929358022 -1.89705586228182 -0.289281351997289 0.0495055373368583 -1.54121742559702 0.556392607116519 0.359294768877736 1.25792416976675 0.500195777261553 0.294466235951955 0.512597744058997 0.312215837450038 -0.601298186165521 -0.724672250469916 -0.831927820278529 0.0529569844363045 -0.00323290344371556 -0.0166933928654462 0.324714477676371 0.212888774361153 0.357237116081485 -0.0588093264265903 0.0501861079918221 0.604426445764669 -0.680297861059432 0.25330186717888 -0.117260498367965 0.670715621641281 0.953385899497623 -0.475890380311913 0.572869513207701 0.785481894121901 -0.928384248171844 0.624158623885505 -0.822117009907501 -0.782193711988794 -0.706616944963993 0.575253438826448 0.596991076376343 0.605896858902462 0.14007131382259 0.193590341119397 0.0890318571326849 0.651779456647671 0.41952334351566 -0.925718786902479 0.0419747800705604
-0.0196622441510023 0.446593703375568 -0.163243111974444 0.307235356091027 0.0174264139977854 0.431147037788519 -0.427962985279614 -0.314417214838705 0.316480524058986 -0.232587013937806 -0.403991060237602 0.0935886209097622 0.095525431919903 -1.28443068699487 0.486379447346256 -0.193354056861025 0.249098115683354 -0.174295764530389 -0.173257553610576 -0.514750527623036 0.0749339915667702 -0.417459005854646 -0.350155016084893 -0.398246447414082 -1.54084744404337 -1.57585685214052 -1.48714535429612 1.16766024063611 0.343569910072452 0.354679383978886 -2.26979980773323 0.401423557948041 -0.742856625287812 0.335271421799081 0.787207874781807 2.0801537939345 0.125129612635371 -0.239962476653443 2.39172634170614 0.906786735671801 0.238282004495965 -0.0496333210979149 1.00984549595983 0.676718373088746 1.54102433584942 0.376569487867426 1.103005257084 -2.00520746107893 -1.73972474186017 -0.808838811605668 -0.130033475159786 0.241430575799587 -0.724659652070939 -0.0923946012189228 -0.193251469897923 0.731071465819895 0.89802724883993 -0.0281059996778882 -1.00294440153222 0.486827076175229 1.81810478121254 2.07478507619884 -1.03938051403602 -0.912630850136224 -0.195661106534991 -1.13627274368988 0.167764908766605 -0.0666061927325132 -0.377617983194567 -0.381854387683361 -0.6597753262354 0.101568292555949 1.25735492782112 -0.0305313200361329 -0.0873128184477253 1.27025491704344 0.962405838945089 -0.394781887695292 -0.192858605537974 0.457026206169603 -0.414939068948979 -0.355577469848848 -0.316033409450379 -0.563174916639485
-0.332502088015698 1.08349110839853 -0.192788414457957 -0.0919503148223314 0.746784240446568 0.337949738577607 -0.7240307605628 -1.5324785075798 0.778477955621005 -0.440149493743526 -0.353566868216125 -0.0348206892226691 -0.363444527234788 -1.84624137700223 0.748367524954792 0.184221760263495 0.425514267894697 0.530962096005142 -0.310727683709604 0.440560098706117 0.0424607183168323 -0.569131388253972 -0.143902769772824 0.351661424648336 1.36147683871673 -1.73970185905387 -2.20565621633553 1.09072258941156 0.109971938894254 -0.448643128645955 -1.40630734159224 -1.9644560112601 1.02670986709712 -2.33136072734056 -0.221968106260941 0.479950150104841 0.205017346102099 1.04148984597909 -0.864434260742101 -0.0305009810345138 0.35142565461033 -0.0995204099466607 0.686352805874089 0.432248240703219 -1.46267952059215 0.26552899905174 0.174289593885992 -0.571546938425255 0.362929792647996 -0.686319895770638 -1.18215431299436 0.146233473583647 0.225992137738402 -0.819217835481596 0.846900888908099 -0.0235551494350247 -0.186773835942064 -0.560840613286098 -0.128144743753906 0.992928417234992 0.0625088848528368 0.00116008114665537 0.409007022801897 -0.718901926628075 0.778918899585215 -1.09055906733504 -0.232527621485484 0.814627904490884 -0.102753313390376 1.34984748801984 -0.284483675978541 0.34018685428174 0.723855925638216 0.592470308024915 0.95568729274756 1.39501197702334 0.453299394063936 0.832667012055265 -0.429416172035132 0.979940496330006 0.787195533493013 -0.138816873238695 0.272634753185187 0.647336592681757
0.202433902981178 -0.0557273466604206 0.190543585448327 -0.263452320101932 -0.300548434446033 -0.565239768520866 -0.520760992375998 -0.647266144491556 -0.206373088098179 -0.117010587269883 0.0950603195984713 0.0699475966735445 -0.19988902638774 0.5500797807881 -0.0206804004765243 -0.569121875177193 -0.105540130666218 0.466479890496148 0.150963786734393 -0.00583717248947624 -0.0160200212956123 0.669698493756491 -0.761025316384532 0.0803729003824501 0.146848224031708 1.08103724880994 -0.0771235418870089 -2.81166594660842 -0.0235672336136357 2.67061889964054 1.61362042452024 1.82381699815298 -1.82383910962873 -0.76191748872028 -1.64446747586136 1.50981115960741 0.804293103566469 0.127022457804182 0.653875161751037 0.754891438743629 0.709970433083635 -0.23162619318314 -0.269430903192175 -0.673082835098119 0.754876783463186 -0.659594834886785 0.455597701991674 -0.85005023154227 1.47332645327899 0.199574580633671 -0.458133836838883 -1.29497169028622 0.575187618619546 -0.220879244635035 0.668775468198758 0.509842294225507 -0.57750006760736 0.410751258284812 0.444348360145572 -0.449494163352389 -0.609968455763817 -1.23279447756973 -0.603824550825768 0.196417524694003 -0.0510224874178127 -0.739478197480398 0.154886773909851 -0.104206243035711 -0.158559078656677 0.291804374225154 0.644577286195519 0.269811169153146 -0.813583265816491 -1.58311198729041 0.480084618730661 0.153020153979727 0.437329252143867 0.000812982399318323 -0.444453003990139 0.533339593869309 0.274838444565503 1.64408900967167 -0.998586641036953 -0.423250926951876
-0.147181953049518 0.0458052075800622 -0.458281932304414 0.327728066133806 -0.207199954447391 -0.545713535656783 0.0464875780063085 0.461778630796105 0.448425356320774 0.573150534637952 0.435494770986645 -0.134130268819096 -0.287329114376155 -0.359035858923241 -0.109652093826337 -0.56519528845917 1.17576358228042 0.336027839958092 -0.303831988595841 0.277849461921106 0.739492081430292 0.234199351896732 -0.391132979975138 -0.155799000839889 0.0670815894612734 -2.1670120415783 1.98918538290186 1.04463147530777 0.45264504864766 -1.05271990456145 1.68269513212178 -0.344250737837599 -1.06777319156819 -0.339560790985617 -0.250621236408706 0.157106149011342 0.729369653517211 -0.21330066487466 -0.531990022517626 -0.245454607277048 -0.348765078434446 0.998377867568184 -0.026836132483001 0.294759855781184 0.658329338565013 -0.738845192209329 -1.07333448483108 -0.20197701818561 1.00585206059417 0.0107073535798898 -0.404543590021326 -0.584418388417245 -0.568769377116009 -0.543733530135863 -0.468140050949152 0.17361236566341 -0.296047463578712 -0.657103180101271 0.208531785196432 -0.953828386122932 0.290463287509517 0.0778599054517299 -0.215945557329368 -0.198680608526641 -0.703666862721811 -0.689308287430119 -0.534161060904673 0.979195905239423 0.444001261398235 -0.642696782315502 0.220523661251652 -0.768688999615551 -0.526420501728874 -0.789165511716788 -0.10231905429093 0.516650571876977 1.02889710342571 1.93111344848072 -0.497909296402243 1.47364758389782 0.0636126588693686 0.245455635717781 0.0991825671659193 0.466779680969774
0.224136830656339 -0.59687563390408 -0.322173971956047 -0.00767422474853046 -0.25431025331744 0.408646554325033 -0.845986347986412 -0.467558210604542 0.31560686365643 -0.462949510570456 -0.544736259850392 0.546926838611363 0.11684629386281 0.866034257412233 -0.453115046062573 0.519601425449709 1.28693699706083 0.661396148830373 -0.143942878961405 0.273856283665631 0.116205575286244 0.13626428333976 0.0340866396495971 0.34640532117292 -0.0229797368449949 1.04778853124744 -2.19181777494447 1.46084941030805 -1.18720395699265 0.941200676584627 -1.40241983562206 -0.936754984406698 -0.269539146579307 -0.86281755191006 -1.01982934148416 -0.112120865805545 0.748352612564165 0.40819095508038 0.433103132062401 -0.575961263160832 1.4451209519602 -0.672890259570893 -0.375746221060779 0.119558034965154 0.284949816740706 -0.0813566039434216 -0.333006795305344 -0.106305547681642 0.648851228771062 -0.261742794493751 -0.439583080009909 -0.0379630898818938 0.704931073492667 1.02022606249686 -0.544326683328534 0.75746614011832 0.0728840520760159 -0.29808968976397 -1.14408529371698 0.386620696259757 -0.0354133281949742 -2.70315207956316 -0.0516377520862406 -0.772148160020494 -0.213244871964903 -0.67432416306267 0.637827629665821 0.0313880111665974 -0.306017682263332 0.550810230818607 0.54679134154481 -0.777731050538773 1.0117712512321 0.884600697962383 -0.898855657850241 0.82799840534849 0.488583138726571 0.702357400558709 -0.606172738129049 0.928265206157017 0.221913856012283 0.192638519221144 -0.161097527495535 0.817669003737923
0.707068173335531 -0.559337547155037 0.42531037951941 0.412435587095037 0.0431276621320859 0.178133134014837 0.654638778995178 1.08269303838983 -0.14373513393337 0.172927424135331 -0.6482732450792 0.400093526970282 0.450235669120774 0.0631724862357086 1.17535323442801 -0.127556989875082 0.0626209848927175 -0.587415264712772 0.217086612322466 -0.772448721824669 0.265986140957492 0.263621241492302 0.628651367226962 -0.210750903187741 0.307970434104831 0.729257039256964 -3.13811463247056 2.27564495063839 1.02192324681625 2.07456421855146 -1.13235849826065 0.7891745105732 -0.12593385328846 -0.493093108450304 -0.689499320296245 0.229956262543174 -0.691430217772172 0.0423745864054561 0.598672576974553 -0.161447711565071 -0.751298066823049 -0.400224396053537 0.163441601035884 -0.112918935814237 1.62503046023085 0.129923174891187 -0.181883086036993 -0.159260218126298 1.44602289448291 1.43281077349816 -1.98659242670416 0.366692343069129 0.175932270846537 -0.205345161585695 -3.42597416515468 -0.175144742355357 -0.287946950146415 -2.25614957099629 -0.174827725499456 0.41048463502482 0.77961798217337 -0.358020273699551 1.51551103525905 0.303863870258559 -0.473410809705011 -0.715240420508944 0.309176023753915 -0.350011548602661 -0.500776846275613 -0.288192490371383 1.70175882376626 0.722322777615719 -0.931961422150882 -0.843861332322159 -0.742155485818191 -0.514582120453032 -0.607539535863007 0.293049815952636 0.862690025259186 -0.442225915583151 -0.0858629741245893 0.1996889946652 -0.63279598338035 -0.625114045326323
-0.0460373780755031 -0.133165077191315 -0.00850211953847511 0.241273224367461 0.0961391539272315 0.409779124682085 0.30946527271003 0.410870043189456 -0.0695907277392454 0.0725035290048612 -0.18327379501799 -0.135806627213642 0.194050825457531 -0.035209954040053 0.284382117456172 0.126296635756973 -0.206604230152887 -0.111442866252413 -1.38462575406228 -0.404701198563635 -0.0841043404714149 -0.656292768803785 -1.04202360671944 -0.482871950226869 -1.78914594705694 2.90554150248265 -0.619612401625939 0.423801914074501 -3.24918314629621 0.890625560885605 0.812493118639669 0.566137854390828 2.49852065584607 -1.00280273382127 1.47497452955338 1.89071115429069 -0.0805891300465319 0.330646780933635 0.694363844962628 -0.60830803820063 -0.20241719081927 0.669017151770978 0.878291471176529 -0.0936251305557784 -0.881478094787266 0.141815806415687 0.114460825582963 -1.35571474240076 0.926627928510319 -0.669848388993305 -0.513827759175486 -1.10585223814271 -0.862538844471457 0.0625621066607618 0.331726900813312 0.083723560290077 -0.585032110424574 1.35756927815227 0.142429528423016 -0.553886554160746 -0.941983319982327 -0.108958667662213 0.73872280776212 -0.156344331538483 1.51765559129723 -0.0273547237225409 0.0685350333269743 -0.365492152733893 0.278875074441941 0.809804774563998 -1.88953204699047 0.188740985953824 0.527034995066752 1.72218648493269 -0.162111055837759 0.459577767627805 1.0594320230044 0.116466285012022 1.51023436296898 -2.94413194121158 -1.74850839704926 -1.419120941793 1.96650697919159 -1.3829223990985
0.167141930792681 0.1551019751332 -0.316594423870149 -0.0461751891337051 0.051024030078912 0.117473899820032 -0.43540555375307 0.36294933302192 -0.228509246432053 -0.8736298064447 -0.766315358404132 -0.436227792118984 -0.335015597166784 0.0466313025987243 -0.0738906384432933 -0.183142925934735 -0.0523656310149155 -0.471874833470499 1.05450527767368 0.339820472270662 0.0428342994130403 1.60266007452007 -0.135273380693659 -0.777454914202002 -2.25152981522432 -0.816210160558374 -2.07849569036296 0.643653746417419 -1.12332081821054 -3.24104818009937 -1.69066760468284 1.0688098598269 -0.507005083353756 0.509122385712512 0.362096241434021 1.89726077909785 1.23045220380066 0.210917767696645 0.629727373343707 -0.33609648837701 -0.307818481986553 2.46772734053324 -1.10019992787496 0.022433377705668 1.27522691376641 0.95693581979724 0.90509880731901 -0.625670431762795 -0.474688133095211 0.422133526095634 0.686945959066761 0.826547532584621 -0.753279615005069 -0.411815180222945 -1.6151939388415 -0.540739739162535 -0.622862017231564 0.342687250813483 -0.254677920879434 1.11142715824531 -0.0359247203493841 0.274090768152721 0.425128088399512 -0.218394531824469 1.19747756569346 1.18836095281711 0.704014989909881 -1.1919985476892 -0.972784091490466 0.550923102189037 -0.112550496921693 -0.365718666805303 -0.0257809522910964 0.48240786634617 0.179063615767884 -0.572311841220312 -0.714076739819724 -0.601428026808043 1.02921669138344 0.258078203052421 1.51978266384295 0.576295763509192 0.609556051029944 0.190420172560385
0.267672269539001 0.102640699130129 -0.0880980329472566 -0.399332737938156 0.47252403668311 -0.300565917938491 -0.00020954479931829 0.049964736124076 0.0402701395558607 0.0276527144248843 -0.0142464752518116 -0.205159013813049 0.148696074918457 -1.23160534297237 1.7258621321119 0.553538941193042 0.688522301600038 -0.507775385462661 0.11616443765693 -0.385604596815701 0.617768150281755 0.7563024594291 -0.467763641640929 0.00565282448811279 -0.754731001989304 -2.08736650590416 -0.325904640714462 -1.29993597370369 -0.0623389350217333 0.889788667239247 0.584459011826193 1.38182248173472 0.935161158380963 -1.81290318509597 -0.994249192246156 -3.86513429891321 0.404027312773435 0.13066288088829 -2.61238884245673 -0.0514431196775486 0.354425359117872 -0.344794782985277 0.101704560953052 -0.373372836959543 -0.411963789908842 0.530215448033092 -0.529749307270928 2.47797909486848 -0.308885489246885 -0.738882987406261 0.344101099710969 -2.10923192721511 -0.402730706119494 -0.364353925952811 -0.102890096007845 0.497279633563555 -0.156347416860682 -0.322413855756984 0.327666359689835 -0.122419157083944 0.287764916136701 1.22996883665622 0.656350618595008 -0.315794296979992 1.75389691226903 -0.028086459303964 -0.264921447688809 -1.04792942762784 -0.800428223292417 2.14448996085943 -1.15247454188502 0.668137320724024 -0.471562187487712 0.222644048932607 -0.465097666151197 0.602588622175065 2.87485668766714 0.799876721949426 0.415037285038966 -0.183503394411599 0.568263898495813 1.27394084862998 -0.415057339633256 0.869305984493614
0.0123502876506185 -0.0754155589399274 -0.0698246980059689 -0.0993445465813433 0.118029514925954 0.143451798511469 -0.112026249258123 0.139956642680877 -0.30621360022294 0.111739828514024 -0.359315594802576 -0.0222598283319995 -0.84097784161743 0.316012583525539 -0.647170499503401 -0.189793852154079 0.751401939337067 -0.362544898703727 0.203607868077727 0.0514374632535179 -0.816098317628677 -0.453385011754946 -0.424458573482426 0.0888089426038395 1.40927465021669 1.05685372208715 -1.44057910057375 0.698715691923685 -0.137630823963535 0.719142324649379 -0.144391536231111 -0.590290785001822 -0.791829430325054 -0.043314067014915 -3.89041080102484 1.7616395283263 -0.265013493134399 -0.53127885575086 -0.109945713655566 0.761026859045632 -1.01338873139469 -1.08883617199733 0.385468071308415 0.352335053328353 1.1728003874189 0.263407068709686 -0.116542646736436 -0.551373816340209 1.33617025471366 0.962361873103759 -0.439108711721882 1.00701368440193 -0.0856174338996212 -1.15627128796052 0.109809445258464 0.274176900064097 1.12461048288954 -3.25289093224832 1.85336178641612 1.757444518577 0.600961628935695 -0.78317612999885 0.458081386361508 -0.352259977154855 1.92546010977224 -0.699466453658666 -0.566710952989209 1.08010188196342 0.604710552517119 -0.00088805857281641 1.39431649397775 -0.812066829955903 -0.981555405390765 0.1049384928375 0.307467526586468 -0.0484873810113363 0.986044549189657 0.227489547445432 1.24366766721779 -2.26717291299135 -0.239106042633162 -0.792174472190925 -1.09209041558625 1.18704814822162
-0.213290123357148 0.0845720238946787 -0.308199776388257 0.0936079041735032 -0.115150137984156 -0.0345718065653193 -0.12481336711002 0.0149802677147004 0.164864705899966 -0.0626801202348564 0.647679577666162 -0.0662053579568847 0.0221037624507894 -0.489985674775996 -0.0816653932734599 -0.881002955168689 0.433085905680126 1.47246436283468 -0.361540112107732 -0.146751807713003 -0.766118412003791 -0.9312841939283 -0.0562927319533052 0.768931454518321 2.21010165140327 -1.54094360325189 0.0311442707129118 0.180300829969503 -0.261276653731586 0.276691951876283 1.74177750956294 -1.86009344523299 1.12484625292754 1.02693766671944 -0.224976552514712 -1.20442005486057 0.565531845688996 2.81505594437408 0.0815653774121902 1.85087295984262 0.114611235040143 -1.711800776192 -0.192473711593705 0.190295988341894 -0.132456481526381 -1.24487685640944 0.0389514214261632 1.83785907080913 0.511794017626274 0.45599673699602 0.216559793557063 -0.796370510380955 0.14026183246835 -0.527113670782815 -0.470363539813575 0.672648575998673 0.352386989585362 0.87573939549796 -0.123119011002648 0.192489395314881 -0.554755329469822 -0.183667944928855 0.480714795789715 -0.323380847156047 0.101205252977253 -0.669468637252699 -0.436333978624651 0.458462680763212 0.00474856797375399 -0.437199668611528 0.66439071113425 -1.18733636873701 -0.123217484202819 0.295763871046629 0.234150500961922 0.0289927726997885 -0.933329505435756 -0.313319097246204 -1.62038396499983 -0.245044516534824 -0.353107155208541 -0.333793295355791 -0.947330697572783 0.116365497820202
0.176198894106529 0.27819553222771 0.224565690441938 -0.0809467703113806 0.119914903899453 0.0654764505874769 0.172779071559617 -0.503366717151114 -0.363212099629163 -0.313034476273387 -0.155109431328513 -0.0477528172178978 -0.763635498964507 0.588752751885844 -0.303582334607942 -0.395868435329549 -0.133684953981771 -0.427769124201472 -0.51548791962849 0.312008349532186 -0.138489571975466 0.972881536249904 -0.382766357503216 -1.10465256202784 -0.52766388657489 0.441552029792951 0.91702023518403 -3.5655947648261 -1.22713034023356 -0.237362321370614 1.62641217035544 -1.09607305232422 -1.26527315013352 -4.5218037341354 -0.911787528735286 -3.58305383181715 -0.308941282156642 -0.923328947749518 -1.24280943342623 0.0856431449179424 1.19036538380543 0.587932056181029 0.660041949495392 -0.243963625324598 0.0183772074553056 -0.0773184314058841 0.327107145041347 2.68330420185988 1.11626931432575 0.031913544381084 0.599420510497519 -0.154016198829493 -1.53231035751998 1.31307250429458 3.30034267344168 0.441783428957843 -1.91098969155085 -0.0844514392187519 0.850899723587605 0.60405517866011 0.598494142507404 -0.0640070658904168 0.0643819325375408 0.411341840375651 -1.58845036602446 1.00266877941582 -2.4045507405346 4.36505625382964 -0.494447822005651 1.39241619261363 -0.621308043284227 1.18416465751689 0.480041167109698 -0.397238575495889 1.17495728474587 0.461111686980852 0.685932944944903 0.422255139212294 1.68092878516311 -0.660315000509964 -0.0439558140322137 0.578411008986482 0.807358628280913 0.301699773846459
-0.632117212496668 0.966196414376192 -0.251894188925791 -0.0201227284891362 -0.0569306223178557 0.308699855694606 0.0351755012755026 0.00324473051214334 -0.0385873534067341 -0.457019007084473 -0.454927672854222 0.258995572186124 0.609885666284822 -0.440167234346168 0.684386170082696 0.281909488824216 -0.504156045413577 -0.103815949777594 -0.235610372582203 0.34779140217062 -0.968220128628259 1.64814158037947 -0.451903799989458 -1.22682515044608 -0.446160986937221 0.883301005986243 0.409856771957415 0.857602328953775 0.998810326896348 -1.87476518072784 0.397330363831296 3.02626424657775 -0.883785401571416 -0.196395156108064 -0.311086866635552 -0.323710976631292 0.303818104645948 0.659035106017931 0.428157617688306 -0.838826857824673 -0.231416134163455 -1.43677824073531 -0.196005377070313 -1.75943275162379 -0.276271062506364 -0.276578823395669 1.24575488768511 2.66340927299307 -1.53663957878492 0.899051318699665 -0.0231414591502356 -0.672307647895733 -0.381339395986386 -0.504976998228575 -0.915918518048964 1.17260524078984 0.875187637044786 -0.717235595530674 1.15687421134016 1.15261646670616 1.92672200655145 -0.282170455660177 -2.72617346825784 -0.963644595807807 -1.69964177851769 0.945713474520375 0.8363192622078 -0.127264398486586 -0.445735726694187 -1.07036177689277 0.706815176915249 -2.75694055833198 -0.0616516795020059 -0.195654678780411 1.8352666288318 0.898402115487054 -2.36975164856732 0.508446700151029 -0.0082249547609719 -2.36313388956161 1.83138272240419 1.44951470788112 -0.436767209283364 1.93950243953858
0.0468238781259506 -0.218766827369761 0.0689242981443583 0.175765149227449 0.292027288754 -0.533939174816561 0.201395949171549 0.0967947848944237 -0.207858413626598 -0.423409821045102 -0.748118899407625 0.0496217511396704 -0.253991436690257 -0.204591314528516 -0.235990381432991 1.44854026028674 0.642704495620998 -1.59433278990618 -1.03839681047505 0.536634203756996 0.0689134995166633 0.480300848394743 -0.211045037237336 -0.0854271723640438 -1.69058841474641 -0.229100342743259 -0.831958416390331 1.36762588585845 0.13909815177913 2.06409854854379 -1.32624451609074 1.07461566487403 3.51902542578153 -0.135071034979471 1.09709197998029 0.0582848216528366 1.41465365235969 0.897483975022801 0.436112092536538 -0.608052213568333 -1.06074379915915 -0.981521981066947 -1.69662124808531 -0.253812745112924 -2.55134060055472 0.258240696688212 -1.96343785493458 -1.61360525501943 1.8684281860422 -0.693758350481163 1.58249466574052 -0.416071382195847 -0.862468910501623 -0.651790255275366 0.59497250432794 -0.0785985830080997 -0.567946624529728 -0.418562779871178 -0.0251127229249268 -0.290919143864353 0.570636768376682 -0.826302249469836 1.51180916284116 0.0548081777554354 -0.613077432099224 0.35317194697471 0.386802473159288 1.38251899322104 -0.284313469037255 0.14819213895936 -0.620997454182906 -0.611827876608811 1.43274238218943 -0.695010734183591 -0.392711893610247 -1.39377219171989 0.328134043113098 1.14922081251647 -0.388578847415104 1.47101400429118 -0.132721819235457 -0.660568511150611 1.34682541492636 0.706527727730418
0.241154182352634 -0.188146547210236 -0.313670823976839 -0.22917721868804 0.364340042002917 -0.1389485136525 -0.442838352039564 -0.119727984796257 -0.292460005192347 0.165364270985948 -0.016966443880018 -0.580409526440594 0.169448723356464 0.456967070827464 -0.20387217734607 0.284590890924941 -0.249503835552464 -0.130846200448921 0.504466120294531 -0.121852486240143 0.539703070903821 -0.567166809344045 1.58393525409706 -0.748108357890113 1.14712073653999 0.60127736024068 0.36684686628924 -0.472982207029595 -1.21443809603927 0.143725106636224 2.54875612899307 0.724216908335446 -1.21767691301719 -1.31353633106509 3.05887224556369 -0.487423828910465 0.459625075901516 -0.242721783139681 -0.600044259801993 -0.205183953500821 -0.152537043945471 -0.689207757348482 -0.248001283641769 0.426733484383491 0.0702995805143626 -0.300081265243135 -1.29793385670702 0.472979635927763 0.811012935314914 0.736022122397654 -0.387130031532701 -0.857098135884495 -0.233520838123234 0.541004562651244 -0.894383997543807 0.0370169244076714 0.0515212811732452 -1.3488326741267 -0.366311819997975 -0.425308579748127 0.125596524728085 -0.514752327394319 0.305296745309603 1.0360709917577 0.150276016994299 0.315674483634615 -0.550028358751457 -2.55256650190828 0.211859048077387 1.2724825196708 -2.00987709622644 0.58264047150033 -0.701603039281163 0.287898870542155 1.36009538570233 -0.169339965748965 -0.434006360136027 -0.185997106078579 -0.411352896113529 0.75398718222927 0.504473576489844 -0.0540823557082262 0.533319796385202 0.934984780795279
0.588112804639828 0.731730696329652 0.109695031226934 0.376031613364145 0.22637214658919 1.12292718252004 -0.194350615931157 -0.18147788038825 -0.317955308069894 0.137866594001541 0.388130704365765 -0.290313392272704 -1.30330540265469 0.564248608764581 -0.61444808648593 -0.657131719331608 -0.207924233833501 0.687508001927264 0.604309203521124 0.399124735799937 0.478156292356566 0.0237762641925876 -1.56474352158134 1.53625956993413 4.92775577374036 1.79138177721015 -0.514584434444681 -2.53987014395105 -1.41580756286194 -1.64851130482293 -2.05992436471933 2.66982211518276 -0.276559797242111 0.920859147329577 -0.250391379904914 -0.303924548261798 -1.00231139626115 -1.51382593511828 -1.22574503056641 1.09677444890402 1.06096799923892 1.33375033366927 -0.52385839875316 0.0426980310159376 -0.519328374435137 -0.740194763561012 0.738853676845375 -0.461400164606416 1.23674111888204 -0.13649876782685 0.0995093542087826 2.27505591120865 0.171605620683435 0.593702122912687 0.034744327498255 0.421019210561591 -0.266488277145306 -3.60959968690331 0.134690769018499 0.998187606032607 -1.21974896398371 -0.795391949023648 1.13359082736879 -0.336412991012545 0.0742871023458072 -0.948302316955143 0.628657023650993 -1.54549471060494 -0.794566111115169 0.715197997328714 2.19931665054805 -1.04019195377424 -0.635392282010431 -0.830848728839585 0.0932217246783178 0.291181139141047 -2.42250577306907 0.586212760385886 -0.326573641411181 -0.691041724285338 0.436409054798149 1.29161048886108 -0.0582971629416308 0.0131892381784413
-0.0251168366878582 -0.0463119717511742 0.0459988115480213 -0.227547654346838 0.292512969890088 0.353012024440752 0.404820754798829 0.277048563700399 -0.295125723571895 0.605091075588273 0.308915314028138 -0.0793174630803622 -0.469406061491291 -1.13201114240313 0.157993179143426 -0.302507871152296 -0.0531559877181111 -1.04103810338719 0.512731184244084 -0.463062639051069 -0.817392096070603 -0.131530370646449 0.250641805223363 -0.333885597911565 0.717334068730844 1.57944688162872 -0.506597049492997 2.30535686052062 -4.50604210857391 -3.53494080323257 2.26279972588508 0.839961742173373 1.68478209547892 1.31365614441047 0.259309246609643 1.22063753677689 -1.96979567554506 -0.461305805169177 -1.54562018037435 -0.221929025513093 0.233531893861112 1.1034616276592 -1.21899537403671 -2.40819861981402 -0.366771533005559 -0.753394029036598 1.26108996745265 -0.0249481724076707 0.224786033868951 -0.753499187101532 -0.00494757125556056 -1.35948089236445 0.0601840945762283 0.590101551906977 -3.69088224311396 1.21981015620731 0.48775472971626 2.28272602219424 -1.16166520249414 0.0701602267950613 -0.267403589397543 1.96841293697974 -0.244098093950418 -1.17536043351314 3.82941038161691 0.348272198213227 0.523841686591251 0.836428534035665 0.278314574242538 0.0618925917436762 -0.320118633151445 -0.629739200412135 -0.00388596330907563 0.331066384752638 -0.592111896429517 0.150361377575125 -1.38541688209603 -0.0907946045487906 -0.892466469797407 0.631309372301014 1.47170511646365 1.34430522091051 -1.48829155149288 2.29513441674627