8.750864 0.000000 0.000000 0.000000 8.374586 0.000000 0.000000 0.000000 5.184905
9.169165 0.000000 0.000000 0.000000 8.763753 0.000000 0.000000 0.000000 5.037144
9.287068 0.000000 0.000000 0.000000 8.684343 0.000000 0.000000 0.000000 5.215353
8.947176 0.000000 0.000000 0.000000 8.434908 0.000000 0.000000 0.000000 5.271606
9.025647 0.000000 0.000000 0.000000 8.578793 0.000000 0.000000 0.000000 5.239101
8.147102 0.000000 0.000000 0.000000 9.165816 0.000000 0.000000 0.000000 5.243181
9.196545 0.000000 0.000000 0.000000 9.167034 0.000000 0.000000 0.000000 5.497628
9.327489 0.000000 0.000000 0.000000 8.685999 0.000000 0.000000 0.000000 5.186116
9.396744 0.000000 0.000000 0.000000 8.482519 0.000000 0.000000 0.000000 5.251629
8.900223 0.000000 0.000000 0.000000 9.499595 0.000000 0.000000 0.000000 5.248596
8.817352 0.000000 0.000000 0.000000 8.565314 0.000000 0.000000 0.000000 5.236777
8.762117 0.000000 0.000000 0.000000 8.246846 0.000000 0.000000 0.000000 5.270012
9.051136 0.000000 0.000000 0.000000 8.489743 0.000000 0.000000 0.000000 5.086205
9.176822 0.000000 0.000000 0.000000 8.536407 0.000000 0.000000 0.000000 4.952587
8.839818 0.000000 0.000000 0.000000 8.416705 0.000000 0.000000 0.000000 5.428080
9.368664 0.000000 0.000000 0.000000 8.522312 0.000000 0.000000 0.000000 4.958520
9.027407 0.000000 0.000000 0.000000 8.664763 0.000000 0.000000 0.000000 4.967817
9.056157 0.000000 0.000000 0.000000 8.737886 0.000000 0.000000 0.000000 5.050350
9.119387 0.000000 0.000000 0.000000 8.343247 0.000000 0.000000 0.000000 5.173346
10.288604 0.000000 0.000000 0.000000 6.344278 0.000000 0.000000 0.000000 5.036523
9.862907 0.000000 0.000000 0.000000 6.003677 0.000000 0.000000 0.000000 4.830742
9.954751 0.000000 0.000000 0.000000 5.834656 0.000000 0.000000 0.000000 4.797716
9.944162 0.000000 0.000000 0.000000 5.943677 0.000000 0.000000 0.000000 4.747331
10.117430 0.000000 0.000000 0.000000 5.953154 0.000000 0.000000 0.000000 4.800453
10.234438 0.000000 0.000000 0.000000 5.750626 0.000000 0.000000 0.000000 4.772942
9.876501 0.000000 0.000000 0.000000 6.033058 0.000000 0.000000 0.000000 4.846714
10.027676 0.000000 0.000000 0.000000 6.061971 0.000000 0.000000 0.000000 4.776580
10.143275 0.000000 0.000000 0.000000 5.810526 0.000000 0.000000 0.000000 4.705984
10.121674 0.000000 0.000000 0.000000 6.000844 0.000000 0.000000 0.000000 4.782140
10.073360 0.000000 0.000000 0.000000 5.983090 0.000000 0.000000 0.000000 4.687564
9.770676 0.000000 0.000000 0.000000 5.998104 0.000000 0.000000 0.000000 5.005492
10.588990 0.000000 0.000000 0.000000 5.768591 0.000000 0.000000 0.000000 4.919314
9.716134 0.000000 0.000000 0.000000 6.051704 0.000000 0.000000 0.000000 4.957758
9.925335 0.000000 0.000000 0.000000 6.073874 0.000000 0.000000 0.000000 4.961693
10.137300 0.000000 0.000000 0.000000 6.178878 0.000000 0.000000 0.000000 4.761728
10.230323 0.000000 0.000000 0.000000 5.937545 0.000000 0.000000 0.000000 4.687145
9.989458 0.000000 0.000000 0.000000 5.999402 0.000000 0.000000 0.000000 4.760854