5.15083 -0.938424 2.33523 1.10954 3.02864 -0.238985 4.14112 4.36048 4.91385 1.88158 0.136165 2.468 6.63007 0.817002 4.97615 8.19295 4.60799 2.72044 2.4292 5.27198 2.27301 3.57145 1.13038 5.06957 7.76138 1.51508 2.55048 6.99196 5.99035 -0.00649297 3.68134 5.31315 3.19526 2.51608 1.2468 1.00472 7.8628 1.7636 1.00437 7.2802 5.9968 3.62914 5.54023 5.41538 0.215411 9.09307 1.0672 3.21734 4.85668 0.59278 0.466359 1.30535 4.33438 3.00447 2.13067 6.77047 1.97666 3.08671 0.0556744 4.01759 7.34194 2.89617 3.08241 7.91219 5.07569 0.806145 6.65955 0.608232 3.08402 7.17408 -0.991419 0.646769 2.69851 4.54231 0.994469 3.78007 2.53877 4.43174
4.99991 7.19382 2.22035 9.82913 2.98407 4.4117 3.89902 4.59255 0.513282 1.7603 0.0238536 2.79501 6.80094 0.327797 4.45557 8.24111 4.60636 2.32951 2.15733 5.49563 3.09347 3.63029 1.19099 0.225882 8.04001 1.41594 1.89859 6.98979 6.0413 4.65427 2.32311 4.92045 4.53462 3.20125 0.683618 1.63775 7.90954 1.658 0.35487 7.23112 5.95335 3.14487 5.50055 5.81737 0.0965649 9.4062 0.888194 2.39453 4.94614 0.428531 4.85122 0.978842 4.90154 2.3012 2.28442 7.01549 3.05888 2.34764 1.13107 4.33374 8.01627 2.86535 2.55416 8.00798 5.08794 0.332014 6.90894 0.653127 2.56013 7.36899 -1.26915 0.078383 3.42143 4.93752 2.37336 4.0105 2.69461 0.47513
4.76678 -0.990698 3.51251 9.60449 3.37131 0.0397429 3.86969 4.45256 4.94962 1.94217 0.182434 1.92818 6.80251 0.425895 0.560475 8.22762 4.66689 2.24299 2.26549 5.45447 2.35397 3.45317 1.1328 4.59846 8.41348 1.47663 3.02231 6.82946 5.81779 4.92249 2.50385 5.20194 3.87956 2.1564 0.650667 0.0497562 7.5317 0.416082 2.31047 8.02094 5.1421 4.07523 5.36465 5.68 4.48391 0.680652 1.25838 2.9249 4.62627 0.336205 0.0193699 0.871239 4.79673 2.0461 2.29068 7.03952 2.2519 3.5415 0.648364 3.19033 8.21929 2.75334 2.11688 6.92225 5.35697 1.2198 7.8957 1.54596 4.53058 7.08525 7.4003 4.75405 3.39982 4.77474 1.57844 3.43822 2.68667 4.76897
5.28734 7.15261 1.97059 9.62695 3.28189 5.13316 3.81268 4.40695 5.05028 2.148 0.261077 2.99437 6.63923 0.654399 5.02297 8.13685 4.53294 2.05145 2.2004 5.44846 2.46062 3.79048 1.23566 0.582603 8.07989 1.41127 2.52651 6.76918 5.87658 4.60343 3.22965 4.70491 3.21182 3.7099 0.790162 2.04847 7.40121 0.384196 1.57354 6.64435 5.06788 3.20972 5.47654 5.68163 0.064765 9.41799 0.978033 3.28086 4.70997 0.0828589 0.0434446 0.807298 4.86299 2.90437 2.25383 7.04551 2.373 2.6229 1.26958 4.8612 8.50429 2.65568 1.66851 7.89829 5.20253 0.247382 6.96517 2.01848 3.49589 7.00632 -1.0563 4.19632 2.35136 4.98941 0.884594 4.41469 2.68213 0.549466
5.15357 7.37165 2.75746 0.619282 2.96707 -0.259095 3.60494 4.48009 0.0428843 2.14323 0.220987 2.16986 7.06662 0.34635 5.01561 7.96209 4.53891 2.74386 1.88122 5.54242 2.82087 3.95967 1.32197 4.69857 8.33622 1.54637 2.17857 6.65944 5.72427 0.134324 3.16766 5.51478 3.80641 3.65858 0.494012 0.672826 7.04932 0.826484 1.57025 7.06216 4.55495 4.36814 5.27033 5.26056 0.868772 9.68177 1.00648 1.44806 5.59049 1.50454 4.67782 0.435692 5.31437 3.51779 1.88952 6.92845 2.16263 3.48341 0.775554 3.42742 8.45728 3.04802 1.73762 7.48808 6.07326 1.29195 8.33961 1.1566 3.67407 6.57414 7.11642 4.61827 2.18745 4.38715 1.70797 3.16759 2.69728 4.86447
5.10516 -1.18502 2.39975 1.35741 3.35771 5.12973 3.80986 5.87782 -0.200575 2.76481 1.38445 2.376 6.92649 0.181305 0.23033 7.4098 4.86953 2.12699 2.6312 4.45001 2.49582 3.77684 -0.0893586 4.9416 7.47487 1.68637 2.79253 6.94619 6.26548 4.94356 3.10591 4.57243 3.93878 3.50327 0.0611029 1.19069 6.60091 0.598595 2.1346 6.41098 6.12932 3.41677 5.60029 6.38989 0.544423 8.9835 1.53486 2.39081 5.29982 -0.0128178 4.58473 1.04726 4.45766 2.83754 2.89911 5.66125 1.57735 3.25658 -1.47025 4.37051 6.8744 3.0864 2.47505 7.81425 5.08793 0.200656 7.51752 1.61387 4.40311 7.66424 -1.52427 -0.164411 3.18355 3.22909 1.82766 2.9279 1.07379 4.24435
9.80488 7.6775 2.99232 4.69275 3.02114 4.40019 3.39919 5.92425 0.396468 1.77908 1.47276 2.35264 6.26956 0.294039 4.9611 7.97068 4.7673 2.13076 2.11867 4.73197 3.06737 3.1608 0.0894115 5.05188 7.62846 1.53665 2.34362 6.58225 6.03939 5.0539 2.43236 4.93292 4.60599 2.23838 0.732528 0.651218 7.19158 0.669297 1.1061 6.98495 5.30314 3.73682 5.19622 5.49138 -0.0217944 9.06469 1.23945 2.84698 4.35755 0.907842 4.72654 0.631951 5.16791 2.87163 3.11193 5.46937 2.15848 3.62412 -1.31561 -0.0168482 7.70672 2.9811 1.73294 7.68914 5.92286 0.570005 6.72391 1.49719 3.57786 6.44447 7.55836 4.8161 2.49716 3.2051 2.80013 2.29611 0.140745 3.7911
9.35272 -1.03719 4.64347 4.6348 3.44942 2.82974 3.40634 6.18175 0.73561 1.9584 1.56499 2.98849 6.55546 0.323772 4.87094 7.71179 4.40493 2.03463 1.64278 4.81248 3.3342 3.43074 0.689312 0.379306 8.20025 1.26082 2.12516 6.29332 5.60288 4.82288 1.68345 5.72165 4.7068 3.47794 1.50069 1.67323 7.66993 -0.0927698 1.37199 6.60127 4.81259 3.56995 5.00635 4.85223 0.174341 9.63563 1.61862 1.88989 4.63025 1.10135 4.60677 9.42961 4.74383 2.79161 2.59175 5.45572 2.18961 3.51082 -0.751717 0.789178 7.27623 2.49109 1.92268 7.38375 5.63497 0.670638 7.89398 0.76247 3.74021 6.12078 7.11804 4.7268 2.22413 3.29195 3.58647 2.12768 0.725189 4.6588
0.844474 -0.981268 2.50654 4.84929 3.22447 2.52861 3.25026 6.01224 0.594208 1.82082 2.04916 3.24201 6.70596 0.213147 4.99495 7.76258 4.41428 2.27921 1.61136 4.80023 3.26807 3.3162 0.70816 0.540597 8.16308 1.26566 2.27904 6.2408 5.4982 4.87952 1.52095 5.60377 4.56525 2.94771 1.94698 1.4373 7.55629 2.51527 1.65016 6.45595 4.82982 3.52291 4.80354 4.89826 0.180456 8.12408 0.09778 1.28213 4.84621 0.811609 0.408827 9.6223 4.29526 2.83243 2.07218 5.63742 2.12273 3.07134 -0.714268 1.31077 9.53924 1.27931 3.10324 7.41202 5.22478 0.631023 7.17984 1.17092 3.44285 6.22639 6.99795 4.53814 2.59661 3.60489 3.70746 2.50214 0.610896 4.45656
9.47975 7.41879 1.71672 4.57678 3.11499 2.95098 3.32736 6.42733 0.249581 1.9262 1.31426 1.89436 6.67552 0.0496552 -0.0443953 7.61349 4.66509 3.19525 2.03748 4.53879 2.74535 3.2699 -0.140246 4.44072 7.58601 1.72277 2.61087 6.7637 6.46091 0.530419 2.9109 4.97733 4.01755 2.59801 1.0225 -0.0374435 6.91551 3.08816 2.37913 6.89823 5.81378 4.41534 5.18402 6.45163 0.771694 6.75162 0.782289 1.85838 4.88884 -0.323641 4.26583 9.47955 4.57992 2.86192 2.42022 5.72089 1.6446 2.53804 -1.5909 4.75038 9.05652 1.49936 2.37714 7.55098 5.64309 1.52596 7.47376 1.42939 4.18342 7.26378 -1.60893 0.52679 2.48342 3.08332 2.10679 2.76854 -0.0390829 2.99371
5.50558 6.83853 2.15521 0.794813 2.9955 0.0694675 3.63651 4.46229 -0.0366747 2.05359 0.167065 2.90386 6.91456 0.591197 4.94031 8.16316 4.7357 1.98517 2.19121 5.3902 2.69039 3.84852 1.24445 0.324759 7.9617 1.62601 2.34636 6.77655 5.80111 4.6602 2.21664 4.73708 4.09817 3.17972 0.396553 1.36991 8.15424 1.43953 0.722766 7.19473 5.90896 3.20625 5.35694 5.22696 4.79038 9.44713 1.39242 2.82446 5.36719 1.31668 0.583642 1.19099 4.52856 1.89203 1.53505 6.82523 2.81879 3.54359 0.653064 4.08885 7.55699 3.07059 2.79196 7.92036 4.82729 0.10469 6.97243 0.621935 2.95034 6.68546 7.24647 -0.0266239 3.55049 5.38969 1.95414 3.16768 2.64409 0.423834
5.20253 7.02342 2.05893 9.57954 3.08318 4.64784 4.1318 4.34606 0.272176 1.85697 0.151812 2.82065 6.35823 0.658971 4.81967 8.34402 4.65744 2.08718 2.71755 5.39167 2.93786 3.34441 1.34043 0.126437 7.76768 1.4472 2.35346 7.06527 5.72612 4.67183 2.82194 4.54724 4.17927 2.48933 1.33832 1.40453 7.38985 1.72279 0.8723 7.00076 5.56935 3.12276 5.58846 5.50562 -0.0688611 8.71542 0.248549 2.40294 4.47811 0.212834 0.20659 1.44465 5.18684 2.17298 2.94096 6.92674 3.22323 2.27667 1.37605 4.24906 8.245 2.92241 2.78134 8.13272 4.80241 0.0879038 6.34671 1.21344 3.10749 7.423 -1.0142 -0.268559 3.93594 4.97652 2.1245 4.29446 2.62106 -0.052787
5.0037 7.28066 1.37065 0.745313 3.33575 4.2804 4.06598 4.33863 0.449431 1.79196 0.0922254 3.11984 6.55068 0.607679 4.51232 8.26652 4.72909 1.89458 2.46193 5.52242 2.94439 3.34695 1.29919 0.618994 8.07332 1.41484 1.98992 7.0303 5.71382 4.68837 3.07088 4.48719 3.95996 3.2774 0.420724 1.97633 7.71776 1.58343 0.48513 6.96873 5.15941 3.25487 5.89195 5.19043 0.635383 9.24822 0.391798 2.21973 4.53733 0.813119 4.86054 1.1214 4.99504 2.45622 2.46741 6.93075 3.6172 2.03758 1.23622 4.78174 8.43462 2.71837 2.60978 8.53129 5.44508 0.203769 6.72677 0.922501 2.66798 6.68823 7.14386 4.64349 3.41636 5.70477 1.73736 3.59112 2.77814 1.14784
4.95803 7.13385 2.19944 0.70888 2.62603 0.0356979 3.8431 4.51362 0.365676 1.92878 0.176872 3.20216 6.89951 0.322102 4.50889 8.18763 4.79475 1.96735 1.9991 5.58611 2.70643 3.85159 1.30533 0.631577 8.24142 1.56024 2.03799 6.64871 5.82103 4.49924 2.37121 4.58008 3.89921 3.56971 0.352743 1.79717 8.11707 1.47804 0.533385 6.61258 5.51552 3.00698 5.14121 5.89148 0.0167971 9.6712 1.32324 2.49008 5.2047 0.688846 0.0226074 0.962224 5.07066 1.79565 1.57698 6.93444 3.34173 2.75428 1.16107 4.60978 7.78162 2.9274 2.62153 7.43475 4.52974 0.166089 7.4208 0.34499 2.54541 7.60931 7.06314 4.68259 3.29058 5.69371 1.9562 3.92707 2.86718 0.987731
5.4769 -1.18004 2.1212 1.0614 2.71539 4.97315 3.68457 4.53892 0.182405 2.02292 0.192746 3.00163 6.98842 0.546993 4.87566 8.07674 5.04247 1.93124 2.27245 5.31239 2.70686 3.71973 1.12881 0.334256 8.07591 1.71994 2.18571 6.67786 5.62208 4.75129 2.45891 4.62772 4.08235 3.66694 0.733725 1.92298 8.21401 1.42637 0.589937 6.90635 5.72861 3.25612 5.17336 5.30923 4.83765 9.56858 1.41424 2.67422 5.13486 0.801549 -0.308021 1.19152 4.44786 1.88168 1.54725 6.73376 2.88497 2.65163 0.375104 4.92891 7.60224 3.1476 2.47582 7.68993 4.66034 -0.0466186 7.05443 0.744834 2.96724 6.90763 7.0173 0.0430547 3.59549 5.38127 1.85452 3.36367 2.66487 0.414776
5.05066 7.01988 2.55157 0.578969 2.7109 4.46058 3.49638 4.47285 0.186282 2.26843 0.096707 2.73478 6.98657 0.493868 4.68046 8.21114 4.98447 2.23177 2.03399 5.57961 2.68292 3.77588 1.28788 0.311299 8.44394 1.44004 2.13167 6.55207 5.63889 4.76058 2.70246 4.2378 3.42452 3.67368 0.282756 1.43275 7.11194 0.876216 1.52317 7.56793 4.66174 4.15219 5.02886 5.48613 4.55405 9.84466 0.813764 1.76033 5.12197 1.03092 4.46003 0.611152 5.52803 3.15789 2.63038 6.77769 3.55478 2.44214 1.05841 4.3304 8.3155 2.92596 1.75417 6.5761 5.73628 1.34624 8.40474 1.37991 3.79722 6.76552 7.07392 4.192 2.26288 5.60218 1.22276 3.81392 2.7743 0.692124
4.56836 -0.985157 2.32752 0.801001 3.24493 4.91712 3.99385 4.33711 4.37267 1.94199 0.104444 2.76478 6.65869 0.328536 0.0274124 8.22456 4.77641 2.58127 2.20583 5.58541 1.97011 3.66118 1.01837 0.325908 7.98448 1.67522 2.52558 6.93723 5.71543 0.203485 2.77343 4.46606 2.92348 3.44688 1.017 1.87888 6.86166 0.88634 1.87713 8.15947 4.99214 4.4388 5.67089 5.26697 4.47956 9.48051 1.08878 2.32089 4.77256 0.0685017 -0.0196384 0.787139 5.37085 1.58014 2.57539 6.90077 2.87653 2.27056 0.558186 4.67103 8.17933 3.08216 1.7575 6.82403 5.46195 1.67766 7.7405 1.97968 3.98949 7.25797 7.22214 5.07679 3.1352 5.55061 0.801883 4.09132 2.37806 -0.163225
4.51769 7.35139 3.3148 9.60545 3.21664 0.395637 3.95445 4.56134 4.39873 2.11282 0.288651 1.81793 6.80272 0.140766 0.544974 7.98776 4.50758 3.04444 2.15604 5.70209 1.40112 3.88828 1.46788 4.57669 8.2377 1.26452 3.08385 6.72813 5.78516 0.6085 3.15369 5.30547 2.67121 2.71153 1.61226 0.464919 7.2733 0.11894 2.58417 7.6652 4.60833 4.87007 5.32766 5.9416 -0.0158027 9.739 1.07501 2.77412 5.08443 0.506333 0.153769 9.72577 5.59264 2.01244 2.32056 7.24885 0.999948 3.31432 0.548834 3.31701 7.879 2.64077 2.23941 6.61657 5.42385 2.05275 8.09634 1.26669 4.59549 7.29086 7.18372 0.356811 2.3247 4.73885 0.188255 4.41031 2.77495 4.14826
5.12736 6.85386 1.9701 0.977719 2.63681 4.30728 3.61347 4.3245 0.779367 2.12574 0.55363 2.27221 6.83654 0.493813 4.84003 8.2765 4.85125 2.11138 2.21435 5.5812 3.40301 3.66326 1.32088 -0.003678 8.27416 1.32211 2.05346 6.62329 5.73384 4.65888 2.34397 5.12808 4.82042 3.53197 0.0846933 1.0396 7.01732 0.523294 1.58854 6.85477 4.8842 3.36472 5.50483 5.18115 0.400305 9.56362 0.801005 1.4016 5.08538 1.53076 4.76671 0.900057 4.89909 2.96577 2.19466 7.18569 3.19258 2.75511 1.43045 3.92481 8.34741 2.88956 1.76382 7.90223 5.71024 0.355755 8.32563 0.851169 3.60237 6.04138 7.18357 4.11911 3.40732 5.03863 2.50597 3.0386 2.50644 0.765898
5.47098 0.165644 2.51114 10.1944 3.33148 5.02513 3.01419 4.67619 -0.125248 2.33427 1.30015 2.41642 7.43629 1.52579 0.000364451 7.9979 4.75563 2.4367 1.19304 4.57874 2.12971 4.10438 1.60892 4.78336 9.11717 1.53357 2.71367 6.43499 4.74082 0.249613 1.32958 4.67638 3.68106 3.93357 1.38733 1.28387 8.999 1.45343 1.16872 6.5408 4.78441 3.71241 4.90731 4.80469 0.629999 0.297269 1.36384 3.25127 5.62468 1.55196 4.41826 9.9276 4.66403 1.79955 1.99587 5.73983 1.37536 3.54181 0.347779 3.95874 8.56253 2.79748 3.48554 7.16322 3.5877 0.999589 8.1643 0.459316 3.40693 7.06924 6.01049 1.01365 1.70212 3.27812 1.54623 3.36071 2.77533 4.22664
5.06104 5.94521 2.59707 0.37961 2.96317 4.79286 2.98735 4.67615 4.75942 2.46675 1.7138 2.40317 7.36856 1.5539 0.298431 8.03911 4.55773 2.48706 1.34727 4.64205 2.07294 4.17766 1.71541 4.61976 9.13002 1.47725 2.82955 6.27642 4.59539 0.371916 1.19259 4.61348 3.62701 4.08377 1.72962 1.2718 9.11464 1.57568 1.28539 6.43093 4.55603 3.69324 4.74367 4.62532 0.690478 0.723902 1.49701 3.26969 5.57952 1.8966 4.1033 9.70461 4.61728 1.55217 2.16698 5.86767 1.48249 3.44393 0.479128 3.99162 8.19252 2.63272 3.53573 6.98723 3.41196 1.07423 8.35817 0.319808 3.53525 6.78795 5.88442 1.08428 2.04942 3.42736 1.37617 3.33923 2.85473 3.77303
5.13117 5.95919 2.56914 0.156631 2.79602 0.118861 2.90848 4.65858 4.75528 2.54386 1.74118 2.28764 7.38804 1.58936 0.399885 8.13951 4.49314 2.54355 1.23986 4.62079 2.00039 4.23814 1.71792 4.45444 9.15324 1.60932 2.9086 6.03445 4.46413 0.449042 1.30591 4.48791 3.52379 4.16512 1.72939 1.17551 9.06643 1.64113 1.42014 6.26053 4.43474 3.72718 4.66038 4.75787 0.907644 0.733396 1.74512 3.12806 5.73345 1.70802 4.05843 9.78001 4.65823 1.47566 1.96335 5.89883 1.36443 3.43833 0.578313 3.68636 8.44126 2.92454 3.67038 6.73584 3.27619 1.2221 8.48834 0.360273 3.61275 6.89484 5.57189 1.19965 1.95911 3.44796 1.21672 3.5285 2.96925 3.82024
5.22321 6.0009 2.60594 0.277086 3.0454 4.68243 2.96287 4.71083 4.74074 2.50776 1.67461 2.50249 7.37437 1.54401 0.138554 7.95284 4.44466 2.40736 1.16488 4.81011 2.25921 4.33006 1.68557 4.56835 9.24434 1.46288 2.81438 6.12854 4.54114 0.316852 1.25282 4.75385 3.75575 4.10846 1.7873 1.4011 9.07546 1.54309 1.29105 6.22696 4.56592 3.56137 4.70259 4.52514 0.880397 0.743695 1.68043 3.23427 5.68566 1.63203 3.9666 9.66153 4.71652 1.7 1.85165 6.05667 1.5235 3.60187 0.392676 4.06269 8.31015 2.70255 3.38786 6.91326 3.30252 0.902373 8.42634 0.334451 3.57442 6.9708 5.6783 1.02489 2.08313 3.62535 1.6518 3.48679 2.76094 3.94341
5.27429 6.16648 2.52716 0.242701 3.09965 4.77717 3.05177 4.62587 4.77279 2.29225 1.70527 2.30197 7.43781 1.631 5.07728 7.93007 4.60212 2.59258 1.19558 4.68892 2.07155 4.2108 1.68906 4.4724 9.23607 1.49833 2.86812 6.20719 4.46988 0.404884 1.38149 4.51325 3.54215 3.99192 1.80316 1.20108 9.11132 1.539 1.3731 6.36947 4.45261 3.65352 4.76822 4.57427 0.890805 0.591889 1.50168 3.28024 5.71769 1.75302 4.15148 9.76492 4.66289 1.7873 2.02598 5.87618 1.46893 3.44246 0.459462 3.80852 8.54938 2.72391 3.49369 6.96784 3.27432 1.21766 8.35146 0.313053 3.55343 6.95809 5.64425 1.08774 1.84985 3.40828 1.34108 3.44591 2.88281 3.75951
5.44733 0.48353 2.37745 0.223692 3.08598 0.158769 2.90462 4.6242 4.85696 2.37071 1.7503 2.3681 7.50324 1.74026 4.78983 7.88677 4.40951 2.67037 1.08338 4.57538 2.11812 4.17453 1.67726 4.48961 9.38266 1.55076 2.71984 6.16033 4.49525 0.522685 1.41314 4.53603 3.58059 3.98245 1.53382 1.22981 9.25237 1.47823 1.22973 6.27891 4.58591 3.73587 4.72902 4.54911 1.00455 0.532373 1.66789 3.24849 5.67667 1.84751 4.11255 9.82161 4.52664 1.73604 1.78136 5.84063 1.53524 3.44285 0.461893 3.82998 8.61393 2.79933 3.44341 6.8573 3.20946 1.24344 8.50983 0.415052 3.40042 7.01757 5.65647 1.11591 2.00115 3.44461 1.32394 3.32887 2.83801 3.86026
5.17061 0.149707 2.57682 10.0454 3.11425 0.139247 3.19839 4.58235 4.62274 2.50911 1.66438 2.34438 7.2936 1.47481 0.210495 7.93771 4.65351 2.5258 1.27842 4.7538 2.08616 4.27812 1.67503 4.58219 9.05669 1.62208 2.8672 6.11102 4.42862 0.4589 1.5618 4.67733 3.58029 4.23977 1.74098 1.27173 8.92571 1.56444 1.32404 6.26415 4.43193 3.83577 4.61794 4.47042 1.05122 0.619049 1.40867 3.35216 5.64716 1.90982 4.0977 9.66426 4.64539 1.72626 1.98789 5.97531 1.40565 3.57641 0.41092 3.94012 8.39438 2.83377 3.41032 7.10804 3.2868 1.0379 8.19009 0.329312 3.38358 6.78245 5.73406 1.10369 2.10933 3.53099 1.29955 3.47826 2.84734 3.94886
5.06168 5.92655 2.58602 10.0629 3.0429 4.86973 3.1111 4.65895 4.63249 2.32872 1.68127 2.2166 7.46996 1.53416 4.91258 8.10718 4.50539 2.66453 1.17869 4.68743 2.10042 4.13375 1.65058 4.59385 9.16612 1.43766 2.78789 6.3119 4.72763 0.444724 1.29141 4.63316 3.6698 3.95617 1.78166 1.33084 8.90125 1.55309 1.32138 6.43287 4.69348 3.68951 4.79905 4.66016 0.832118 0.545068 1.63551 3.23349 5.67566 1.55533 4.15347 9.72629 4.74738 1.71817 2.07159 5.83569 1.56514 3.33909 0.449881 3.97604 8.40757 2.65416 3.57434 7.06578 3.51674 1.04319 8.53122 0.36551 3.58917 7.01631 5.89122 1.16402 1.77396 3.3994 1.51083 3.4725 2.85403 3.81928
5.26327 0.284687 2.47843 10.1888 2.88503 0.339556 2.92608 4.6772 4.57313 2.27712 1.68277 2.33624 7.48372 1.58217 0.289251 8.12298 4.45125 2.60594 1.10495 4.56352 2.13987 4.17507 1.89527 4.41208 9.27222 1.52345 2.91427 6.26669 4.56713 0.472723 1.10654 4.49277 3.6426 4.08184 1.79259 1.25477 9.15568 1.39784 1.3924 6.44103 4.71237 3.63718 4.73799 4.61662 0.800214 0.635924 1.46656 3.40063 5.67787 1.84804 4.05877 9.81235 4.48002 1.59488 1.78448 5.81912 1.40355 3.57479 0.532948 3.79097 8.51243 2.73582 3.58124 7.02007 3.38091 1.02087 8.41891 0.322755 3.50079 6.91037 5.79989 1.12628 1.96861 3.3671 1.53027 3.44705 3.12819 3.74243
5.26516 6.15072 2.47678 10.0073 3.20123 0.0589938 2.94188 4.58101 4.81535 2.36451 1.64051 2.53781 7.44775 1.60318 0.101417 7.90774 4.65791 2.53522 1.24221 4.56575 2.06885 4.26622 1.61517 4.59845 9.16306 1.57743 2.72563 6.23076 4.60721 0.416329 1.38106 4.45079 3.63012 4.12325 1.62717 1.35437 9.11992 1.51137 1.20347 6.22504 4.61613 3.66317 4.81486 4.58271 0.91406 0.461371 1.40187 3.21705 5.73193 1.64466 4.11328 9.83058 4.66573 1.71507 2.08781 5.79873 1.45427 3.46612 0.547145 3.85363 8.3462 2.73714 3.41548 7.20677 3.47492 0.968035 8.43888 0.356568 3.46914 7.12206 5.85563 1.03647 1.98252 3.33636 1.41077 3.54546 2.93364 4.01476
5.47566 0.25516 2.48113 0.192394 2.98605 4.61823 3.07198 4.87037 4.76448 2.50919 1.78506 2.57556 7.27251 1.42774 0.0746491 7.9796 4.39429 2.56085 1.32076 4.79227 2.0704 4.17766 1.82613 4.56478 9.17132 1.40432 2.70987 6.03426 4.44415 0.561641 1.35718 4.67329 3.61374 4.17855 1.8644 1.4121 8.83423 1.58175 1.19379 6.15456 4.36376 3.76356 4.63403 4.69298 1.15293 0.535499 1.45033 2.93743 5.62451 1.75577 4.07573 9.96326 4.73329 1.50545 2.13632 5.90879 1.39197 3.52074 0.56887 3.95219 8.36266 2.60553 3.35245 6.68937 3.22856 1.20633 8.37813 0.130314 3.42195 7.17549 5.5803 1.15003 2.07033 3.41027 1.48527 3.34591 2.98491 3.92547
5.29703 3.224 2.52074 0.527289 3.06681 0.0769574 3.0047 4.71748 0.0272232 2.56381 1.59618 2.40927 7.32935 1.84075 4.88758 7.80138 4.71392 2.45159 1.28763 4.68637 2.25725 4.14547 1.66105 4.69731 9.11158 1.6556 2.73653 6.21304 4.80364 0.201711 1.37643 4.57389 3.80264 4.14967 1.6391 1.19648 8.92144 1.77523 1.23542 6.262 4.84937 3.68695 4.78593 4.80697 0.931267 0.780963 1.52986 3.27533 5.60366 1.46217 4.1585 9.65833 4.87803 1.78799 2.17842 5.84847 1.54647 3.42782 0.525076 3.92811 8.4407 3.07625 3.36156 7.02733 3.59588 0.914047 8.09005 0.674504 3.39496 7.05724 5.966 0.856492 1.98838 3.48125 1.65499 3.56917 3.05492 4.03824
5.62258 0.792532 2.39802 0.204117 3.04228 4.68625 2.98389 4.69124 0.280703 2.05166 1.58771 2.464 7.53983 1.69074 4.89829 8.21037 4.29512 2.47469 0.889016 4.67838 2.07346 4.09496 1.82831 4.62617 9.39409 1.41312 2.69941 6.36727 4.53671 0.38039 0.912525 4.96442 3.56389 3.87386 1.43916 1.23119 9.15859 1.32322 1.23663 6.67847 4.39669 3.80534 4.87317 4.84107 0.784488 0.283382 1.65981 3.20793 5.60799 1.83761 4.2406 10.0166 4.36808 1.63878 1.37469 5.83516 1.10472 3.40701 0.705778 3.74991 8.51635 2.67798 3.43578 6.91731 3.29226 1.18422 8.6638 0.230607 3.38888 7.18845 5.62042 1.18835 1.8204 3.49518 1.5571 3.15569 2.90909 4.16106
4.98497 5.81491 2.60573 10.033 3.04894 -0.0394641 2.84831 4.79267 4.8016 2.65167 1.839 2.51799 7.32046 1.45665 0.150975 7.96622 4.75402 2.59108 1.39302 4.65936 2.08395 4.29747 1.65475 4.48737 8.95306 1.63079 2.78717 6.22584 4.40269 0.276293 1.1969 4.81027 3.67346 4.22991 1.70582 1.18673 9.01471 1.51561 1.31929 6.32136 4.50308 3.74281 4.70598 4.56589 0.764759 0.758914 1.80473 3.27457 5.7012 1.2434 3.92238 9.69303 4.28975 1.53013 2.06158 5.89845 1.44594 3.37253 0.433678 3.90083 7.98701 2.56403 3.52481 7.12963 3.20076 0.974801 8.43587 0.279763 3.65397 6.90106 5.62271 0.958923 2.48116 3.55016 1.51122 3.59531 3.06953 3.96561
5.44635 0.54599 2.41186 0.40643 3.08341 -0.134564 3.02255 4.52315 4.71408 2.41252 1.67943 2.45541 7.60753 1.32037 -0.0700462 7.71892 4.41373 2.45423 1.15335 4.78222 2.2648 4.07426 1.57197 4.84177 9.28157 1.67178 2.78582 6.1169 4.56999 0.196514 1.16478 4.76461 3.84402 3.90286 1.66937 1.33757 9.2211 1.54567 1.22745 6.33614 4.41266 3.71712 4.75601 4.74221 0.744268 0.775758 1.58024 3.4123 5.57903 1.63599 4.43279 9.67643 4.74579 1.71205 1.96688 6.06903 1.77019 3.53496 0.340222 4.12303 8.66063 2.86658 3.47847 6.89516 3.39518 0.936163 8.36589 0.596609 3.38328 7.08882 5.72713 0.96155 1.98559 3.62151 1.52976 3.29301 2.83496 4.0465
5.59578 0.382327 2.40177 10.1193 3.28799 0.173543 2.93027 4.84907 0.258124 2.32764 1.49367 2.682 7.44583 1.31675 4.7404 7.94683 4.47639 2.30713 1.17597 4.73922 2.33677 4.11074 1.68606 4.63225 9.17686 1.45161 2.70475 6.34178 4.55268 0.11754 1.30704 4.76006 3.89541 4.05089 1.74667 1.41804 9.24388 1.30694 1.15748 6.43181 4.81189 3.32622 4.81386 4.72813 0.508818 0.473858 1.63998 3.1676 5.60374 1.50166 4.30072 9.85849 4.68019 1.85878 1.91535 5.96839 1.82549 3.20858 0.501795 4.13972 8.34692 2.65637 3.34307 7.24691 3.39131 0.576113 8.523 0.173724 3.53642 7.07932 5.73199 0.920468 1.93535 3.55199 1.63283 3.44714 2.8893 3.82608
5.21964 5.74447 2.56882 0.342817 3.14325 4.5142 2.89764 4.54871 4.70675 2.32061 1.74723 2.42895 7.40119 1.65948 4.90498 7.98028 4.62709 2.51778 1.14695 4.74045 2.13058 4.19886 1.6099 4.58446 9.2714 1.64123 2.72441 6.22591 4.43713 0.552178 1.37912 4.71588 3.64586 4.03017 1.64999 1.40782 9.24783 1.61727 1.22032 6.5195 4.49066 3.73768 4.76021 4.24525 0.888553 0.51529 1.52759 3.20778 5.646 1.70174 4.01815 9.89422 4.71671 1.7879 1.81983 5.95065 1.43463 3.50483 0.287285 3.94115 8.66107 2.89697 3.45911 7.14225 3.33831 1.20568 8.34024 0.572883 3.36401 6.7957 5.74023 1.1052 1.87917 3.51306 1.51359 3.4102 2.72676 3.82552
5.14407 0.06417 2.41398 0.242375 3.08169 0.143759 3.04805 4.62238 4.95578 2.4602 1.70716 2.26146 7.40104 1.45894 4.96244 8.05158 4.50786 2.54566 1.12763 4.68202 2.29151 4.24352 1.70076 4.38963 9.17104 1.54578 2.87166 6.19333 4.55361 0.355213 1.42406 4.70936 3.77447 4.2652 1.65597 1.14942 9.01917 1.51296 1.27672 6.4199 4.69891 3.61393 4.75651 4.47935 0.865245 0.608857 1.55572 3.35272 5.71589 1.71958 3.94105 9.69873 4.50582 1.79172 1.84441 5.9207 1.5391 3.34009 0.580349 3.80775 8.40177 2.85458 3.43964 6.98943 3.36744 1.04576 8.25802 0.466143 3.47003 6.75568 5.77422 1.02851 1.90449 3.50148 1.49706 3.51709 2.95841 3.72094