-30088.90966947
-30088.4362150352
-30087.5142580395
-30087.4212257671
-30087.0285523657
-30088.4620756327
-30088.2031735979
-30086.8625454578
-30087.1157415405
-30086.1712950278
-30088.4817954404
-30088.3792155147
-30088.2589096945
-30087.4506242509
-30088.5929582403
-30086.9807285191
-30087.2746747167
-30086.6783695183
-30087.8795940824
-30088.5399236885
-30087.6374435029
-30086.7222460836
-30086.6697904537
-30088.1389915002
-30087.2188218833
-30087.0237022111
-30087.4742811356
-30086.6786481627
-30087.7189265896
-30086.0260985594
-30087.4868031278
-30086.407646048
-30085.3172093112
-30086.260930913
-30087.112037801
-30087.3502470856
-30087.2665163398