-0.042719114050961 -0.357463115932529 -0.0293095324455065 -0.106176221259486 -0.165479456348028 0.296709522300485 -0.565005541143959 -0.0556363296555633 -1.08564903416623 0.0266427856252251 0.97490679316307 0.553947746384351 1.02179366328391 -0.559731954176085 1.06257390944326 -0.71988588729923 -0.0537684241745236 -1.09779749032303 0.0837454146556501 -0.151849274205377 2.88226300360476 -1.61692866124764 -0.216346392104997 -1.31107604372193 0.920434658417093 1.49128842778841 -0.976545613470867 -0.214795503479858 0.178353734552034 0.447629857413915 0.0455766366271861 -0.337698027708242 0.273673992545733 -0.669981057847842 0.24968124157888 0.359044343559287 -0.168646796695024 -1.12455109043722 -0.0354087002116764 -0.164625850539762 0.15607513717666 0.984409071314242 0.604116627993897 1.00667481318046 0.239695339173085 0.443118859249449 0.0214427321697498 -0.444275597963723 1.46613636700545 -0.513566535229342 1.00744408684863 0.746307815277075 1.75108515530542 -0.503916932943189 -0.816242042221093 -1.35283562256914 -0.372163133547528 0.268862432577092 1.04353078661344 -0.114296789286074 0.297977589724089 1.69991714352391 1.05585870567811 1.28247536405154 -1.37131027478388 0.29189282012818 -1.27273808719291 -1.40960349414102 -0.253879850870742 -0.793338152880146 0.431390778242205 -1.01227801540321 0.0867908847758036 -0.954088581628343 -2.14614240800693 -0.14289644051573 -0.380418170199936 -0.0724035131435915
-0.0201638661184502 0.114025538042784 -0.176835756030346 0.0644004444707321 -0.114784270193445 0.117834882517262 0.586563458675788 -0.552921619643149 0.266877027742324 1.7477589208652 0.224603742749054 0.0501971637297002 -0.507617519810168 1.2443613504921 -0.112642028146917 0.198491632541979 1.66388983621142 -1.80448025549392 1.43274983838474 -1.64953306069101 -0.644037354810772 -0.202187848535844 1.27053850957553 1.13804191886056 0.616504196621082 2.4362956206355 0.251300007292387 0.475694719462489 -0.404912800244419 2.99758540541167 -1.25297094208716 0.347896817345737 -0.0667853985302124 0.12039004351803 -0.94855094250231 -0.211793227870484 0.327156767306707 -0.766419488028333 0.907463192563833 -1.15713132152337 0.485666995028574 -0.784680995901193 0.0487810008405651 -0.260591969313691 -0.414354400392353 -0.955965485965796 0.12047411854794 -0.835652318392547 -1.52515883777392 -0.0432130227129124 -0.346922626861544 -0.487382434170968 0.224280298138572 0.855324075620328 -0.288260367459752 0.663116215956065 0.310757508490856 1.02980855902519 -0.242358229340618 0.277442199390897 -0.227185643208875 -1.78251070455877 0.154907599834691 -0.565506134670674 -0.244401998186975 -0.0690795926950187 -0.993362419224255 -1.05711751713512 -0.412159450758267 0.172632261645003 -0.977516204412495 0.132927507382027 1.25019595187974 0.373286190827801 -0.888700834054075 0.111765025311979 -0.123603663698004 -0.692534248898887
0.761036629232594 -1.24802465638251 -0.453019658184601 0.275755813699205 -0.231390166034951 -0.13495893493959 0.226901279346242 0.681270251772342 0.0328494254479779 0.593229554395942 0.230136496781606 0.244220992617994 -0.587761077909193 -0.662720523384101 -1.23631123065571 1.24895745212721 -0.325867873958262 1.22366320941293 -0.818444705160675 1.07045716477074 1.44016875272134 0.460167064167729 0.591535712508937 2.42466858393026 -0.104887842131408 -0.0284950073850889 0.104886299470308 1.98170167679909 2.78270402713062 0.153358768091018 -0.199920908050458 0.0484886665622523 0.0451814582755883 -1.2870048741492 -0.318003387674155 1.34609547911622 -0.1581896113234 -0.70133230225824 -0.350896521853279 -1.7309637123672 0.0630205341174299 1.58640736850865 -0.535644329551627 -1.38466277792867 -0.494644511295809 -0.965713304341936 -0.445106063855499 0.178865383816627 1.93386632721238 0.953697259929494 1.63713495054632 0.413823210753836 0.471263682565002 -0.831417456564851 -0.175787774923572 -1.52746511611734 -0.662898700741067 -1.39193848189322 0.55306894377813 -3.83828633936178 -0.461531033689672 0.285621902759624 0.671328829428243 -0.866059711320371 0.620625929968163 -1.85349316971974 0.91780622101411 0.709306317480397 -1.41213140146237 -0.209317256806147 -1.27700225958149 0.872241411455352 0.176569389880538 0.175858223113772 -0.436617314046551 0.503350004989205 -1.08698472156802 -0.256395159793112
0.0423560744722648 0.0628747526435484 0.110922989461957 0.347248385463675 -0.0494723701232238 -0.586585570151545 1.20926169672065 -0.202703354453185 0.697969043951636 0.779546505542437 2.23444278666838 1.95459789261536 -0.607608184281925 0.250128099077304 -0.204401824323488 -1.56574625129587 0.208043018738145 -0.0306359638807004 -2.61774239069158 0.82186401348722 -4.5751481836178 1.18885049060594 0.586500980901268 -1.81547402981791 -0.470548144925121 1.42964780402428 0.298358369905427 1.90887007520044 -1.24237851675916 -1.71511466934343 2.55121615922604 -0.592922307727003 2.1457233184083 -1.00534889596563 0.522508056070928 1.2149291764892 0.377288367939688 -0.169747742499541 -0.236136677127239 0.896126947475805 0.841759970794763 0.699724592282612 -2.82062957892576 -0.443209619144123 1.11593198576538 -2.74366801645418 0.266301615152294 -0.527342498845874 1.90043377586887 0.610790437019547 -0.670612777567996 0.861755943963575 0.991936743258341 0.57700950137779 0.0588908303546687 -4.43138476756428 0.0941977149337929 -1.55447016999071 -0.159291842678833 0.0581236135679623 -0.0140736972086927 0.127549533679768 -0.476377089888735 -0.248602921470486 0.786899342561952 -0.761851411403194 1.3054494444725 -1.99588310317454 1.01167380647266 0.326784985981782 -1.01027615551671 0.452461729087029 -0.188369975959448 0.364102986413995 1.40468703321763 0.0827285438810441 0.191919382038698 -0.236629814458641
-0.132844460792849 -0.0316682612662991 -0.308828667896395 0.398621571171389 0.0412872674406499 0.204715755857191 0.315215799067763 0.00706178829211798 2.03483092505814 1.78817252790329 -0.0196059370208788 -0.717005481916699 -0.523458078197898 0.360953900890007 -1.06593459664803 -1.03644765817611 1.49994969853029 -1.21492172029389 0.931560844485436 -1.85680552021007 -1.29276208537169 3.03957381232194 3.01718620022888 3.22288308854521 0.223671204114541 -2.14992218481034 -1.39522563558559 -3.53427694473952 -0.995525487195623 -1.63365599265727 -1.73296505803333 0.520466601216219 -0.816312747521476 -1.04883059882 -1.62812940926911 1.89689568263768 1.64578670821142 0.832963202986326 1.27376369971375 -0.824112442039414 1.04549305153171 1.36394638202649 0.19834765083938 0.318890417806238 -1.85183738013985 -2.14428864358597 0.559050869300755 0.379359390465466 -2.54697666941505 0.102508030275591 -0.824712280096849 3.51625712043888 0.0944967340768692 0.0326730478622941 -0.0261375641152123 0.126596426230599 -0.0142976401782709 -1.14567243487795 -2.3134959404804 -3.73819591613893 -0.786266851511249 -0.789972323471709 0.573680438725553 3.33324326381612 -0.742816516099231 3.7879724476089 0.609934002999266 0.978130697750373 0.295372806457962 -0.779679945727524 -0.820493359100513 -0.961551976026639 -0.347102089769427 1.88830357453508 0.95210034858156 0.608674934432074 -0.0449032650573523 -0.182952407288975
0.046568053493654 -0.486078371321714 0.320917988711053 -0.246930933949055 -0.166427678703716 -0.223102733499458 0.201562042349904 1.18329665353837 1.0956537056154 -0.55895445298205 -0.0424316648661293 0.0656777678609324 0.771571718989731 0.243961568443132 0.120284371232729 0.273779921941216 0.0734895465574816 1.09267277015123 -3.3985297099782 2.9569293434708 0.0970061294650245 -1.40083526556292 -0.216043516309172 -2.17488835493084 1.39451961102249 1.21657133922938 1.9580326275529 -1.82033006984825 1.49280589208973 -1.86927433565515 1.48156092111674 -0.265512029779648 1.287672589295 0.316639418152212 -0.113669954659401 1.34762039961286 0.0925249560818116 -0.439801366555456 -0.439553255228656 1.47218385562479 -0.858636683220839 0.916479018248367 0.28924947033457 -0.719145409971577 0.00819153043715426 -0.929943364322846 0.0289179536364737 -0.846618324816748 -1.74595914958271 0.0820878253044783 -0.0444278683285921 0.908437125937842 -0.321007977275177 -1.19211116194945 0.579087465878515 0.19949770468889 -0.321244775753916 0.726190486101786 0.488904269345404 0.507956133921459 -0.216749026651908 -0.691243298668977 -0.415776733925885 -0.214513196498691 0.0865939383754628 0.167813502591232 0.0374902642549658 -0.0152368636775466 -1.15720922590888 0.484258031224568 -0.646181910848949 0.240660273690682 0.352699635568149 -2.38905856644512 -0.995490777320889 1.10442167708332 -0.682580228155811 0.453059253152816
0.0371619345510033 0.20887091352809 0.163540074236055 0.0619797520957852 0.704815888130588 -0.280447560322469 0.40216943458954 1.26961342713633 -1.04159551826439 -0.0915584789031153 -0.282136002895627 0.263540766004957 -0.137107604740698 -1.21936509848017 0.68663614129599 0.0205040228908405 0.590752554890872 0.632790326956319 -0.166618197349476 -1.85360964063274 1.31856000693488 -2.76403679938865 -1.29349304962257 1.33139648994196 1.2217217704195 0.866364129777295 -2.19423126823429 -0.876415595279809 0.978843921398605 -2.19871449849897 -0.10128187181185 0.105319530129021 -0.96884927724658 0.268238169052252 0.11433329893209 0.739735564773794 0.0849664309157268 -0.0330522853825327 1.35392756951724 -0.0432726722754178 -0.0840300356284664 -0.222176622619526 0.407891935937304 -1.1669986961347 0.28077974667918 0.536991072691295 -1.09976849698753 -0.296518232324175 3.29995417995485 1.77223452475613 0.196617299306359 0.533054458676126 0.058912941830425 -0.56308647073646 -0.162593394541466 0.932630165737418 0.668637400030373 -0.703934771532718 -0.59752869376944 0.166358001844065 -0.560852697464709 0.0666162200296585 0.140097024840911 1.511679836419 -1.09433678725698 2.30220571811517 -0.756045863466253 0.317824181876455 -0.104128081540014 0.0161380348697069 1.02218447076239 -0.703915745379161 -0.790804846244952 0.493314737428233 0.13340393255152 -1.24792772584344 -0.7783126337732 -1.80456278786273
0.0982356303611472 -0.140742885621141 0.309329518533293 -0.0212365298028133 -0.20507262479149 0.100136188835455 0.132778640585947 -2.54465033647734 -1.58487447759634 -0.0522910690617839 -0.296553456419275 -0.802486390309034 -1.71014318684083 -0.60989749335325 0.684216477361776 0.751020644935363 -0.135260010964132 0.658213638982567 -0.737384806368681 -0.0822104668618707 0.207235435652674 0.947991984964006 1.39357653087046 -2.8401488698149 -3.69016362015188 -3.13136034795756 2.13897751853135 -2.62585267431084 0.369507699575308 0.603703709039658 0.380494274814166 -1.39162275058823 -2.64346986406457 -0.865475814094295 0.9481467652943 0.541847369831815 0.85922572265058 2.83279706123612 -0.0507540643865388 0.366054709814762 -0.447934275870838 -1.68769901050746 -0.753345692322154 1.26960031451698 0.477423014114044 1.68929103676192 -0.263479316671169 0.186259615575639 0.321300825773856 -0.369901078155623 1.11522930363466 2.86629466145597 0.310445633838619 1.0432618493618 -1.33381281144379 -1.35481999896318 2.77998662960424 0.458281418084047 -0.810035916618706 0.88166090012753 -0.0723235518766124 -0.00887930017724803 -0.488484665526401 2.8288794733745 -1.49748966829731 1.82010586976848 1.98448386609163 1.07751098264718 -2.62000804562605 -1.18939350731289 1.18807890294612 -1.65795161941995 -0.581970956583244 3.92564415209156 0.0459044521107822 -0.0509386694980854 -0.0253978581181096 0.782385259075288
0.178890066394215 0.266025735925707 -0.0221083904340873 -0.150724674264005 -0.236306884068526 -0.171253379732434 -0.975342080703249 -0.200096000085226 -0.400759956565169 0.542185983943106 -1.90416341618655 -0.642258666563307 -0.558100590063601 1.32949156059453 0.973459519941766 1.4799089881896 -0.98844004476665 -0.610616630535696 -0.126670473963364 -0.673858536520872 2.62374874168161 0.323395759546673 -1.12837380464122 0.956024621307935 0.229739518658726 0.203515308411771 1.49646328444593 -1.10233471372618 -0.447522899577698 1.83166914314829 0.530619368130919 1.19234256111434 0.737496135078012 -0.865427220269668 -0.754677523071196 0.418437824322136 0.755021536496334 1.97088659405243 -1.43618148800008 -0.454269470785197 -1.19283235601336 -0.463767378063255 1.84890015340683 1.46632482876974 -0.306113327251487 0.0656116905438468 -0.367209134537387 -0.625769419183332 1.47264973927677 0.161665226780068 -0.935086082207465 -0.970160539180965 -0.846968508886284 0.184479384667074 1.58485236612058 0.460434201648086 -1.63110443119907 -0.171612562658382 1.85227729566333 -0.918186744085265 -0.941922899089272 -0.42683658556696 -1.88188353326026 -0.976436855863368 0.272579217385614 -0.934240961035245 -1.662704815377 -1.35827376005427 2.26087782726557 -0.654597898476048 -0.667708460938426 0.108989263774015 0.218489662592257 1.38429819568887 -0.935536539248453 0.380039704010247 0.63342744599032 0.323221181732272
0.0579351518036674 -0.171600478479771 -0.0225431637538998 0.389302355470665 -0.0653376110885421 0.151506289220971 1.65229570960963 -1.09534800160756 -1.12695404220952 0.699188517550613 -0.797273481344398 -0.60810877780864 -1.18870908000518 1.3935361645717 -0.134869974816198 -0.0354583224770364 0.116319475097407 -0.356565030062567 4.77260829010473 1.02416447628331 -1.09308928864804 1.0325010168638 -2.1510532125063 -1.03756968701565 -0.0672615665895222 -0.282494671601208 3.68937120656722 -4.01014701334696 -0.990318748875384 0.337358128046035 -0.801973198383342 -1.34549718371989 -1.46804283901397 0.77402300747648 -0.407418596090009 1.19997564823356 -0.0452166823706884 1.28744864632542 0.140756255350668 0.426386899856521 -0.385245413889753 -1.53977683724048 0.867442964106055 -0.00390138992006839 0.307586054380929 -2.1856635855991 -2.88445229681481 -2.75693824434033 -2.27891873460123 0.921204703415815 1.72473084730576 -2.11087614683676 -0.108403566776657 1.08516412436069 -1.35258416880996 -1.69590416778433 1.95175348265848 0.604241583542939 1.87155361742933 0.988860162806019 1.16988244394962 0.340274528854215 -0.946780996001074 0.603529645445623 0.467485191312509 0.541160114312087 -0.480145553844082 0.119913618348537 -0.308573100374282 1.60978819723946 0.553846444972165 0.218870442773595 0.482866550913022 3.2674626518819 1.35242501760655 -0.585038795289337 1.02103955911654 -2.28970527811755
-0.65112793944341 0.550211935422271 -0.370981198035299 0.465356833215875 0.224232732754678 -0.588182481499478 1.46362311496455 -0.0411016338883704 1.83838743223564 0.998974106083054 -0.637412139609749 0.0877722743451262 -1.296907987076 -0.777394236198764 -1.24792798295363 -0.880257849857739 0.260300663476111 0.761214292369194 -0.490547460526316 1.6390833315147 -0.429849916914212 -0.501497783229341 0.279796814448758 -2.48332055892472 1.37089735582964 0.512286126516943 -0.886151843697705 1.39945098433651 -1.30139764509526 1.32678778990787 -0.429198913930317 0.282444792225665 -0.280022557189619 -0.765548398727609 -1.65863938916004 1.07934494958404 0.229861131775385 0.879348451139716 2.62041942191919 0.429119723993888 -0.127360300584924 -1.86459518743086 -0.271163311606662 -0.462002059545317 0.242221960943516 -0.668295700596883 0.192921340422678 0.539313034755888 -0.12437885090039 0.145183178485223 -0.472826398258569 0.188620915498263 -0.607623868003101 -0.695973868929906 0.831865085393825 -0.0925031017162385 0.133602678723143 0.0434737324386901 0.231479383268526 1.38590307745248 0.175154769652502 -0.892270808947982 -0.792913921077845 -2.18763382093305 1.7627376459188 -0.635830397762625 -0.0937030349412919 -0.43945349647757 0.255104466673384 0.333621545753406 -0.353235710300147 0.936449794619225 0.154642519235799 -0.0765003068029015 -0.275552696654468 0.275599490707812 0.50686778651592 -0.182391392869205
0.0491144727481919 -0.106244869678404 -0.0915078281970225 -0.0691335858334933 0.134499221932006 0.229753659718802 0.342776982267424 2.02646635946769 0.922534991503757 -0.203428148059662 0.389358148380422 -0.503693247083794 -0.099525552150325 -0.546369937954525 2.56453858047939 -0.0245038860110793 0.701885860482697 -0.815903942330168 1.26472653388401 1.33727325739965 -0.25607968559831 1.81563420946205 -0.0363160420482338 0.166583744584926 -2.24211495453544 2.28913115107844 -1.5253874087268 -0.67359911234601 1.48151464128376 0.759942368292841 -1.48878417460392 -0.444087650419794 1.9763471001235 0.263111649109175 0.16555890339464 0.246992383282843 -0.392314144156817 -0.606077093140894 -1.01468071006533 0.301023059844243 -0.192252596836142 -0.0987614206858171 1.20631752801268 0.0625821612550524 -0.0742855596847079 0.393810011202748 0.234641067191491 1.10085812994399 -0.903059923566134 0.371810892596526 -0.500481683785285 -1.96869601529146 -0.318769318909945 -0.764784781483467 -0.103536728118625 -0.283535453622853 0.121903136946236 0.865943497517559 -0.3720440915327 0.336487295855493 0.579955726967224 -2.51594681273367 0.92120110387325 -0.603251966447753 0.178139561769417 -0.154742792207252 1.71763229225744 -0.104930265311638 -1.79551842294786 -0.560713857965774 -0.668699106474344 -0.0350916833557752 1.16357938780816 -0.377183724095121 -1.90360574419917 -0.630962787774044 -2.80040400636334 0.187382929966095
-0.0935765367311512 0.171066460629238 0.325664756913524 0.254047229600014 -0.0993771995746113 0.249382479545987 0.932763605922505 2.12399622237591 0.0382626232453366 0.402526560634023 0.55852070810297 0.767046579765189 -1.18042781811408 -0.350926089524348 -0.308246056221235 0.082954543732088 -0.720899672751637 1.60014759380972 1.040048486292 0.458284503406246 -0.0424098105005562 -0.469796868969774 -0.160149048029664 0.572605975269908 -0.959735749692426 -2.08610486623514 0.0902816697332814 0.431989587858907 -2.8073794056339 0.773512900872986 -0.599594831201737 0.200830820988848 -0.472080778727252 -0.00144881588240315 1.06890164816231 -2.35486496895931 0.820140346818962 0.290709341954852 0.0297360782394562 -0.00461152824610166 -0.468365022359463 0.170809607556209 1.33731825168171 -0.95310796338957 -1.41313078874452 -1.15764502766943 0.256480777484121 -0.349316579777437 0.875384326334943 -0.321595474043818 0.240497008724342 -0.746727419096078 -0.291993607319999 0.360267930921196 -0.580135189875106 -0.902997445791613 0.622106627513285 0.90443134928339 0.144830423313855 0.829045615124715 0.927327011098474 2.90787374895457 0.333710248766614 -2.02471106824689 0.0420087186147445 -1.13777580982094 0.517393620306462 -0.511468516134327 -0.634094389805574 -0.312873525298696 4.36274843282512 0.0920189632412492 0.369323351573944 -0.5416653358221 -0.57390103926275 -0.764363892113548 -2.37022190309242 0.190723305466393
0.285406444426091 0.0320205022173004 -0.17784928437257 0.738288034442307 0.706297357006259 -0.709452613174644 -1.27125970363944 2.34967751390281 -0.923546205854332 0.528067549562534 0.862223113166472 -1.17861956219555 1.65050442296319 -0.0731753579135958 -0.92683927308092 -0.866926943968347 -0.640805994028156 0.160255748755697 2.15506515980515 -0.663882404302039 4.36887074050778 3.26772490426878 0.0273431537642963 1.59131843011819 -1.80875419806946 -0.349674220042286 2.27146793860191 2.07022471287919 -2.32476482270042 0.774633129941244 -0.531659635932198 0.211501407812538 0.236124592948628 -0.66823142305108 0.349038129449018 1.65659870563588 0.134174748880791 0.240830223521786 -2.3014318164637 0.106149996020798 0.0969248826471293 -2.26380039871815 1.55276527236583 0.845163852510314 -0.00468069088538585 2.61499156884139 0.0847612569895232 0.384181234841436 -2.1012280872117 1.2983262068466 0.510826254896662 -3.91025045120226 -1.72320258437674 -1.82685115542507 -0.271154826970616 -0.116851178956291 0.144682842068691 -3.01335962937213 0.201843835110705 -2.64850433856205 0.468750687634282 0.0504095367410339 -0.495281116109443 -0.78999803449003 2.06778576568124 0.515854815859934 -1.32195900355695 0.0686160230346863 1.34245094226918 -1.65420141028761 -0.322118436156473 0.958429887071889 2.15780184059526 0.337945367704492 -2.05734117870859 0.479068005066238 -3.61623312963019 0.5985018558129
-0.211113942766437 0.28412423594241 -0.121956101643978 -0.00917292000647685 0.337362241808966 -0.0124469610795064 -0.390888468190903 -0.93769549345689 -0.779487884420665 1.92676905771497 -1.20170008623236 0.222252470123574 -0.460525475763127 -0.754638185213164 0.11394840498782 0.903512694598771 -1.35792614708657 -0.494845314348898 -2.47391032621914 0.0196126218856423 -0.796644332726077 0.715963414344138 0.219774956398137 1.64939987761611 -0.0111256718479767 -0.627963854597052 -0.328573958636575 0.350548137555025 1.33314149675542 1.31371476553224 0.0871145864964683 0.264496187445775 -0.134620835048665 -0.197540839084459 -0.841163989390076 -1.79405726577666 -0.52187762190169 0.175860537105421 1.73925243045361 0.660010324942857 0.799153471004049 -2.34686344294755 0.125164322510105 -0.175571031039123 0.434755579209909 -1.96202477736764 1.33015156243484 0.171191159068096 -1.63974153358373 0.639964986618867 1.11457907198131 0.621700650533992 1.19702942264412 0.550942385452778 1.1752370206252 -0.520068337542423 -0.138531223825146 -0.369903906367638 0.256551739894688 -0.278290662995499 0.444529365714553 -0.553131935773017 -0.139154716019437 0.0397674891476801 -0.425906103813913 0.964537282363921 1.3067085130397 0.383047121823285 -1.39881592218397 -0.0216198810859833 0.0788754906754197 -0.157119004520503 -0.409673709506967 0.741314735519086 1.30013112033275 0.322093239358518 -0.66469564381154 -0.653297178059175
-0.0989858778757617 0.208942390159023 0.0690999043994925 0.465397456624823 0.448770912407012 0.347884990277309 0.17941302850687 1.46849561004661 -1.27711307407046 -1.10625615824054 -0.422744419890948 0.126788744647642 -1.14693536009789 -0.925485073745939 -0.996225084004145 0.163568870576575 -0.667154645603786 0.893529877515174 1.69297568279754 -1.13885824369226 6.02264509078107 0.573737260076043 -0.0399081284178974 -4.03906111033068 0.885092806853052 0.848424780964 2.16381307667877 -0.449063503795508 1.49064873765257 0.250075905710112 -0.708889284763226 1.24367846584549 -1.24194682876155 -0.00299404808351103 -0.78269276285441 1.48126087353293 0.93753865624513 -1.21640370338993 1.35553013728921 -0.553033976793213 -0.0964659409700947 -0.0203620980697071 -0.978053564695409 -1.2022922109843 -0.936285758322335 -0.933919316196046 0.135825910477383 0.278274465053956 -1.25139408533352 -0.221003943073894 0.289949581363458 -3.73253769233697 -0.537824109684904 -1.14153450358932 0.331779865511053 0.605378524773105 -2.26136582239331 1.68865186084645 0.876107063059954 1.25729167871605 1.20579122346764 1.3570725412783 -0.164442530979131 2.08993040865116 -0.7968430788977 1.68810293060529 -0.747740176107753 -0.722637737590154 -2.31298377699544 0.916941302357783 1.18543658159325 -0.466130220646979 0.808389897225779 -0.216415554744281 -2.6147876804661 -0.229405018310366 -0.882052478936563 1.24799046072815
0.877109278554117 -0.245127563124001 0.056866858992419 -0.289388309833505 -0.226814890324682 0.218396331595751 -0.333744187310798 -0.187001378454207 0.518155180669138 0.200913867578025 -0.206859540564817 0.693153627330247 0.96258761584462 0.85095217406498 -0.488652558476039 1.09890332122102 -0.659868400121723 0.718669241912268 3.48507351186794 1.05419186036035 3.54022056084485 -3.3625363412099 1.03574574737594 0.562552709996111 3.20155348485608 1.91905858043061 -1.41875353134119 1.3637517496178 0.575586396513708 -2.52434634530904 -0.794791339635663 -0.914725269688674 0.79497671607776 -0.0397788019957414 -0.402195402718045 0.0516423800695384 -0.508374452189546 -0.835592668830041 0.0139839657547515 -0.509481311528277 0.176538793768736 0.679240623986062 -1.07530137773265 -0.0982777964311941 -0.890190016235242 -2.00951997018196 -0.0212480997610578 0.0221670115558598 1.50333403987192 -2.38879528561751 -0.914197679592721 -2.04751828415895 -0.0128850768317007 0.0988640076489189 -1.59180873923758 -0.288158037606833 -1.57704367274623 0.881115055208569 0.353252679572239 -0.0513896407594404 -0.204538349830774 -1.44841736161917 0.587312420639487 -1.33754219465129 -0.000190518645760556 1.5855244521395 -0.816865534415383 -1.1856440695111 1.65905179389391 -0.0426067569008971 0.582797565822273 -0.825647389833194 1.27997471040961 0.0717969902213929 -2.57277793341062 0.109479315783219 2.50188082883047 -0.537778858292658
0.204458131453611 -0.0805243382803623 -0.0488792169305523 -0.192640833212793 -0.336421218538408 0.360341721543778 0.790955769922497 1.23295799964625 -1.53909240993276 0.243076080972148 -0.266316013322554 0.22382238490227 1.30797169536982 1.83509230812758 1.17817784690079 0.877266629986243 -0.409186999930146 -1.30507252094391 -2.05472765369623 1.32453087671963 4.80041809885156 -0.0464713800647661 -5.96710672010531 -1.41744998271231 -1.18260554136589 0.274224208337808 -2.89067333480783 1.07271973438302 -1.18300406214987 -3.19718903949604 -0.324228796540282 0.823443441342695 -2.15701765453646 -1.10637237204335 0.00375355156472112 1.46323796391009 0.333605862032229 1.05455155750666 -0.956959216823912 -1.46097205186544 2.0667724944492 1.48253768270277 -1.50550559247933 -1.54937733148164 -0.882955449900006 0.191945093057019 -0.273814374705767 -0.458769156101602 -3.14948173078057 1.71138374347483 -1.10048249196631 1.0673487026557 -1.0352945190044 -0.718156564206942 0.524420698723846 -1.23953976322631 0.363022352313952 1.61699371012399 1.12978071156376 1.4848007665354 0.496727618000197 -0.521872479698026 2.13908524769811 -0.13081971810005 -0.526332570046215 1.88764845778826 -0.165194064044662 0.854094060503839 1.69783840769264 1.80625148754607 -1.2400745524074 -0.385249527652684 -0.865169852976272 0.356657846838707 1.04449700668195 1.65044863005343 1.96162239993091 -1.06748162862042
-0.17782203069315 0.264652767547351 0.266677767350334 -0.570870224423039 0.430865245027718 0.450770201191673 1.39747612101925 0.322559637230866 -0.0444430378294017 0.38327003635213 -1.07461335088238 0.834887929817855 -0.719933452683124 0.166995120878066 -0.980983849453483 0.261364842524428 -0.470861819348641 -0.545939535507827 -0.036732303434855 3.06833595718739 -3.38331598621714 -0.543986783666327 -1.31848364521047 0.649036090992792 -0.400235194681232 0.580797505707062 2.17032542050936 -1.36320693313957 0.487271105461637 -0.691201646819296 0.543969300173869 -0.14474352007193 2.13448477518989 0.0501200306747364 1.12284902102435 -1.73053536680197 0.117528921399239 0.637759238357086 -1.04198246909013 -0.214655121319824 0.428504716435643 0.358016417046803 -1.24111379176794 -0.685142845351891 0.0687903437389045 0.853888372357269 -0.479692011480895 -0.524178758041443 2.32456993318155 -0.055836618488286 -0.396880421010674 -0.997397249329411 -0.169906893702949 -0.828976452485431 -0.177316294962771 -2.67591485519435 0.612946305905785 -0.539584800219544 -1.18939813529619 -1.52178426661926 -0.667087025625601 -1.62600207961321 0.432086518397978 0.439465837766364 0.610775010408555 0.369300211657455 0.11008686714615 1.65911555721935 -0.53134287618648 1.63488035134973 -1.48977404880928 1.17641972746798 -0.236005293823617 0.390809535364657 0.926969627943808 -0.230674371284887 1.20907914849056 1.77085281463154
-0.355124184595844 0.00595698583485333 0.170543755626767 -0.00512703416344297 -0.455874866769177 -0.49794272072606 0.0896792605740143 0.623837493266672 -0.145358527630174 -1.14124962550633 0.01205589649084 0.397815787857201 0.501689073205651 -0.00372809765658307 -0.393035595330912 1.71829023721628 -0.050986491992163 0.713100749564249 -1.83265130404816 1.76780271652809 1.70947778568667 1.10703340232439 -3.25141306291522 0.730527934892583 1.146033160465 -0.550758808781964 1.72107345494956 -2.23575764814533 1.21006259494135 -0.629505744365778 0.76115721390852 0.011013571808096 -0.198235293689316 0.0642112113758876 0.462334245902028 -0.533874383050391 0.296333112992262 0.81066609367776 0.634841809108173 -0.073179214566344 -0.390106596123754 1.81398047676363 0.478009225331769 -0.414239472140457 -0.369901078155623 0.303325481534912 -0.0154204403483604 -1.28853956483279 -0.196212093657616 0.70956831275709 0.25011498645796 0.387896734099041 0.412954692554944 0.17935543582583 -0.25191732884228 -0.363705236960565 0.562729087581795 -0.787668616230124 0.177151487335331 0.0783790109116361 -0.508160022296747 0.753482474939624 -0.585120042107233 0.0568259784732881 -0.722161569530845 -0.82328377591892 0.447601061073395 -0.520972336946599 -0.594129182927003 -0.0550238931991508 -0.819963969233279 -1.06739575381923 1.12051291789968 -1.5659524536628 -0.923923900713472 -1.03652736233291 2.16839683702509 -0.911694711959146
0.115644046646108 0.156713284651393 -0.361941461103727 -0.375338444310204 0.307118370957665 0.504796763990143 -0.0911931253327702 -0.0652023711321723 -0.646838056036507 -0.0373120868979995 -0.391297016272028 0.0678333796369871 -0.130641797853267 0.724272701245203 -1.20554696879359 -0.173500779843895 -0.434451932083534 1.00188613601812 -2.28222234334533 1.26677364516274 1.10879229308775 -1.03520761576248 1.53224196621125 -2.69465793044037 -2.17892292792581 0.700904213803191 0.33777156122064 -2.17418721546122 -0.686779608778222 -0.821249005928975 1.54118657237503 0.16069694983009 -1.24744075915644 0.0822292359052452 -0.0782972498733745 1.71881654176132 -0.510274496443488 -0.284721502898013 0.806424289875118 0.159019048774444 0.478077616640503 -0.299887918385359 0.838652280010271 -0.370571878623625 0.414111174159034 0.459677269268708 0.1715035479407 0.197207624287015 1.43032888889961 -1.07321055772277 -0.105712651599154 1.27548273839871 0.0600406270939956 0.00758115086220749 -0.846827869616067 -1.04246403646329 0.632343726568079 -0.135261810735414 -0.35382654950117 -0.502002747629171 2.40996008167921 0.146152226765751 -1.28795926714928 0.295913509173259 0.197700247398051 0.437603845819538 0.3460931894105 -0.953019260376362 -0.668886539797906 0.784876656750618 -0.167737140866818 0.478251937344721 -0.164008271879685 0.125005685527063 0.388493229724094 0.395835268115914 -0.125621978636223 1.74020990877589