10.336594 0.000000 0.000000 0.000000 6.815080 0.000000 0.000000 0.000000 5.178350
10.065014 0.000000 0.000000 0.000000 7.076091 0.000000 0.000000 0.000000 5.032971
10.014543 0.000000 0.000000 0.000000 6.085485 0.000000 0.000000 0.000000 4.803780
10.208403 0.000000 0.000000 0.000000 6.356547 0.000000 0.000000 0.000000 5.023598
10.622996 0.000000 0.000000 0.000000 6.427879 0.000000 0.000000 0.000000 5.070083
10.063558 0.000000 0.000000 0.000000 6.991684 0.000000 0.000000 0.000000 5.124057
10.519189 0.000000 0.000000 0.000000 6.696618 0.000000 0.000000 0.000000 5.158606
9.778979 0.000000 0.000000 0.000000 7.816712 0.000000 0.000000 0.000000 5.149476
10.723527 0.000000 0.000000 0.000000 6.623678 0.000000 0.000000 0.000000 5.273211
10.239413 0.000000 0.000000 0.000000 6.472724 0.000000 0.000000 0.000000 5.447808
10.261457 0.000000 0.000000 0.000000 6.236715 0.000000 0.000000 0.000000 5.048827
9.808892 0.000000 0.000000 0.000000 6.423866 0.000000 0.000000 0.000000 4.950291
10.695717 0.000000 0.000000 0.000000 6.390664 0.000000 0.000000 0.000000 5.104498
10.706530 0.000000 0.000000 0.000000 6.435121 0.000000 0.000000 0.000000 5.134990
10.670614 0.000000 0.000000 0.000000 6.587289 0.000000 0.000000 0.000000 5.314519
10.683178 0.000000 0.000000 0.000000 6.499338 0.000000 0.000000 0.000000 5.163778
10.101935 0.000000 0.000000 0.000000 6.119957 0.000000 0.000000 0.000000 4.869084
10.626223 0.000000 0.000000 0.000000 6.475102 0.000000 0.000000 0.000000 5.116743
9.324539 0.000000 0.000000 0.000000 8.182132 0.000000 0.000000 0.000000 5.295971
10.702439 0.000000 0.000000 0.000000 6.460571 0.000000 0.000000 0.000000 5.178913
10.772373 0.000000 0.000000 0.000000 6.427975 0.000000 0.000000 0.000000 5.148409
9.451125 0.000000 0.000000 0.000000 6.823530 0.000000 0.000000 0.000000 5.290194
10.625478 0.000000 0.000000 0.000000 6.417848 0.000000 0.000000 0.000000 5.082569
10.179010 0.000000 0.000000 0.000000 7.177706 0.000000 0.000000 0.000000 5.315468
10.406300 0.000000 0.000000 0.000000 6.218700 0.000000 0.000000 0.000000 4.946900
11.092938 0.000000 0.000000 0.000000 6.761358 0.000000 0.000000 0.000000 5.450030
10.406300 0.000000 0.000000 0.000000 6.218700 0.000000 0.000000 0.000000 4.946900
10.684434 0.000000 0.000000 0.000000 6.404377 0.000000 0.000000 0.000000 5.111627
10.406300 0.000000 0.000000 0.000000 6.218700 0.000000 0.000000 0.000000 4.946900
11.124276 0.000000 0.000000 0.000000 6.783191 0.000000 0.000000 0.000000 5.433717
10.604732 0.000000 0.000000 0.000000 6.489697 0.000000 0.000000 0.000000 5.115849
10.406300 0.000000 0.000000 0.000000 6.218700 0.000000 0.000000 0.000000 4.946900
10.708899 0.000000 0.000000 0.000000 6.420673 0.000000 0.000000 0.000000 5.100750
10.406300 0.000000 0.000000 0.000000 6.218700 0.000000 0.000000 0.000000 4.946900
10.725250 0.000000 0.000000 0.000000 6.374504 0.000000 0.000000 0.000000 5.134058
10.740821 0.000000 0.000000 0.000000 6.484815 0.000000 0.000000 0.000000 5.171447
10.406300 0.000000 0.000000 0.000000 6.218700 0.000000 0.000000 0.000000 4.946900
11.353376 0.000000 0.000000 0.000000 6.925902 0.000000 0.000000 0.000000 5.549310
10.406300 0.000000 0.000000 0.000000 6.218700 0.000000 0.000000 0.000000 4.946900
10.406300 0.000000 0.000000 0.000000 6.218700 0.000000 0.000000 0.000000 4.946900
10.406300 0.000000 0.000000 0.000000 6.218700 0.000000 0.000000 0.000000 4.946900
10.406300 0.000000 0.000000 0.000000 6.218700 0.000000 0.000000 0.000000 4.946900
10.406300 0.000000 0.000000 0.000000 6.218700 0.000000 0.000000 0.000000 4.946900
10.406300 0.000000 0.000000 0.000000 6.218700 0.000000 0.000000 0.000000 4.946900
10.406300 0.000000 0.000000 0.000000 6.218700 0.000000 0.000000 0.000000 4.946900
10.406300 0.000000 0.000000 0.000000 6.218700 0.000000 0.000000 0.000000 4.946900
10.406300 0.000000 0.000000 0.000000 6.218700 0.000000 0.000000 0.000000 4.946900