0.0925772 6.42028 4.52335 5.32488 -0.0110334 2.70685 10.3366 3.2 4.92856 3.11373 5.02469 0.0689235 2.30754 1.12551 2.36473 7.23045 1.29593 0.0703874 7.91612 4.39614 2.37182 1.10984 4.78033 2.02191 4.10982 1.56893 5.02038 9.33525 1.62335 2.51426 6.32056 4.69258 0.345314 1.14016 4.73424 3.67268 4.1261 0.989623 1.32788 8.8249 1.69567 1.02686 6.56694 4.85295 3.97733 4.78004 4.67356 0.751235 0.37418 1.16857 2.77225 5.49111 1.71298 4.36502 9.94983 5.14018 1.89494 1.99492 5.94388 1.50851 3.46981 0.295632 3.98093 9.0573 3.07682 3.12992 6.92304 3.40174 0.831814 8.54969 0.785058 3.56839 7.04086 5.80888 1.13877 1.7044 3.55079 1.38084 3.45937 2.76715 4.41718
10.1165 -0.273951 0.334702 4.82961 6.45236 1.95191 9.79122 3.39346 -0.0502151 3.26057 3.92778 0.0440294 2.43499 1.18837 2.4756 7.32638 1.91192 0.252543 7.96848 5.46866 2.5585 1.29146 5.00215 2.46719 4.18493 0.885885 4.49137 9.16349 1.56885 2.70644 6.20944 4.79549 0.0346848 1.30999 5.0744 4.14153 3.79548 1.24522 0.947918 8.96722 1.58621 1.13098 6.39868 4.73463 3.49113 4.82999 5.10839 0.274871 0.683845 1.96064 2.76998 5.82148 0.737952 4.22907 9.92165 4.63614 2.22504 1.51924 6.3658 1.87844 3.42013 -0.188142 3.81551 8.11973 2.3409 3.43517 6.60188 3.47237 0.84938 8.73009 0.0512385 3.30556 7.28986 5.85583 0.699692 2.26232 3.9702 1.75619 3.9195 2.1997 3.68699
0.506574 0.21289 0.105541 5.10359 5.9332 2.45023 0.291517 3.3194 4.71328 3.11401 4.54063 4.74254 2.40807 1.78552 2.42126 7.18857 1.63324 0.142511 8.03414 4.61226 2.84884 1.33814 4.73442 1.99897 4.23236 1.58241 4.5439 9.10966 1.5205 2.62819 6.19622 4.50077 0.480879 1.38798 5.04575 3.57962 4.22374 1.51484 1.31578 8.97605 1.53578 1.08595 6.33214 4.31396 3.76927 4.72642 4.34068 0.973578 0.657849 1.48879 3.00996 5.56029 1.65064 3.97325 9.80793 4.67558 1.59394 2.02916 5.94109 1.39438 3.34452 0.472333 3.96918 8.52172 2.70072 3.61173 6.94254 3.23093 1.39522 8.55805 0.249424 3.37492 6.70951 5.86224 1.08667 1.98236 3.42827 1.46031 3.33644 2.83607 4.03805
10.2439 -0.0405153 0.103746 5.42317 0.033312 2.47149 0.414917 2.93302 4.69881 3.07247 4.85248 0.0514036 2.47667 1.43442 2.58778 7.18752 1.80413 0.206623 8.15018 4.48819 2.53267 1.22533 4.50083 2.15965 4.09184 1.45984 4.71618 9.08115 1.50574 2.55262 6.50088 4.87387 0.298652 1.17326 4.65185 3.8605 3.84328 1.49688 1.27986 9.06304 1.77754 0.996775 6.37763 4.69253 3.8736 4.88448 4.85632 0.59473 0.340623 1.38594 3.09876 5.47875 1.53392 4.1228 10.0027 4.48648 1.51087 1.92082 5.90154 1.5429 3.22401 0.331314 4.24315 8.33932 2.46679 3.31952 7.00202 3.60827 0.987334 8.45257 0.1358 2.75287 6.96067 6.18337 0.800023 1.94014 3.29811 1.583 3.31855 2.71343 4.0635
0.0641782 6.32537 4.69355 5.38181 0.00880895 2.48014 -0.0364079 3.09502 4.85578 2.89064 4.64127 0.146734 2.42143 1.73666 2.40908 7.49132 1.38691 0.0301585 8.07931 4.76232 2.59997 1.06062 4.57925 2.16596 4.00073 1.58331 4.73584 9.26555 1.51345 2.62735 6.33264 4.70191 0.24823 1.06111 4.47737 3.80494 3.83093 1.39075 1.20468 9.30773 1.39494 1.12049 6.58705 4.7577 3.81287 4.70281 4.99747 0.719025 0.0867846 1.63231 3.18517 5.55827 1.57604 4.39282 10.0922 4.81685 1.66122 1.93865 5.75778 1.43791 3.29818 0.320412 4.01383 8.43403 2.71114 3.3365 6.96202 3.35677 0.666336 8.69366 0.285042 3.44599 7.11694 5.94858 0.947234 1.59154 3.39436 1.30556 3.30531 2.79472 4.19121
9.99704 6.49171 0.0264265 5.81562 -0.125746 2.3048 0.293367 3.06596 0.228642 3.12929 4.75203 -0.0259486 2.42517 1.16695 2.72172 7.46784 1.62984 4.73257 7.83985 4.6086 2.34006 1.2121 5.0108 2.31296 4.03178 1.35322 4.93864 9.02861 1.40426 2.58399 6.4174 4.86548 0.123892 1.53431 5.0513 3.75391 3.72923 1.10368 1.33797 8.94724 1.50515 0.977675 6.47859 5.04486 3.7669 5.05816 4.93498 0.818193 0.436629 1.17679 3.13097 5.51971 1.26647 4.54727 9.67148 5.00368 1.95293 1.83434 6.30646 1.29595 3.49573 0.058846 4.19291 8.27029 2.62482 3.08478 7.05666 3.49596 0.73649 8.16479 0.212933 3.323 7.14425 6.14186 0.646559 1.91981 3.75922 1.56003 3.22016 2.73461 4.42919
0.316405 0.276755 0.244161 4.33316 6.00676 2.28122 10.2178 3.44106 4.86922 3.09246 4.30341 5.00126 2.2102 1.54698 2.49316 7.4262 1.51378 0.182423 8.18994 4.88793 2.18248 1.265 4.75533 2.21519 4.07942 1.18337 -0.113419 9.01605 1.70759 2.67816 6.48562 4.8398 -0.0709685 1.53964 4.39708 3.67351 3.64296 1.41569 1.45528 9.12501 1.39433 1.11228 6.73075 5.0685 3.67913 4.98984 4.80305 0.385057 0.0141341 1.42089 3.32817 5.57621 1.05812 4.82507 10.2821 5.05164 1.65724 2.04523 6.05299 1.90327 3.1475 -0.136463 4.77807 8.86899 3.25871 3.11644 7.17605 3.51667 0.561008 8.08633 0.727823 3.25308 7.12162 5.87981 0.806059 1.88126 3.4012 1.51905 3.33531 2.32947 3.97652
1.08208 -0.604351 4.35141 4.5111 6.77835 2.16679 9.62748 3.28187 0.230897 3.1656 3.99846 5.03404 2.62674 1.76013 2.42048 7.13394 1.16573 0.226918 7.98514 5.54966 2.39129 1.55233 4.98303 2.18795 3.91272 0.976758 4.59941 8.86286 1.17657 3.03152 6.40872 5.21567 0.150562 2.15615 5.1784 3.6125 3.34316 0.647008 0.901344 8.32417 1.67181 1.67058 6.95979 5.40915 3.8142 4.86598 5.07004 0.252529 0.716872 1.15205 2.81852 5.40373 0.993482 4.75936 9.77089 4.75842 2.14919 1.95277 6.09952 1.24885 3.23934 0.112235 3.57281 8.37892 2.11447 4.08682 7.28586 4.23215 1.00271 8.35891 -0.39411 3.64389 6.79635 6.47458 0.985339 2.10763 3.57968 1.51779 3.65479 2.39625 3.9778
-0.0893 6.33914 4.7064 5.49232 0.0652523 2.47521 10.2214 3.29196 5.04846 3.20584 4.32443 0.292924 1.92697 1.61288 2.88162 7.11368 1.63301 4.86188 8.25405 4.66276 2.36806 1.11655 4.82376 2.21189 4.04968 1.49235 5.00991 9.49805 1.49799 2.76297 6.57261 4.68229 4.99822 1.02598 4.72442 3.69073 4.08116 1.33027 1.1598 9.49237 1.7335 1.22464 6.57833 4.89295 3.516 5.10328 4.54091 0.0898819 0.144363 1.68762 3.65779 5.49807 1.39135 4.12789 10.3319 4.61694 1.50324 1.63539 6.20177 1.78537 3.26973 0.147395 4.48463 8.57324 2.59465 3.35068 7.25501 3.47551 0.313485 8.98345 0.191993 3.34105 6.81227 6.0116 0.543302 2.01706 3.71436 1.6163 3.00294 2.76138 4.41203
9.75471 5.93316 -0.0986608 5.39891 0.456601 2.75003 0.373743 2.65768 -0.095707 3.0368 4.90876 4.91451 2.18459 1.38566 2.08161 7.16682 2.00286 0.298922 8.2046 4.46555 2.58719 1.25575 4.41423 2.24421 3.97639 1.59697 4.99748 9.23686 1.27107 2.48072 6.51762 5.01482 -0.044987 1.31592 4.67089 3.76522 3.98526 1.62581 1.24657 9.22558 1.49203 0.965345 6.87125 4.51047 4.10228 4.94872 5.07512 0.32481 0.509314 1.08023 3.01087 5.52826 1.23417 4.72462 9.96424 4.45466 1.72558 2.04225 5.57918 1.58106 3.02785 0.573027 4.45563 8.62922 2.53719 3.20843 7.06375 3.87117 0.965986 8.33573 0.129523 2.79632 7.26397 -0.126706 0.286887 1.79608 3.14628 1.56131 3.58523 3.15556 4.47762
9.9796 5.8454 4.79948 5.81752 0.332802 2.33274 0.393102 2.60262 0.230903 3.10367 4.59191 0.237699 2.4563 1.72613 2.41439 7.40502 1.75602 0.075741 7.95045 4.39947 2.32521 1.22281 4.76353 2.17515 4.10218 1.58514 4.78614 9.08965 1.45271 2.76051 6.26212 4.97151 0.139376 1.22982 4.53506 3.58036 4.32255 1.45553 1.295 8.99555 1.82133 1.24056 6.23831 4.86326 3.68454 4.82635 4.97414 0.866323 0.263385 0.991902 3.25456 5.41089 1.77054 3.97864 10.0477 4.46153 1.71481 2.03695 5.98272 1.53858 3.38329 0.435726 4.00584 8.2501 2.53734 3.42823 6.88381 3.55991 0.631556 8.22842 0.215681 3.3061 7.11687 6.14568 0.58642 2.00966 3.43457 1.59963 3.10387 2.69645 4.24594
0.766781 0.217033 0.0119677 4.83074 -0.0587776 2.42426 10.0008 3.45112 4.74979 3.34788 4.60581 4.89227 2.52484 1.52732 2.48614 7.34071 1.1451 0.160182 7.6682 4.79303 2.28586 1.22684 4.90028 2.3019 4.06361 1.53126 4.81112 8.99911 1.82977 2.73566 6.39636 4.3227 0.125449 1.37827 4.78839 3.90148 4.16722 1.51615 1.50837 8.95215 1.43476 1.32043 6.18198 4.25625 3.45271 5.00997 4.22313 0.713858 0.76593 1.71696 3.18849 5.4527 1.14918 4.25266 9.66838 5.05445 1.65275 2.09241 6.08733 1.91755 3.16623 0.273323 4.28894 8.53914 3.25426 3.06003 7.37231 3.30479 0.705895 8.22198 0.661405 3.43816 7.17783 5.77882 0.791099 1.75983 3.63394 1.61456 3.39067 2.72204 4.155
-0.19319 6.22559 5.03072 5.51269 6.23076 2.59651 0.249419 2.89503 0.0105338 3.10769 4.73926 4.6675 1.98974 1.52794 2.49017 7.51288 1.42223 5.00989 8.24368 4.53215 2.40483 1.06498 4.8032 2.25558 3.99989 1.62388 4.78133 9.35779 1.48072 2.81927 6.29011 4.88501 0.140797 1.29474 4.81748 3.86187 3.68146 1.44049 1.23143 9.45696 1.67511 1.2391 6.75983 4.68606 3.90879 4.78311 5.17027 0.317127 0.203921 1.56829 3.41316 5.50109 1.47879 4.58989 10.1755 4.54157 1.96766 1.26355 6.27561 1.7163 3.10921 0.344785 3.86702 8.39524 2.63432 3.57185 6.71753 3.51256 1.08549 8.74179 0.0188612 3.27732 7.1061 6.1148 1.03473 1.71698 3.55017 1.53653 3.37869 2.85472 4.05808
10.3609 0.279804 0.137693 5.29562 6.55609 2.2333 -0.22828 3.38127 -0.204189 3.08144 4.82506 4.75733 2.13478 1.47466 2.51991 7.44932 1.33197 0.0837372 8.20971 4.82823 2.51248 1.0126 4.88433 2.22747 4.0949 1.31346 4.75896 9.33136 1.64192 2.86544 6.39947 4.26761 0.20063 1.36565 4.66749 3.66011 3.73407 1.34461 1.08623 9.03338 1.66 1.23015 6.67426 4.71466 3.81047 4.94418 4.64931 0.382944 0.159077 1.77809 2.98975 5.57191 1.05659 4.50342 10.1708 4.69974 1.91731 1.37695 6.27887 1.35362 3.18795 0.276423 3.95091 8.89121 2.96664 3.59407 6.89218 3.04922 0.991674 8.80657 0.363918 3.65825 7.22679 5.46514 0.909245 1.56931 3.56543 1.41441 3.4205 2.62121 4.10447
0.489056 0.283227 0.164764 5.15118 -0.103416 2.27754 10.1301 3.55476 4.62153 3.42254 4.51363 5.04132 1.97219 1.63351 2.72483 7.18702 1.98353 4.71114 8.4114 4.74003 2.35626 1.17348 4.73276 2.69917 3.85078 1.22813 -0.223857 9.09337 1.4597 2.57444 6.5735 4.62694 5.15738 1.61792 4.4372 4.33506 3.52811 1.48863 1.25071 9.30575 1.61163 1.0184 6.5893 4.90789 3.64856 5.04591 4.15017 0.257474 -0.119393 1.55665 2.99106 5.30156 1.4598 4.67611 10.2433 4.61558 2.52732 2.02131 5.94656 2.04612 3.41411 -0.191418 4.58742 8.1212 2.633 3.01011 7.65717 3.53752 0.384569 8.58373 0.200701 3.40754 6.85974 5.80916 0.595514 1.45801 3.39056 1.85902 2.77961 2.13818 4.24338
9.88253 6.35696 4.93684 5.59421 -0.106564 2.56208 0.108979 3.06706 0.331762 2.92237 4.8155 4.89459 2.31978 1.42611 2.58345 7.35197 1.73212 -0.00232449 8.31176 4.58044 2.71675 1.2202 4.53946 2.13848 4.12197 1.62898 4.87072 9.13536 1.35541 2.53092 6.40724 4.82634 0.0493473 1.22383 4.75768 3.72907 3.70839 1.34293 1.20373 9.25948 1.45956 0.97932 6.25947 4.56361 3.67545 5.014 4.38 0.644759 10.5152 1.7143 3.28062 5.49647 1.8926 4.43081 -0.117233 5.08306 1.68181 2.39043 5.44473 1.39102 3.57581 0.225127 3.9578 8.0186 2.49613 2.87919 7.752 3.97024 0.511763 8.6452 -0.0435036 3.10402 6.74983 -0.177539 0.371072 1.42218 3.01686 1.90094 3.05111 2.89039 4.30448
1.06315 0.804111 4.94228 4.71297 5.61851 2.81385 9.08616 3.64529 0.212 2.7986 4.30989 0.0581627 2.62825 1.78765 2.55254 7.40824 1.21643 0.140994 8.03658 4.7457 2.52916 1.18326 4.65561 2.05113 4.36695 1.63514 4.73388 9.35991 1.7673 2.52932 6.14609 4.33253 0.297014 1.33146 4.49099 3.59891 4.11806 1.64036 1.34637 9.46087 1.80162 1.03896 6.31726 4.49612 3.66215 4.74695 4.67472 0.730939 0.611285 1.72151 3.20412 5.60532 0.831233 4.21827 9.8748 5.3218 1.68683 2.20429 5.64756 1.69607 3.14399 0.651769 4.04016 8.5405 3.12534 3.03911 6.76336 3.03259 0.957329 8.29912 0.699164 3.32056 7.17786 5.44906 1.0247 1.75978 3.44179 1.33472 4.06556 2.92172 4.04293
0.463049 0.0257339 -0.189274 4.87112 5.89923 2.64315 10.3087 3.36648 0.0722782 3.00622 4.38364 4.94038 2.1493 1.80628 2.49171 7.61943 1.19426 4.73745 8.11577 4.51162 2.44023 0.956932 4.79732 2.26878 3.91842 1.23749 4.85284 9.55853 1.71706 2.70448 6.45671 4.87295 0.259175 1.17845 4.72292 3.84254 3.75396 1.48364 1.20788 9.43456 1.75602 1.23959 6.78864 5.04778 3.81851 4.82013 4.63135 0.522695 0.251987 1.90483 3.33717 5.38053 1.01822 4.39814 10.0763 4.76215 1.77736 1.38188 6.30788 1.75872 3.0472 0.0393442 4.24346 8.61662 2.66559 3.42171 7.45878 3.56073 0.61791 8.99536 0.41257 3.60963 6.94989 6.03275 1.13861 1.72468 3.7559 1.54593 3.19194 2.49037 4.14405
9.18081 7.09603 4.93758 5.95318 -0.859244 2.78135 1.62366 2.92275 4.43161 3.62624 5.77841 -0.14805 2.42962 0.417531 2.29475 6.65597 1.52991 0.429344 8.05731 4.54763 2.71599 1.78107 5.45931 2.01086 3.6239 0.952425 4.9677 8.60772 1.1018 2.73167 6.5777 4.8018 -0.0482708 2.68515 5.14057 3.25328 2.39763 1.41356 0.599624 8.02319 0.292191 1.50684 7.18526 5.76884 4.26905 5.11603 4.83159 4.74771 0.710445 0.609223 3.02181 4.7995 1.42518 0.404193 9.56588 5.73002 2.39484 2.49085 6.94317 1.46926 3.86556 -0.496676 4.79488 8.60479 2.62026 2.5117 7.1461 3.4352 -0.0739105 7.55994 0.707013 4.06596 6.83713 5.27899 1.53233 2.07616 4.55255 0.797317 3.35762 1.61632 3.47124
9.65747 5.96242 4.88447 6.18014 0.528785 2.56051 0.495402 2.68174 4.72513 2.91551 5.08844 0.0682984 2.4477 1.42541 2.35466 7.28804 1.72946 0.115419 8.24872 4.62846 2.44742 0.884246 4.40831 2.32058 4.00059 1.87773 4.95182 9.37978 1.16028 2.59509 6.37122 4.86374 -0.0929939 0.777167 4.66718 3.76288 4.16444 1.49258 1.32596 9.18155 1.46424 1.10212 6.64486 4.86117 3.48861 4.86556 5.07588 0.173277 0.0459752 0.879861 3.22404 5.5571 1.77093 4.18928 10.0816 4.34668 1.81045 1.67188 5.49791 1.46038 3.09991 0.596382 4.54454 8.92551 2.3846 3.53149 6.89584 3.54919 0.930299 8.42369 0.0364302 2.90476 7.128 6.01678 0.639856 1.34795 2.94395 1.92655 3.31862 3.23508 4.73344
10.1455 6.25604 4.84542 5.53544 6.21617 2.58773 10.4083 2.82355 0.0681105 2.84333 4.97577 4.74843 2.15812 1.53023 2.91116 7.51907 1.45969 5.04495 8.28519 4.73712 2.55204 1.07004 4.50045 2.08939 3.98165 1.74266 4.91771 9.36375 1.61916 2.65715 6.50095 4.79303 0.105337 0.986158 4.57018 3.59559 3.85448 1.60845 1.28017 9.07841 1.40097 1.16426 6.64564 4.72902 3.71114 5.17965 4.83498 0.686079 -0.044654 1.15501 3.32102 5.42838 1.33252 4.68231 10.3161 4.7271 1.26464 1.79089 5.51837 1.41222 3.06642 0.594614 4.19302 8.98391 3.0688 3.28716 7.1741 3.34647 0.609723 8.35085 0.51664 3.25979 7.27928 5.89831 0.680623 1.49176 3.07022 1.62082 3.43318 3.20413 4.00236
9.4223 6.11434 4.93261 4.93516 3.07504 2.37198 9.86847 2.28918 4.9194 3.40426 4.75119 4.65222 2.63239 1.3247 2.68012 7.12568 0.643903 5.01531 7.87046 4.93717 2.59447 1.61794 5.42118 2.3947 4.08273 1.30641 5.08301 8.17944 1.00684 2.64111 6.5406 4.38524 0.0736098 2.98185 4.66887 2.9017 3.68539 1.274 1.25807 8.9664 0.698503 1.5012 6.65526 4.31048 3.82384 5.10973 4.35991 0.568334 1.72659 2.86131 1.69664 5.53959 1.97293 4.78957 9.67428 4.75244 2.6188 1.15874 0.0793222 3.17152 4.08779 -0.102856 4.37154 8.38768 2.2752 3.39053 7.45106 3.30612 0.982448 7.10482 -0.106414 3.10462 7.31875 5.68584 0.493791 1.85178 5.80727 0.960936 2.91232 2.0843 4.28504
10.3242 6.06397 0.349462 5.11215 6.30164 2.50263 0.0720162 3.03651 4.98964 3.00522 5.24348 4.96587 2.15662 1.24123 2.25516 7.54123 1.5324 4.80308 8.28771 4.48583 2.8681 1.05496 4.48878 2.09795 3.89171 1.78015 4.80619 9.38564 1.44595 2.57596 6.47527 4.86133 0.366498 1.15006 5.05723 3.60063 3.74553 1.17103 1.19025 9.32576 1.5021 0.99285 6.57469 4.36417 4.02107 4.8884 4.92085 0.551868 0.136026 1.48403 3.25883 5.42785 1.94645 4.50916 10.1897 4.32591 1.77373 1.84203 5.74889 1.26216 3.29321 0.469412 3.81572 8.65881 2.4875 3.51679 7.44062 3.92933 1.14166 8.5156 0.0468847 3.28001 7.0323 6.37357 0.615916 1.74392 3.19525 1.59082 3.15844 2.84555 4.2241
0.12995 0.106613 4.53832 6.00558 6.46883 2.80666 0.905395 3.48989 4.31319 3.31926 4.47459 0.06259 1.88514 1.26709 1.92321 7.61443 0.567144 0.314692 8.29998 4.76377 2.97824 1.31501 4.97111 2.01536 3.56446 1.36663 4.72776 9.0428 1.54963 2.65091 6.20811 5.002 0.297371 2.4215 5.53644 3.1188 2.26053 0.98906 0.154391 8.83116 1.57708 1.22019 6.62708 4.85055 4.22205 4.71752 5.53995 0.418724 0.314588 1.5863 2.86941 4.84128 1.11961 0.24244 10.1449 5.25602 2.67781 1.49659 5.72289 0.668047 3.35713 0.838596 3.36769 8.67496 3.03885 3.19169 6.5304 3.86498 1.31744 8.39903 0.174524 3.31842 7.1033 6.13387 1.05138 1.60104 3.40347 1.30152 3.68538 2.91169 4.38119
10.3711 6.20157 0.0362257 5.203 0.000416516 2.46552 10.377 3.06704 0.0440948 2.97569 4.69345 4.92366 2.29128 1.61532 2.4904 7.37561 1.58116 0.0805022 8.09441 4.66088 2.48504 1.14534 4.63602 2.2102 4.06691 1.59273 4.65343 9.2969 1.5571 2.71792 6.3586 4.66653 0.248748 1.24106 4.66188 3.68034 3.95582 1.52063 1.23391 9.23559 1.59494 1.26255 6.50671 4.71143 3.6649 4.88618 4.62284 0.644098 0.39939 1.57798 3.20418 5.51398 1.57088 4.27376 9.98902 4.64183 1.73255 1.862 5.94643 1.54521 3.37389 0.365513 4.01098 8.62053 2.72396 3.38687 7.10036 3.46352 0.910033 8.5495 0.275179 3.4126 7.0535 5.90568 0.931693 1.83363 3.39931 1.4851 3.28405 2.78302 4.02549
-0.300201 6.33125 -0.218381 5.28635 0.0654549 2.44195 10.2068 2.79675 -0.00573965 3.40476 4.99935 4.68049 2.19738 1.80713 2.89777 7.26179 1.61786 0.133198 8.24695 5.01366 2.25965 1.77065 4.44493 1.82857 3.83534 1.62337 -0.144814 9.33655 1.01331 3.00914 6.40809 4.81579 5.09752 1.75182 4.73624 3.34185 3.84359 1.70322 1.30284 8.99123 1.01712 1.42659 6.69566 4.93042 3.60928 4.86053 4.48258 0.188759 10.6987 1.36799 3.64189 5.25117 1.24512 5.09831 9.88932 4.91511 0.940316 1.74226 5.84756 1.06119 3.06931 0.519353 4.56345 8.00763 1.78774 3.94239 7.14894 3.61181 0.431432 9.26367 6.26367 3.48888 6.94192 6.26169 0.5264 1.24483 3.10029 1.15558 3.35701 2.85373 4.55151
0.045072 0.0340573 4.94403 5.22731 0.00733779 2.49137 0.0238048 3.10624 0.0146889 3.04179 4.65797 4.90637 2.30843 1.59641 2.4524 7.36939 1.6051 0.10065 8.14507 4.64264 2.46719 1.09958 4.68801 2.1492 4.08575 1.55483 4.705 9.26935 1.59108 2.73437 6.34041 4.62574 0.27734 1.23066 4.66814 3.77798 3.88263 1.53666 1.30346 9.21671 1.56691 1.21004 6.47479 4.66875 3.71418 4.83815 4.63796 0.662779 0.335795 1.52983 3.25585 5.54549 1.56007 4.28531 10.0202 4.63373 1.77952 1.86059 5.86396 1.52397 3.31742 0.374805 3.99243 8.60254 2.74831 3.48337 7.09451 3.44765 0.904531 8.58143 0.305929 3.42952 7.0724 5.90011 0.983126 1.80225 3.4523 1.52132 3.23862 2.79308 3.99527
0.0264973 0.118571 4.98509 4.5958 4.57665 2.57704 10.3785 3.30562 4.77191 3.03249 4.60913 0.209446 2.59481 1.43292 2.3931 7.32711 1.75356 0.00324964 8.3027 4.49977 2.60073 1.15555 4.73261 2.17529 4.0093 1.70227 4.42087 9.30965 1.46966 2.58285 6.33819 5.10735 0.37087 1.27148 5.01613 3.72949 3.59448 1.66308 0.946482 8.95155 1.28143 1.16771 6.33779 4.76589 3.93074 4.76828 4.58806 0.609888 0.0884592 1.82107 3.1337 5.56229 1.68818 4.27509 10.4345 4.47021 1.54517 1.71606 5.87785 1.287 3.23585 0.429606 3.87197 8.38428 2.55726 3.4353 7.43597 3.88985 0.808504 8.77724 0.138657 3.21942 6.80397 0.0915612 1.03783 2.1103 3.40483 1.82339 3.32106 2.94636 3.95294
0.0209798 0.0170335 4.926 5.15995 6.21257 2.50781 10.3634 3.08391 4.9369 3.04795 4.62081 4.85647 2.30123 1.55482 2.48619 7.41986 1.52439 0.0249082 8.12824 4.6384 2.45789 1.07042 4.63426 2.22647 4.01076 1.51596 4.64388 9.24879 1.49729 2.70952 6.32827 4.67951 0.218162 1.20644 4.65123 3.70863 3.9407 1.51104 1.30496 9.1832 1.5711 1.23683 6.50006 4.64487 3.69496 4.82892 4.65129 0.6468 0.344203 1.54262 3.20404 5.54471 1.55081 4.29064 10.0629 4.62547 1.68902 1.80797 5.88151 1.48865 3.31371 0.312074 3.96386 8.56345 2.752 3.48524 7.16857 3.48698 0.894174 8.56884 0.312238 3.47597 7.04607 5.88887 0.93792 1.82062 3.43361 1.54766 3.27003 2.72841 4.0335
0.181821 0.00491913 0.0431542 4.76775 5.97929 1.94056 10.3914 3.60133 0.0357521 2.67131 5.32057 4.9676 2.3247 1.90471 2.49779 7.6213 1.05193 -0.0684924 8.30918 5.02411 2.57334 0.976365 4.6689 2.16956 3.78829 1.10753 4.66737 9.14484 1.74503 3.04228 6.28242 4.08673 -0.235395 0.961634 4.77856 3.74718 3.3127 1.05089 0.711743 8.78637 1.03255 1.70061 6.74257 4.19838 3.64537 4.79415 4.41054 -0.391195 0.97661 1.01567 3.71328 5.31315 0.93015 4.66126 10.5507 4.95137 1.62149 1.77234 5.58858 1.087 3.28243 -0.216712 3.69506 9.80433 3.10091 3.17313 6.9499 3.3058 1.10344 9.58673 0.835931 4.31383 6.81969 6.43612 0.896083 1.22915 3.27476 1.74501 3.36883 2.41903 3.89205
0.267043 0.349865 0.169782 5.40434 0.122104 2.30845 9.28707 4.05189 5.07027 2.94568 4.61622 -0.038605 2.27259 1.67706 2.38019 7.54758 1.20665 4.93956 8.11341 4.50479 2.55866 1.1998 4.43255 2.21398 4.04649 1.7295 4.73723 9.51037 1.65296 2.70413 6.11062 4.58114 0.121049 1.10096 4.15421 3.70156 3.89123 1.45192 1.30576 9.14708 1.8542 1.19782 6.54986 4.58101 3.76707 4.67254 4.44412 0.598235 0.542908 1.43243 2.98678 5.52939 1.28602 4.60192 10.3176 4.96908 1.9084 2.34606 5.43865 1.78455 2.97709 0.616951 4.30745 8.70497 2.63385 3.63745 7.22871 3.78618 0.993082 8.67368 0.432711 3.1533 6.59913 6.06155 0.630124 1.77704 3.16667 1.49037 3.55774 3.10844 4.15036
0.0445505 6.18818 4.92154 5.24202 0.0415062 2.45965 0.0227294 3.13222 4.92948 3.05053 4.64239 4.93161 2.31411 1.63411 2.50668 7.44301 1.55304 0.0510205 8.10136 4.64226 2.53711 1.16234 4.70076 2.23923 4.06428 1.59163 4.68004 9.28913 1.5425 2.71801 6.35913 4.60384 0.241765 1.17279 4.65509 3.71449 3.91291 1.54897 1.22932 9.24379 1.52919 1.1988 6.49547 4.64894 3.72442 4.87887 4.64036 0.728453 0.351674 1.52358 3.2129 5.56666 1.51655 4.22506 9.98321 4.68711 1.68995 1.82273 5.90269 1.46615 3.37311 0.280597 4.03608 8.61799 2.7502 3.45705 7.13367 3.42216 0.930132 8.5794 0.270053 3.46962 7.05687 5.90251 0.976316 1.85644 3.40827 1.46504 3.29668 2.78243 4.03077
-0.0578708 0.350218 -0.00153516 5.45798 0.190129 2.60923 -0.0245247 3.21194 0.148302 2.72036 4.49223 -0.0472585 2.36179 2.02055 2.5014 7.54127 1.38345 4.98561 8.08248 4.44358 2.20844 1.27386 4.99014 2.20332 3.79114 1.32589 4.72188 9.29007 1.42983 2.72961 6.32866 4.41513 0.0955035 1.45039 5.19641 3.87294 3.72528 1.4092 1.20766 9.16153 1.38639 1.19733 6.62565 4.88315 3.83552 4.86017 4.50221 0.546352 0.174277 1.21681 2.99977 5.4062 1.53543 4.38349 10.6349 4.67879 1.89271 1.84984 6.26283 1.62188 3.42441 0.132085 3.93337 8.8791 2.63258 3.64419 7.32139 3.20808 0.624204 8.41683 0.358713 3.60634 7.08624 5.49269 1.17899 1.95541 3.75153 1.61027 2.93998 2.65123 4.27091
0.0327528 6.20399 0.04953 5.1577 0.0411424 2.44582 10.3776 3.13396 0.0364774 3.04239 4.6669 4.94003 2.34268 1.60094 2.4537 7.36454 1.58231 0.0883414 8.14873 4.62255 2.48413 1.14123 4.66791 2.14249 4.09089 1.51523 4.67916 9.25793 1.57241 2.76163 6.37216 4.65128 0.274276 1.21738 4.71741 3.77713 3.96033 1.52189 1.27329 9.24456 1.54559 1.17875 6.4833 4.71759 3.64331 4.90936 4.71159 0.703557 0.377163 1.51419 3.22699 5.53045 1.59627 4.24719 9.98275 4.69066 1.72687 1.77898 5.8873 1.50903 3.33761 0.34253 4.03452 8.63342 2.79251 3.41992 7.17589 3.48779 0.950715 8.61935 0.345647 3.48108 7.08827 5.91051 0.917562 1.80071 3.44434 1.51718 3.28046 2.81135 4.08899
10.4175 5.88363 0.111874 5.31879 0.0825002 2.61592 0.0885173 2.84694 0.359708 3.00084 4.96393 4.9285 2.37339 1.9214 2.53865 7.35114 1.46859 0.175201 8.16553 4.53031 2.46176 0.947382 5.03931 2.64922 4.03238 1.58354 4.85644 9.0193 1.44111 2.64364 6.4987 4.69976 -0.0063656 1.11317 4.30271 3.98411 3.87136 1.32279 1.19683 9.04399 1.50278 1.01181 6.68168 4.77019 3.46345 5.04002 5.12742 0.41937 10.6526 1.27172 3.00112 5.50808 1.45767 4.60342 10.3356 4.88653 1.79201 2.10517 5.63573 1.68771 3.26038 0.275886 4.12682 8.46063 2.73501 3.1542 6.9495 3.35802 0.682142 8.20324 0.346516 3.25219 7.51695 5.80723 0.66963 2.22828 3.19814 0.745295 3.55264 2.73541 3.81933
0.356178 0.628868 4.5441 4.73581 5.67667 2.83613 9.55567 3.61927 4.62451 2.66041 4.27749 0.380024 2.30593 1.70545 2.11655 7.47089 1.36158 -0.0688546 8.13177 5.00789 2.31904 1.32105 5.01354 2.8542 4.12382 1.22391 5.03306 9.38959 1.78417 2.30235 6.47679 4.35546 4.98846 1.13161 4.34972 4.32124 4.30082 1.6076 1.31557 9.52388 1.66937 0.648383 6.34488 4.3208 3.39284 5.1028 4.22514 0.327324 10.6077 1.46801 3.05627 5.57925 1.47757 4.34365 -0.0373497 5.33151 2.25053 1.99236 6.28037 2.65942 3.64855 6.27132 4.9731 8.77624 3.14093 2.81131 7.29087 3.15359 0.406045 8.39027 0.544954 2.72035 7.18362 5.76218 0.544186 2.14716 3.74299 2.26474 3.16697 2.2039 4.18187
10.3922 0.0337425 0.00650442 5.21692 6.2055 2.43913 0.0452864 3.14761 0.00309876 2.97765 4.66066 4.90509 2.25707 1.5565 2.42493 7.41221 1.57256 0.100515 8.10393 4.66435 2.52228 1.08286 4.62867 2.2186 4.01856 1.53094 4.65697 9.25369 1.54842 2.76294 6.34432 4.69634 0.268393 1.16065 4.6855 3.69663 3.9152 1.53777 1.27814 9.16749 1.57176 1.24482 6.43984 4.67014 3.69865 4.87118 4.64686 0.672952 0.402801 1.50033 3.20652 5.59022 1.56832 4.22373 10.0508 4.71595 1.70847 1.82406 5.86763 1.48966 3.35964 0.278119 3.99377 8.587 2.81831 3.48032 7.15145 3.44384 0.926731 8.58637 0.275956 3.47633 7.09154 5.89523 0.990356 1.83246 3.40304 1.54765 3.26403 2.80137 4.02122
10.5495 0.0829317 5.23592 6.01287 0.344824 2.26787 0.0499264 3.07697 0.0811389 2.93056 4.1396 0.109115 3.12839 1.77798 2.6817 7.29079 1.51384 4.99828 8.44309 5.16008 2.61366 1.31115 4.81235 2.51673 3.70168 0.990831 -0.0563873 9.34843 1.4086 2.37675 6.84479 5.14041 5.21225 0.944225 4.6854 3.84799 4.38342 1.8827 0.887243 8.54156 1.43701 1.03818 7.00842 5.38343 3.63042 4.03522 4.74225 4.59385 10.7819 1.59479 2.40171 4.99963 0.412213 4.41157 9.41354 3.94189 1.80937 0.229168 5.51341 1.657 2.57858 -0.0993913 0.168732 8.32574 2.24997 3.4065 6.90003 3.6179 -0.221399 8.83084 0.0496078 2.87119 6.78407 6.44774 0.358169 2.08998 3.67886 1.93401 2.77776 2.26482 4.7768
10.4708 6.26656 0.0402437 5.12802 -0.0222863 2.7099 0.271567 2.77339 0.15579 2.91061 4.61669 4.81614 2.18693 1.64039 2.49049 7.43496 1.50977 0.113399 8.17083 4.47058 2.22786 1.07762 4.53556 2.21239 4.15088 1.66376 4.7408 9.19406 1.54797 2.69479 6.36344 4.74394 0.172201 1.15987 4.57353 3.82701 3.77967 1.56219 1.32618 9.14024 1.43251 1.19192 6.77575 4.65647 3.65375 4.80932 4.74139 0.750104 0.352553 1.94903 3.11161 5.70733 1.6215 4.41618 10.0277 4.30877 1.73657 1.67262 5.90046 1.61975 3.23414 0.426118 4.10057 8.33701 2.60488 3.37425 7.34329 3.63394 0.709672 8.76742 0.22486 3.37857 6.96509 6.03628 0.868495 1.859 3.38236 1.61145 3.57623 3.0074 4.11504
10.0532 5.86125 4.83935 5.44051 0.243353 2.74928 0.279239 2.97431 0.0374203 3.13564 4.66643 4.77086 2.13238 1.67709 2.18589 7.38076 1.59808 0.229397 8.16701 4.33051 2.53017 1.25851 4.85087 2.13721 4.11483 1.41485 4.63321 9.2519 1.46755 2.76302 6.16736 4.58006 0.290595 1.27349 4.79554 3.78134 3.83316 1.02979 1.16243 9.14301 1.64228 1.24831 6.29766 4.84942 3.70864 4.80556 4.59582 0.998411 0.464973 1.64588 3.13762 5.61788 1.84459 4.31106 10.172 4.27427 1.67559 1.47867 6.18325 1.23667 3.45455 0.289231 3.78205 8.62814 2.59955 3.59298 7.18147 3.64925 0.965341 8.58301 0.203924 3.45327 6.80603 6.08781 0.960933 2.34662 3.79913 1.6348 3.15572 2.7073 4.22125
10.2754 6.02632 0.296744 5.37846 0.313159 2.28951 0.0755448 3.15793 4.7577 2.94717 4.5942 0.0146166 2.22414 1.57965 2.54255 7.30973 1.49082 4.79422 8.11129 4.39899 2.42853 1.22364 4.76491 2.38885 3.9473 1.61176 4.52722 9.36901 1.47016 2.94923 6.43758 4.78538 0.240285 1.21848 5.0568 3.95926 3.92967 1.22867 1.13456 9.59465 1.52269 1.36238 6.40049 4.70699 3.60773 4.91138 5.03715 0.631067 0.444852 1.32622 3.42341 5.44453 1.81314 4.0782 10.0264 4.50597 1.93416 1.84119 5.98942 1.73487 3.36358 0.436509 3.81078 8.5816 2.7017 3.3722 7.27247 3.37573 0.792818 8.58342 0.308163 3.53574 7.25157 6.00866 0.918728 1.92879 3.36543 1.63199 2.97364 2.81045 4.15669
0.338907 0.503582 0.0257967 4.47061 5.67905 2.2309 0.0726122 3.25525 0.121806 2.90515 4.5887 4.83899 2.29423 1.46761 2.25944 7.38198 1.46348 0.042267 8.25619 4.72018 2.62079 1.11405 4.59775 2.27769 4.15438 1.52351 4.65349 9.30701 1.76392 2.73745 6.39241 4.44828 0.466507 1.07514 4.71606 3.78761 3.86844 1.31425 1.30416 9.09776 1.9622 1.20942 6.9734 4.90306 4.05498 4.84456 4.88204 0.561608 0.376591 1.46359 2.81225 5.61994 1.46098 4.09668 10.2264 4.92098 1.49977 2.16184 5.80311 1.6755 3.2305 0.376061 4.11273 8.75119 3.05004 3.71052 6.84076 3.16489 0.962948 8.45886 0.641773 3.41208 6.86019 5.60838 1.40747 1.75134 3.28751 1.56601 3.42623 2.68724 3.94462
0.139424 -0.0250564 0.140112 5.0227 6.04144 2.18061 10.1289 3.11484 0.290642 2.95081 4.48796 0.155598 2.27792 1.62305 2.41603 7.50146 1.24929 0.196586 8.12631 4.57641 2.47221 1.05516 4.8475 2.37241 4.26178 1.83412 4.39943 9.30664 1.80625 2.972 6.44976 4.34908 0.011302 1.11706 4.73353 3.92323 3.84526 1.68002 0.996255 9.15654 1.48415 1.37671 6.22574 4.58798 3.48848 5.01408 4.33483 0.44236 0.447347 1.55427 3.38998 5.74159 1.94527 3.95696 9.88175 5.08635 1.92236 1.83874 5.96577 1.80814 3.49475 0.503928 3.78481 8.71591 3.04772 3.43799 7.17764 3.11323 0.770226 8.3783 0.624062 3.3814 7.27326 5.43738 0.705539 1.51097 3.62462 1.36699 3.42072 3.10604 3.8344
0.315171 0.131667 4.91691 4.81893 5.27661 2.36256 9.64301 3.51637 0.278457 2.83567 4.57277 4.89945 2.24485 1.71453 2.31758 7.13266 1.49381 0.184422 8.18747 4.99754 2.62513 1.20762 4.92923 2.24956 4.23845 1.27224 4.51103 9.34712 1.59075 2.72481 6.61536 4.46915 0.0894139 1.34191 4.72902 3.76447 4.08416 1.44186 1.2003 9.17303 1.3595 1.19933 6.78508 4.34354 3.53269 4.95744 4.23118 0.217544 0.421301 1.32002 3.19943 5.60367 1.37768 4.01098 10.1502 5.27378 1.95547 2.33973 5.90268 1.94304 3.2326 0.0245673 4.18013 8.97917 2.92512 3.41917 7.67618 3.60899 0.989304 8.44212 0.516837 3.41233 6.61783 5.97575 1.01894 1.562 3.6392 1.52327 3.30322 2.55733 3.79547
0.611674 0.824942 0.0161465 4.72559 5.93983 2.85222 9.40815 4.00551 4.80324 2.89383 4.54382 0.142502 2.82125 1.63425 2.51788 7.48186 1.46088 4.61869 7.95087 5.13102 2.34559 1.23193 4.43786 2.4655 4.19654 1.42615 4.67666 9.08698 1.55734 2.61396 6.22723 4.474 0.180992 1.24298 4.46592 4.14694 4.29456 1.5051 1.27004 9.00513 1.55305 1.1433 6.02022 4.67301 3.72321 4.90679 4.76859 1.04428 0.127946 1.8465 3.03407 5.60745 1.1202 4.05095 10.1784 4.47139 2.23845 1.89827 5.57687 1.706 3.22218 0.107983 4.28622 7.92302 2.67118 3.12778 7.11959 3.25581 0.643096 8.88811 0.212545 3.44097 7.47836 5.39561 0.425362 1.98085 3.27309 1.86068 3.52903 2.73389 3.98801