-31245.7521425427
-31245.3720157597
-31246.3772153293
-31246.6352346273
-31247.7398604609
-31247.0576107357
-31246.0291039475
-31247.3819606051
-31244.5114979555
-31246.4590245442
-31245.9758892564
-31245.7859922624
-31246.8768284622
-31246.8335637446
-31244.5977028951
-31245.7129934088
-31245.3656944224
-31247.2072471473
-31246.9524009671
-31245.8787623532
-31244.9630024748
-31239.2560961501
-31246.0453626049
-31241.7663320996
-31250.1865050715
-31239.7374203852
-31250.3664021592
-31244.9066245981
-31250.1897024075
-31235.9855641848
-31243.7827705302
-31250.2376953727
-31244.3582229756
-31250.2258365217
-31241.8668426006
-31242.7657650357
-31250.4079409957
-31232.9797919099
-31247.6212769843
-31246.8881949235
-31246.6542193198
-31245.6430088947
-31245.808023676
-31244.3547044094
-31243.8272290106
-31244.706982124
-31239.2506204062