-0.513547509075784 0.254128219307726 0.330121761939515 0.812834560962976 -0.774799223119599 0.459761858518985 0.203724081880539 -0.0125752590609295 0.120279743249431 -1.04620447540866 -0.568128144319077 -1.31600638859521 0.880683624321139 -0.41300482904067 0.620828532792535 -0.358631938825414 0.492294267111062 -1.26918225335908 0.557476069428578 0.469766787078338 0.993794621442236 -1.60970695042156 0.491490797788523 6.0349079609694 -0.815142896187859 -3.18963848474564 -2.34692489228134 -5.39646506663515 1.97973504100769 1.79909765380836 -2.15647360938878 0.87402832722868 -3.17690510292203 1.88389310645225 -0.0350580019217744 -1.30012777790037 -1.27519040412039 2.02793831526658 -2.12722681182798 1.73059115971173 -1.00787963149899 1.16129419249977 -0.144671786330813 0.301409239339428 0.316889329250294 1.70760396667142 0.672196833406769 -0.170637343733456 4.73319869833209 -0.441134482855414 -0.410117224573009 3.60153825421886 -1.52629449345317 1.00860416799528 -0.82946779004555 0.174862178264006 -2.41420394236332 0.700318516805833 1.57008395719685 -1.04488241484658 -0.508709209648089 0.593197672733224 2.04687113782781 0.35254845478042 -0.703939656626199 -0.647669293258834 1.23718052018515 -1.93101831771293 1.37637431695244 -1.37525023123143 -1.14517981176691 -0.215896706394558 0.197698704736952 1.30631076358627 0.399058915593034 0.0847270613351559 -1.46934073121883 -1.00581400828706 -2.65455439828323 2.01054892513518 0.777709967503749
-0.12714149981901 -0.378750296441435 -0.755567381415295 0.271493955302273 0.227032919760046 0.975946289633798 0.598813216244771 0.687556595751891 -0.00176043342445685 -1.16999737220151 -0.175615768211002 -0.521134316362022 0.125796813560808 -0.425909960466661 -0.328264397975987 -1.80928744458945 -1.78392866721919 -1.67849163773644 0.71188358995692 0.0338763235197292 -0.0681149152876049 1.28873419724148 -0.369189654278674 3.70462118286411 5.04589147517198 3.27101977126665 1.25034559000637 1.78458172708455 -4.10772804118165 -0.907939617733326 7.91711391039941 -0.661464540139107 -1.10726428726891 1.49785399342692 -1.53630996353004 -2.28289854312718 0.0727786369008987 -0.864205432679041 -0.107575929096896 0.272014089202912 -0.29827378065515 0.633706667649289 0.703435977777286 0.299792273397204 1.16810272726142 -5.67166757922008 0.93484002776213 1.31457351354417 -2.74403105603287 -0.843805025192036 1.4188116382426 -2.28756972093579 0.0440080073994059 1.68832995889707 -3.96307579522476 -1.04550127905758 -1.46385605679054 1.2537283886869 2.63502173766457 -0.502404867955715 -1.51713725716787 -1.79954785373917 -1.43519264223544 -0.133160706318201 2.62947329991084 1.07860987157023 -0.611808079124703 1.14454269273291 -0.900893770272567 1.71254690994368 1.46690332668197 -1.25646455525665 -1.44705493475832 -1.17907336166892 -0.272225690883696 0.101645682721096 0.0951495368320461 0.336895843936618 -1.87638214667006 2.0000878831108 0.0201060163272273
-1.59227822243213 1.2746036786823 -0.773993954025777 -0.620777367866076 0.270687657767718 0.997024439563753 -0.117306263980577 -0.58493338011422 -0.231905157731926 -0.399325795963209 1.81759955970253 -0.362475993174626 1.9086073085932 -1.12882631856367 -0.224741810917439 0.855419720608483 0.0941411506934862 0.767556686368683 0.263019860773768 -1.57744219353021 -1.6803423168352 -2.91118558522453 0.845164109620498 4.41206936505043 -5.26693758431592 1.48880937140187 4.45709707143646 1.41167220267515 0.448509688460868 1.90144704710091 0.470734806918134 -2.44813785856409 2.80990834139598 0.305788854200272 -3.34879071659498 -2.23305696278086 -0.499461984798664 0.430960118685324 -1.44551278787941 0.385401222660779 0.193986033691361 1.86266454706512 -0.508675013993722 0.860131521826037 0.71698079933911 0.551569477189634 0.529235086904503 -0.335966647734488 -2.38396444238513 0.904890548070608 -0.00113951233199836 3.78174395342057 -0.299931884226689 -2.19835248736101 1.41681980565325 -0.121639084788077 0.218612047039467 1.64031694617376 -0.0414307349228825 -0.602062317630029 0.456695562473992 -1.47379439381244 -0.984463064452717 0.267235953558089 -0.949291419829962 -2.4289011317663 -0.659001938804297 2.89588470111136 -2.62422799506312 -0.464749538963127 1.28953278147054 0.0420087186147445 1.03801911561591 -0.769944211529995 -0.958041650695238 0.160505916963963 0.757839206994162 -0.151397017393106 0.510112774138247 -1.35781301860595 -0.948787998091232
-0.0451431488582896 -0.0544772769496408 -0.389317010751108 -0.206243247455657 -0.302610715225581 0.118586415582793 -0.404170008925118 -0.603905026313113 1.01164063925902 0.197023790506018 -1.00725896751671 -0.130266159875593 -1.2355884939307 0.41859260465243 -0.376331660947954 0.309494326160733 -0.347286694880973 -0.900320414564003 0.121438281734987 0.535949776449284 0.506270005339951 -1.03996801080466 3.69176027438963 2.65048717229499 -1.96012756132571 4.77050615724679 2.73103747870386 4.34995720121029 -5.05679963180496 -3.70059355184409 -6.45046049481552 -1.2356252606869 -0.493540480169094 0.859586448237627 0.327935296941475 -4.12047582117551 2.30706870012045 -0.24606704373346 -1.69294380113482 0.303942031754256 -0.0115982403647216 0.430408874452516 2.18766030328193 -0.32747789792554 -4.94283297199413 0.159749755915134 0.303179700061031 1.34220771603586 0.661718050779755 0.425169483139009 -0.157658678795066 1.62780982131138 -0.500922113529128 0.817024685618792 -0.138393155656761 0.0493900948645958 1.02295682975276 -0.380362120179995 -2.45728018245876 0.755090184915252 -1.21193924216862 -2.8655927506558 -2.14131593564767 -3.5362438376411 5.61649353367393 3.56368366483428 1.56572619670158 -0.343902353539346 1.49875130796634 -0.638008121014436 -1.92646798169043 1.40473562704226 1.67209422215774 2.06586412417191 0.844220515248107 1.01909503480091 -0.501723268860019 -0.134648088728086 -0.0957169790063963 -0.415845639454986 0.483144229910891
-0.137501240431196 0.035335680919644 0.544876899120609 -0.468622646763042 0.192339242967884 0.307479096544712 -1.17514574651016 -0.634165866436507 0.65365456121384 0.964053915219482 0.247838532895795 -1.3420953588858 -0.594512791320356 -0.711111745186916 0.827733067639415 -0.53344449482406 0.694915346305619 -0.834774287116876 1.17469657502009 -0.391405259659161 -0.345719608314292 -3.51971190997071 2.67134523590811 0.674606470043837 2.65739752268919 -4.13149787761965 0.163833179844917 0.318479041513098 0.977405904143896 3.48588546582652 -1.66377259396788 0.335324129386639 1.01325554831978 1.37411688954383 1.13093925004932 -3.93503612997414 0.231383224060004 0.666305410668635 0.0952991749586758 -0.838708072920029 0.27917512202575 -1.53071678860443 -1.03874493766312 1.06231319971748 -1.17408773810624 3.68865746869862 -1.24957374523637 -1.02238116005255 1.61382148468351 -0.0144735035435883 -0.542927746821674 -1.37682580243416 -0.540471316131261 0.0889830061978745 2.47460529504436 -0.668555124771745 1.1234041219099 -1.58755048038321 -0.425243273761591 1.80345927095638 0.076474338674397 1.23638450705793 -0.0514855428577787 0.553811220877065 -0.394229615021751 -1.20302368945554 0.0512227762505354 0.60494837943659 1.64992901037316 -1.08828338510343 -0.754766997414954 -0.373951591981955 -0.471791786881321 -1.19402200483108 0.0431366609884983 0.705978026158709 -1.42778246964507 1.06617756577117 -1.39008214637042 2.40272860066617 -1.18551294331766
-0.284996353683867 0.194333646659065 -0.320011675315228 -0.5989643970325 0.208607889810663 0.416580203248425 0.176636238528173 0.0344242253201553 -0.569699344648689 0.422547473490607 0.188787780007168 1.06563532039477 -0.14765272179498 -0.532722015209232 -0.434641679398745 -1.2067031932875 -0.205435664370186 0.771058527064039 -0.496228052914215 -0.0162041121867925 0.378208822395589 0.654383211473065 0.914520352872653 -6.7570517898976 -1.52544243030601 0.365641790860523 0.144983146762684 -0.10897280872229 -3.54039848109163 -0.731417793236682 0.506679581861809 0.214442234088124 2.39173225524035 -0.239516647595752 0.129202237937459 2.72670105835379 1.26935785961421 1.06009099640398 -0.478716535445787 0.844533161230894 -0.91129002053077 1.63374135323809 -0.0512667420918647 -1.29212059546458 -3.43118296035639 -2.86826258279828 -0.232142470431031 -0.725786823114143 -0.705936374309029 1.03421645600619 -0.446619671504072 0.88667249181871 1.1202843469468 0.279406006970275 2.44192324832565 -0.237720990076195 0.37716444083138 -1.33123245364507 -2.78494397104676 2.95668226058474 -1.19196563758575 0.995189444186164 -0.755554268795951 -0.0990704671260386 2.21735652944298 1.42546076469066 0.418085840481318 1.35470764181311 -1.08147022235847 1.24226076029525 1.75466464327611 -1.26341475772926 1.4882882090605 -0.68703311941887 1.44057884346356 -0.83800873322169 1.35440090936454 0.754065857945333 1.34285151993463 -2.70085942805946 0.233568917727495
0.381882155583148 -0.382790011640072 -0.312057714687363 0.525915537329044 -0.12037564534777 0.295895511460434 0.274411384551187 -0.0750748879471707 0.329412909164398 0.268831836465289 0.158389128825573 -0.240489552529029 -2.32004530817737 0.230414432889659 1.74255089699404 -0.61231844283838 -0.102105652838864 -0.741157641197143 -0.16797419645574 -0.155993633248581 0.197093981586035 -0.756021437998848 -0.169097253736013 -1.09350760691612 -4.83489323198799 -1.15812582371204 -0.420719162977782 6.02940554593846 2.30368513010937 0.30930843549827 -1.72248447563503 -3.50285576635929 3.47460012855477 -1.14748120501685 0.15478264428565 2.0793572665869 3.30204808528693 0.385953752444503 -3.3257526157384 -0.123728362136862 1.2803225804875 0.631791453894538 0.227994254735078 0.113901868044659 -4.53119622623834 -0.840647455032002 -0.800848341331786 -0.574449198173359 -0.766980502448103 0.204513667253185 -1.20434317891579 -0.558794273337909 0.543402372219885 -0.0100622641302093 1.40614664772773 -0.738262837644352 0.639362320349417 -0.185299051931156 -0.198409871503718 -0.221360812008193 1.83804470436141 1.68591492294615 -1.29085124249006 -0.938301502158722 -1.82179251257036 -1.26637486726858 0.177446649825659 -0.108456017254032 -0.483933558173354 -2.60772434951288 -1.43883563642138 2.08625758968397 2.24926210340839 2.78162005059819 2.17064012337362 -0.59241631488644 1.9634267991967 -1.2605194399561 1.49372146145215 -1.0333034577456 3.02050472136361
0.233937870840405 -0.374204331292053 0.361655297469811 -0.0219546385445261 -0.391996870190733 -0.474996665315066 -0.186894420617991 0.361214867725968 0.631850589236677 0.358031843657795 1.43715053628061 -0.232738194725535 -1.58245918453524 -0.0986917438261664 -1.39459211609415 0.735401715525562 -0.608025474109279 0.237108039399416 1.0689890656246 0.786731449612314 -1.37633755019624 -0.267618533510709 -0.185289024634011 -0.563822834301181 -0.574293903622698 0.111345421492976 3.54305237240275 2.16292141856339 -4.37141227466884 -1.31808383887557 1.31805375698414 0.31615913632997 -0.0045166545884962 -0.402936394266064 -1.04914581590462 -0.0348643979538153 0.0954133318800222 1.3411779897521 -1.44968105816966 -0.466442095299216 -0.985153148184459 -0.507908825647748 -2.82727459161089 -1.48727442360809 3.10592520886289 0.0238487692642535 -0.609312567686441 -0.511043513001476 -1.99326623572981 0.182807911366009 0.917242635492508 1.94647912436005 -0.786343470345846 -0.428993997114297 0.446962399378294 0.098182151443039 0.623607379652697 0.216943401950417 -0.109331734538055 -0.165826040874998 -0.000750504624797655 -1.5411870865954 -0.684948984273749 -0.615565230231989 1.54837408754674 1.66861423582796 -0.52514369255904 -1.41291455908043 -1.15116945059504 1.76429959028182 3.76995570863046 -2.03454219032239 -0.213243586413987 2.30503213035922 0.487904882063256 0.0571735914409916 0.0842910024644273 0.285242922349568 -0.750612353964421 1.66786038877078 0.471862492181704
0.333083928360308 -0.0483218020533473 1.27825207218209 -0.278213272830352 -0.640336253723427 -0.691030154327093 0.112627372866474 -0.0298070406500229 -0.0740094233479376 1.29716586858976 1.31886108295942 -1.41023778496301 0.651370908566546 -0.790287026335961 0.417821788323159 2.6267584734863 -0.326845406874837 0.316653559212288 0.977515690192128 -0.00309354972441431 -0.169257176269971 -3.6817933981374 1.71966037738262 -1.0038743690649 -2.85467225273403 -2.7514923935497 -7.35806098421719 0.383942636591414 1.08237679286448 -1.37733513770711 -2.5261358321842 3.24093093785582 2.56121723113265 -0.340908819676201 -0.850965029574141 2.41353982676008 1.03261183135276 1.19215075691766 5.31991616600762 0.711425419610435 -1.32035515023407 1.28586356204592 1.90298070934378 -0.0759351786202001 -3.22709301068514 -3.88657908796442 -1.2613648182385 0.673058923851081 0.447366319476121 0.0185083336487441 -2.19987200854379 -3.18964388405948 1.31110458295227 1.47685529054358 0.754831274960757 0.583223340285673 1.37875978523229 0.507254480231472 1.11883938771715 -0.572799579237867 0.507777442344126 2.38703639485416 -1.00382243280789 -1.36854016966995 1.6736386830283 0.954503814574232 2.1106396054682 -1.35584972524694 1.03649805177202 -1.41453229635321 -2.21432700015419 -0.313622487262395 2.45041122680405 0.393803840558351 0.0437038460526654 0.439685409862828 -1.71943386331121 -0.0131013064957826 2.29357041550179 -2.65172052984386 0.257471680130223
-0.0802039789920794 0.194354986804271 -0.245408070333886 0.323276203311479 -0.473993678490354 -1.10579927344497 0.245293656302357 0.467422970648172 -1.1678931824621 0.862076560362041 0.222159910457618 0.96251639632387 0.971602155978238 -1.5440664635372 0.43816023225601 -0.201693168543343 -1.39232723249023 -0.483532209177359 -0.207541139660514 -0.23661130252545 0.0899037177639589 -1.24585901730931 2.04303942476739 -1.14000186978719 3.13548388107593 4.41481324492568 4.05282781798062 1.4644983180282 2.34082392474389 1.59599295035918 -3.57199089485388 2.60933025971723 5.78470427149823 -0.260629764510624 -0.927241650517648 0.898513444196385 -0.939996886706826 -0.573917751424658 -2.44524228368075 -0.279623522185273 0.418176857486175 -1.47136007459778 1.09464660502775 -1.69193181545369 -5.86272924168758 1.73904339987466 0.416341604998404 -0.831066501164766 -1.72917036883929 0.107934597802477 -0.0483778520732877 -2.1123059365656 1.93897433522226 -0.167602929351181 1.00992674277773 0.373899141504579 0.246396916098522 0.475245290862233 0.590972126987335 -1.18799945589951 -1.11688997830803 -1.47043756326041 -1.22471170474008 0.271488041768059 -0.0487771441878169 0.173844793269034 0.660603478135528 -0.204711384984076 0.64967938067119 -1.08348288087266 -2.92612934329321 1.33468878583799 0.14184485986639 -0.961656619871207 0.332692863771641 0.0628048186737145 0.271038870277987 0.355560243466572 0.371553782413314 -3.95748056341768 0.46624232068686
-0.116776359892976 -0.533089682771226 0.48145707288865 -0.513033545819542 0.24469844622822 1.14511322022946 0.715905050332549 0.480003114802583 -1.03680889798352 0.0535879328259083 0.146963409393787 -1.67480673459063 1.18746466671843 -1.3583498646685 1.09964251299776 -1.71113820324986 0.490588855265813 -1.67082101253047 -0.16793897236064 0.190995328040232 0.832707892574396 0.589766794448434 -0.70954105907767 -3.68337565420489 0.752112591883467 -0.335658115514633 -1.44679731035474 0.177949043123657 -3.65488038970962 0.0153263380213046 -2.33792012233468 -3.64045008067681 -1.03675079108212 0.515526486155972 0.218447239412027 7.47700452584446 -1.82556689005992 1.11534474610692 -1.80703027429102 0.848120876727443 -1.2730170517417 0.719349812567231 -0.118743252794553 -0.358298466917787 -1.05550389362528 2.02409580357847 0.248112098130734 -0.866960111181982 -0.343661441297675 2.93911649286765 -0.963108006855442 1.48313006456489 0.207224379914796 1.77263664508267 -1.44515103385163 1.14064130281284 -1.7795971319626 -1.38987517267293 -1.28173128718132 -0.045322611766172 -0.813222797339627 -2.04809318252862 0.608206736788444 0.267199443912073 3.13317400318995 0.980660919063368 0.952465187931539 1.91339675708609 1.69796927677589 0.594201173778303 -0.300421422015526 -1.64267156123162 0.718261722271876 -0.0702926385394158 1.66723329703392 0.190763671765157 1.17105949436836 -0.901713437536649 -0.287522204123748 1.92405705950245 1.11395917932959
-0.242116288658215 0.155376568808871 0.177821002252417 1.14289590200944 -2.42371393381999 0.976317813848541 -0.801558993878186 -0.958529902933158 1.64743067072288 -2.62558450838975 0.689963661287127 -0.368284626433765 -1.14184663535175 0.989449716456126 0.425595000492226 -0.382092728823199 1.31603698470702 -0.315134038029502 1.76878847697053 -0.355851549304152 1.44277970663186 0.625656290702718 -1.48833217490183 2.13533066769266 0.515854815859934 -3.33412386619362 1.95344192523164 2.700909307435 -0.235906820623447 2.18403530680881 0.788760306068045 1.59731706780273 -2.89525760937451 0.337912457601041 0.704592202271193 -2.35015882416579 -0.810503342931787 1.93957957259354 -4.13352030632081 0.239151808245774 -0.336439987581782 -4.26198001004915 0.371744043948891 1.45481477719786 3.03572487287924 -0.343301487041178 0.690351383443412 1.39320269266407 -2.75238482299563 0.0925781778897366 0.680712065564588 0.791725043590669 0.858773980058675 0.623377008928538 -1.5027246887377 1.05590704239256 0.229627675729028 1.50434268312066 1.22208378155746 -1.52208559975398 0.911585697241464 0.945683135518756 0.803878127730764 0.434939155880722 -1.86386062363743 1.10459599778753 -0.359639553633424 -0.566812254401394 -0.681646146860199 -0.295044476754 0.155179108188164 0.848947485966471 -2.43715848241036 -1.98733907467621 -2.12973260767357 1.96109429561459 -1.21124761577578 -0.797373754315851 -0.401404017574116 0.894471157895916 -0.207645012174532
-0.154090760782624 -0.0932299522041806 0.0366438575318299 -0.79561460644231 0.559925815254227 0.118087107606994 -0.25348672940061 0.602959889279624 0.160442410748709 -0.565720564563474 0.638809790565693 -0.396356430457286 1.60421250580631 0.162285119431794 0.0393358011500661 -0.59652827804656 0.718767200892071 0.855187293002859 -0.489510535157419 -0.205605099980923 -0.221935967488039 -2.57679733690478 -0.302692476263843 1.17928007825622 -1.93013822955579 -2.63171504359827 1.07748398607795 0.435165155731766 -0.653862049131693 -0.429406658958353 0.988283464665073 -1.62540764086962 8.1675163460422 -0.54925625687127 -0.688399660042645 -1.86736426410406 -0.272851239959452 0.486438325578211 -1.81759775993124 -0.904062139060296 -0.595822767703824 1.82559440084952 1.15521996442137 0.20104627932238 -5.1899153438411 0.6031532361374 -0.141342980788759 0.401362365724436 -2.64350843059205 0.196584132092725 -0.477501432719924 0.463009674353327 -0.260794829248246 -1.03685877735907 1.13139793461617 0.0329394140121023 -0.101800720161574 0.683875292148653 -2.28036240827997 -0.641266992586656 1.76123252290627 2.25392351103003 1.47077000672731 1.95124029073279 -2.27975639957814 -1.18805602013982 0.39027037531046 2.93720230755363 -1.16283273983611 0.874738465554713 3.29913759801296 0.205393241189956 -0.695194825074772 -1.73250843034794 -2.02999288274063 0.55585241862159 1.51342227213063 0.83853375221581 -0.17089136859447 -0.111942174228212 0.185255600310193
0.347476699306367 -0.490454129529809 -0.149658695444405 0.169588334185949 -0.406132016733213 0.164005186557487 0.758346999606006 0.20378733098561 0.774374219986749 0.222141912744793 -1.44608100138431 0.324188944461884 0.0734206410283807 0.876971724606098 -0.657058185819209 -0.376580286495121 -0.472972693952817 -0.0545482393602075 0.318827682921534 -0.656374529842047 0.924272542121908 -0.816700469677761 -1.79931182659098 -6.08451659948972 -3.13443307175714 3.03964451762232 -1.18370751561114 0.436669764523927 1.57667729073515 -1.92509218510006 1.09183999026781 3.71610398075657 -1.73028725547517 0.291459332359283 1.01867157432916 2.49037849056409 0.124854504739334 -0.600719174032926 2.11545013699611 0.367817457230868 -0.741632266595354 2.85962445197289 0.468557854996873 -1.64840563253763 0.293204339172747 -2.31748320520166 -0.0999644392330689 0.670281362541835 1.14983350608306 -1.16616591625128 0.712915630232335 1.08924523429882 -0.0263707630513862 -0.462724539160144 -0.575995201705017 1.13601409084557 0.311675648955109 0.804662828009929 -2.43002084661419 2.66750658087275 0.59070601794771 -1.27060870065554 -0.223295051916501 -1.91654250017769 -1.15973867589133 -0.844339300152752 -0.428145276399512 -0.402118783883448 -0.934657993752416 -0.643250854760325 0.761799218036002 -0.984597533078537 0.509436060136031 0.668925877655938 0.980384782726598 0.724532639640431 2.10264167899901 0.356093232876372 0.669713406147118 -0.284166144902274 -0.409872969898957
-0.126443702781771 0.0812097940288072 -0.0970765776552247 0.192267509226768 -0.275388146137211 0.236164445027026 -0.155674559511214 -0.668765955121979 0.77331955401521 -2.2248227520533 0.0953673091572272 -0.518231799503735 -1.14263982026696 -0.193590341119397 -2.34546373511014 0.274109022975729 -1.67388859412638 -0.0823734747180275 -2.21460853580481 0.480292877979063 0.556151694874849 2.08004837875938 -2.09083415094515 -0.361819333766701 -2.0925043386953 -0.259614950617483 -0.754932576372943 0.361830132394396 -1.22931706234178 -1.96376721307927 -2.05619652417293 -3.40130752839763 -2.06599499325516 -2.38930873465339 1.43413309117042 -3.40876835169409 0.547657802862237 -0.235833801331415 0.383849305594908 -1.37015610717144 -1.25445678183594 0.0337575386150849 0.326503707441347 -0.87620682181104 -0.995792110455615 3.26045331406716 -0.327980805443904 0.283736256675942 2.88201746337979 0.398182941198829 2.46175698496886 0.769479099208563 0.210514104709002 -0.334596764678331 1.65053450485463 1.59651257003946 0.741114446686363 -2.57669654971297 -1.14494995526312 1.30350723414852 0.599849884503484 0.544014808676297 0.28499661079405 0.201165835557574 0.288717509365504 0.781569191353771 -0.963689590089869 1.21078121790343 -0.455867667684047 -0.770971109601746 0.724198396402255 -1.58871056152987 1.39539532830651 5.18213313281562 4.3217211037797 1.35353907603041 1.33284376316326 0.783522457415637 2.18886203627826 0.0532338921036245 2.02822859266343
0.908359992882879 -0.866777048731534 -0.0977826022183266 -0.517694182110638 0.110911676613896 -0.208022192813305 -1.11046453771936 -0.480892716036498 -2.02459176912188 1.47749163824703 -0.294256691152636 -1.19627043338328 0.493050171049707 0.159159688044661 0.683388839682014 0.26864543158246 0.623320187578048 -0.0196092794532605 -1.22955231815942 -1.09869094820969 -0.676143474719082 1.7284535456485 1.31979336448375 2.8695825864789 -6.39205997358024 -0.354817452147271 -0.0616061709995773 1.44397732586527 2.0970040240117 2.05055141299031 -0.707274118592284 -1.60608709615211 -0.78878473153545 0.745490462004642 0.456921819435219 -0.695402312992624 1.36372989525223 0.366671517144289 -1.47972104064567 -0.605840037551972 -0.155903387574274 0.178056258070057 1.67078501710482 0.822477221274182 -0.217524213854294 1.32070456297306 1.09205107772822 0.120944115962853 -2.15415216154456 -1.31400041494579 -0.698190415819382 2.41116438577738 0.226788407975811 -0.467225252917282 -1.26374000211102 -0.579178739993555 -1.20093492632712 -1.99413603947961 -1.0478625789802 1.96069577483061 -0.0635846338593984 2.52141606055097 1.10992666321608 1.14495124081404 -1.34709949438167 0.819918717841033 -1.52075376900494 0.459716864236923 0.159766468077043 -0.562141333702971 0.636233803640086 -0.797239799910397 0.300346345842027 0.322362433720341 0.634156353359728 1.06494755065468 0.971116217731966 -0.522469746653629 1.77929554171769 -3.04037831008521 0.564531429966115
0.17513702904986 -0.89605212841249 0.925587660709041 -0.52988069057455 -0.167835356956805 -1.03865263510734 0.417045829790223 1.1911439134402 -0.434655563348639 2.02431049058145 1.42166684682718 -1.87042130418246 -0.440371379831639 -0.21966234213789 -0.0912730865997493 -0.310143015152978 0.0491358128933985 0.0127737481223697 -0.620181643571572 2.3558070206706 0.73008030606361 -3.05334334818389 1.70173954050252 4.13611969027308 -1.26076060930795 -5.20710830179253 -1.92470986225763 -3.44185277584953 0.475062742632152 4.21020110447232 1.97838881208839 0.492983065291889 0.759063051466254 -0.85264318773997 -0.51176650683667 0.506587793526402 0.409324810988348 0.0796180248845378 1.3845627620674 -1.09684463998404 -1.10956130964574 -1.07662112430308 0.938308444133668 -0.638778166013158 -0.04469500580895 -1.21262932590036 0.402179204776503 1.10394987989712 0.563522015386822 0.245872668434952 -0.782527183896421 -0.309625452354171 2.40433579642144 1.18513087758541 1.53772561219881 -2.42781149880985 -0.154849492933285 3.22265117515995 4.15025483681556 -2.1461367515829 1.20417040087267 0.8834287897473 1.14923186825434 2.45907738263942 -3.53766000053023 -0.0647107764618697 -0.293460420915227 0.0227300828570954 -1.31482445308299 2.01146063784485 0.615054609408129 -1.70883629577956 -1.25695306460476 0.102061944107718 -1.7616410709874 -1.33688604946373 -4.08186404230137 0.11947370282506 -0.92554678018991 2.20502526794592 -1.80820809604032
-0.489166521732281 0.641651886530926 -0.342770040292477 0.0489422089254394 0.380993068569599 -0.14544620220265 -0.130885795417135 0.00471308676847064 -0.855263911837456 -0.172980645943256 0.510039754846214 -0.368167641300404 0.237306528460857 -0.98271625786797 -0.0213630280129539 -0.420362551153666 0.44186081912299 0.30858415611216 0.411351096342247 -0.201989359474404 0.113531629380833 -2.01894100151524 6.52842632966273 2.38041709318735 -0.0168862255028556 -0.852092714837712 -1.98020606686334 -2.92614399857366 -3.31828716445864 2.75521920565537 -0.324255793109519 -3.74562331511158 -1.94197121151779 -0.458911595143101 -0.906591074822376 -1.30718853775175 -0.355212630498869 -0.114674998365579 2.3041242743023 -0.0762527096964677 -1.17147755552627 -2.52102242486047 -0.938858145705377 0.0813617461470858 1.0291850668309 3.20603825778185 0.379128505520941 -0.262608227370445 4.74419735774956 0.665914603190151 0.692121587054831 0.267394847651314 0.667240006184612 0.120733285612618 0.0104525573883261 -0.541682047984009 0.879513515877338 0.403877417536622 -2.00299554217275 1.09570075677893 0.735477820139793 0.301691032100229 0.517218271161511 -2.32827386248091 3.39711946062328 0.513749340569606 -2.23606823724665 2.25763181120251 0.982419552716543 0.0149972369867925 -0.430516860729465 -1.32813273327625 0.410053718357756 0.561857226950521 0.0470583626130405 2.41395248860414 -3.02349696967584 -2.07531112363369 -0.01084182220571 0.472514523606332 -0.59012494893365
-0.330688432783316 0.228337753939851 0.0690682798469573 0.400147262998573 -0.225410554503975 0.269908356802401 -0.100709287433836 0.555487836381794 -0.130644626065282 -2.03453267724562 0.079251899983643 -0.228746302020975 0.632675655814606 0.827475700346019 -0.274966228326559 1.85502631774224 -0.168651938898688 -1.00358614854952 -0.0377849125249275 -0.828817044171839 0.407060441604794 1.70063113850269 2.02555207565618 1.5083134927902 -4.15138355051987 2.5128555770009 -2.23726251404767 -3.15227137626843 -0.961086349484842 2.08170545389019 -1.15978264173266 1.45567841030327 3.25860906272297 -1.41340949618312 -0.192090617420718 -0.315983787185019 0.557373482465476 -0.851771584218879 -1.41744124096608 -0.566299833806252 1.16619959768528 0.32568918238093 2.75214905295763 1.2725452545555 -1.27192741878524 -0.469925166951197 -0.798740552049809 0.952026557958978 -0.907415627179939 -0.184307635064688 1.25211322251596 3.81801448696638 2.30975061644154 2.0641335155287 2.38153012317047 -0.317649089841688 -0.619436795370805 -1.50217524427618 -3.14902227488317 0.240138082908577 0.171494549084287 -3.24549001562455 -1.6019321955914 0.0593407731752908 0.835897601507332 0.122499632571289 1.16679146532703 -2.94822436399777 -0.566685241970887 1.96534972625695 0.495250005777275 -2.58299214965911 -1.78484166547977 0.517894985163727 -2.8335033429094 -0.527476710361511 0.402521675540542 -0.025805891978868 0.678173359615546 -0.813436970122243 2.55964834479469
0.502126931847663 -0.120889865714195 0.417890436742076 -0.565285534133478 -0.232575443979561 -0.348057254100062 -0.54481776377847 -0.515528543037438 0.41566103434344 0.629557423512604 0.295859516034784 -0.660976287901186 -0.0837631552582917 -0.413617522607266 0.308691113948376 0.60095160163855 0.511795560287373 -0.610715875066416 0.365599110570109 -1.73308024339541 -0.936724131184712 -1.8904704991592 -0.934523782236779 -3.29024030012289 2.61144344831305 -2.51693128762519 0.448758314008035 0.925722386445044 3.87087351242288 1.60271509609928 -0.810455777547892 -1.17525039035473 0.712881177467785 1.3804765099256 0.631415558806681 3.39640572275468 -0.223171124808193 0.851608062142356 -0.126607481968477 0.392131595926736 0.152054705241764 -1.19911947132346 -0.733843884925477 -1.00783335166601 3.1731088710669 1.05245559529311 0.0963188739452971 -0.0869168687655778 1.39391463076139 -0.64157938145926 -0.903223445642657 -3.12276181210038 0.46707227235827 2.46649526853529 -0.15444814393729 1.04130498375736 -0.934539208847771 1.79977128248838e-05 -0.436258131120603 0.8768614243375 -0.168796691931837 1.73904339987466 -2.07207590619832 -1.56428663678577 0.351450851408285 -0.288295334444668 0.062834386344784 1.49764059197486 -2.40584940407001 -1.19403768855226 -1.8038464788923 1.36400166071588 0.702592399266165 0.701218402447077 -0.746540499992883 1.00797321960568 0.727422815209925 0.0747054206138941 -0.571658267134586 -1.4031651980432 -0.64829407100404