10.718883 0.000000 0.000000 0.000000 6.299912 0.000000 0.000000 0.000000 5.155175
10.436995 0.000000 0.000000 0.000000 6.418826 0.000000 0.000000 0.000000 5.127398
10.576197 0.000000 0.000000 0.000000 6.363555 0.000000 0.000000 0.000000 5.101256
10.634292 0.000000 0.000000 0.000000 6.224597 0.000000 0.000000 0.000000 5.196474
10.839307 0.000000 0.000000 0.000000 6.339661 0.000000 0.000000 0.000000 5.110281
10.545031 0.000000 0.000000 0.000000 6.316579 0.000000 0.000000 0.000000 5.071833
10.503259 0.000000 0.000000 0.000000 6.258335 0.000000 0.000000 0.000000 5.214207
10.643400 0.000000 0.000000 0.000000 6.395122 0.000000 0.000000 0.000000 5.098130
10.693239 0.000000 0.000000 0.000000 6.447476 0.000000 0.000000 0.000000 5.138680
10.499536 0.000000 0.000000 0.000000 6.290933 0.000000 0.000000 0.000000 5.008083
10.990593 0.000000 0.000000 0.000000 6.180228 0.000000 0.000000 0.000000 5.094493
10.373017 0.000000 0.000000 0.000000 6.310342 0.000000 0.000000 0.000000 5.163405
10.728869 0.000000 0.000000 0.000000 6.398940 0.000000 0.000000 0.000000 5.084775
10.549058 0.000000 0.000000 0.000000 6.238231 0.000000 0.000000 0.000000 5.174562
10.981427 0.000000 0.000000 0.000000 6.133886 0.000000 0.000000 0.000000 5.178014
8.992231 0.000000 0.000000 0.000000 8.432416 0.000000 0.000000 0.000000 5.301715
9.317809 0.000000 0.000000 0.000000 8.759586 0.000000 0.000000 0.000000 5.231303
9.040207 0.000000 0.000000 0.000000 8.780361 0.000000 0.000000 0.000000 5.335751
8.938152 0.000000 0.000000 0.000000 8.450953 0.000000 0.000000 0.000000 5.542976
10.542712 0.000000 0.000000 0.000000 6.405800 0.000000 0.000000 0.000000 5.082146
9.182215 0.000000 0.000000 0.000000 8.434490 0.000000 0.000000 0.000000 5.279167
8.992450 0.000000 0.000000 0.000000 8.733953 0.000000 0.000000 0.000000 5.248227
8.927244 0.000000 0.000000 0.000000 8.608629 0.000000 0.000000 0.000000 5.441382
9.002463 0.000000 0.000000 0.000000 8.427226 0.000000 0.000000 0.000000 5.441462
9.498642 0.000000 0.000000 0.000000 8.926502 0.000000 0.000000 0.000000 5.334382
10.546066 0.000000 0.000000 0.000000 6.319797 0.000000 0.000000 0.000000 5.081808
10.499770 0.000000 0.000000 0.000000 6.386967 0.000000 0.000000 0.000000 5.011620
10.652543 0.000000 0.000000 0.000000 6.311984 0.000000 0.000000 0.000000 5.017802
10.564909 0.000000 0.000000 0.000000 6.312938 0.000000 0.000000 0.000000 5.011847
10.788359 0.000000 0.000000 0.000000 6.387514 0.000000 0.000000 0.000000 4.989336
10.456663 0.000000 0.000000 0.000000 6.441356 0.000000 0.000000 0.000000 5.156591
10.562732 0.000000 0.000000 0.000000 6.321350 0.000000 0.000000 0.000000 5.067106
10.545158 0.000000 0.000000 0.000000 6.310756 0.000000 0.000000 0.000000 5.187912
10.915462 0.000000 0.000000 0.000000 6.084552 0.000000 0.000000 0.000000 5.258539
10.498566 0.000000 0.000000 0.000000 6.381568 0.000000 0.000000 0.000000 5.178116
10.154603 0.000000 0.000000 0.000000 6.451366 0.000000 0.000000 0.000000 5.159029
10.659397 0.000000 0.000000 0.000000 6.212273 0.000000 0.000000 0.000000 5.138552
10.400239 0.000000 0.000000 0.000000 6.469765 0.000000 0.000000 0.000000 5.111208
10.522500 0.000000 0.000000 0.000000 6.474023 0.000000 0.000000 0.000000 5.042618
10.283180 0.000000 0.000000 0.000000 6.334196 0.000000 0.000000 0.000000 5.144558
10.606623 0.000000 0.000000 0.000000 6.243062 0.000000 0.000000 0.000000 5.042211
10.583522 0.000000 0.000000 0.000000 6.273290 0.000000 0.000000 0.000000 5.094914
10.821184 0.000000 0.000000 0.000000 6.452775 0.000000 0.000000 0.000000 4.840433
10.799865 0.000000 0.000000 0.000000 6.442237 0.000000 0.000000 0.000000 5.115168
10.482919 0.000000 0.000000 0.000000 6.439976 0.000000 0.000000 0.000000 5.118081
8.830341 0.000000 0.000000 0.000000 8.605959 0.000000 0.000000 0.000000 5.355255
9.093093 0.000000 0.000000 0.000000 8.679268 0.000000 0.000000 0.000000 5.382617
8.788147 0.000000 0.000000 0.000000 8.785371 0.000000 0.000000 0.000000 5.246763
10.522888 0.000000 0.000000 0.000000 6.359298 0.000000 0.000000 0.000000 5.073802
9.241900 0.000000 0.000000 0.000000 8.727849 0.000000 0.000000 0.000000 5.163114
9.020932 0.000000 0.000000 0.000000 9.068036 0.000000 0.000000 0.000000 5.214961
9.212601 0.000000 0.000000 0.000000 8.546172 0.000000 0.000000 0.000000 5.293810
10.578240 0.000000 0.000000 0.000000 6.326502 0.000000 0.000000 0.000000 5.140929
9.340185 0.000000 0.000000 0.000000 8.802856 0.000000 0.000000 0.000000 5.290801
10.745203 0.000000 0.000000 0.000000 6.279557 0.000000 0.000000 0.000000 4.964448
10.524819 0.000000 0.000000 0.000000 6.328275 0.000000 0.000000 0.000000 5.118559
10.741771 0.000000 0.000000 0.000000 6.422896 0.000000 0.000000 0.000000 5.007698
10.798623 0.000000 0.000000 0.000000 6.347323 0.000000 0.000000 0.000000 4.932217
10.557461 0.000000 0.000000 0.000000 6.249060 0.000000 0.000000 0.000000 5.082510
10.447391 0.000000 0.000000 0.000000 6.364112 0.000000 0.000000 0.000000 5.116089
10.802769 0.000000 0.000000 0.000000 6.063862 0.000000 0.000000 0.000000 5.082359
10.571437 0.000000 0.000000 0.000000 6.395128 0.000000 0.000000 0.000000 5.111075
10.564057 0.000000 0.000000 0.000000 6.404285 0.000000 0.000000 0.000000 4.946067
10.851508 0.000000 0.000000 0.000000 6.308554 0.000000 0.000000 0.000000 5.079184
10.573255 0.000000 0.000000 0.000000 6.240430 0.000000 0.000000 0.000000 5.081826
10.610045 0.000000 0.000000 0.000000 6.301753 0.000000 0.000000 0.000000 5.100634
10.503592 0.000000 0.000000 0.000000 6.379270 0.000000 0.000000 0.000000 5.088598
11.277904 0.000000 0.000000 0.000000 6.271840 0.000000 0.000000 0.000000 5.018756
10.438261 0.000000 0.000000 0.000000 6.347179 0.000000 0.000000 0.000000 5.061483
10.369907 0.000000 0.000000 0.000000 6.369271 0.000000 0.000000 0.000000 5.143924
10.428974 0.000000 0.000000 0.000000 6.419544 0.000000 0.000000 0.000000 5.104054
10.366969 0.000000 0.000000 0.000000 6.267049 0.000000 0.000000 0.000000 5.266223
10.161772 0.000000 0.000000 0.000000 6.450788 0.000000 0.000000 0.000000 5.052844
10.988276 0.000000 0.000000 0.000000 6.531269 0.000000 0.000000 0.000000 4.948126
10.164859 0.000000 0.000000 0.000000 7.245407 0.000000 0.000000 0.000000 5.051516
9.636475 0.000000 0.000000 0.000000 8.110542 0.000000 0.000000 0.000000 4.794449
9.602285 0.000000 0.000000 0.000000 8.660604 0.000000 0.000000 0.000000 4.981985
9.175894 0.000000 0.000000 0.000000 8.583592 0.000000 0.000000 0.000000 5.100975
10.195146 0.000000 0.000000 0.000000 6.428716 0.000000 0.000000 0.000000 5.040843
8.964665 0.000000 0.000000 0.000000 8.871911 0.000000 0.000000 0.000000 5.015789
10.668998 0.000000 0.000000 0.000000 6.346994 0.000000 0.000000 0.000000 4.959599
10.535941 0.000000 0.000000 0.000000 6.194403 0.000000 0.000000 0.000000 4.773722
10.306746 0.000000 0.000000 0.000000 6.158961 0.000000 0.000000 0.000000 4.844569
10.002887 0.000000 0.000000 0.000000 6.381498 0.000000 0.000000 0.000000 4.985368
10.199704 0.000000 0.000000 0.000000 6.167895 0.000000 0.000000 0.000000 4.899562
10.182574 0.000000 0.000000 0.000000 6.253894 0.000000 0.000000 0.000000 4.971949
10.333445 0.000000 0.000000 0.000000 6.176284 0.000000 0.000000 0.000000 4.799831
10.210630 0.000000 0.000000 0.000000 6.251192 0.000000 0.000000 0.000000 4.847659
10.287077 0.000000 0.000000 0.000000 6.325088 0.000000 0.000000 0.000000 4.848600
10.231727 0.000000 0.000000 0.000000 6.196178 0.000000 0.000000 0.000000 4.890640
10.285956 0.000000 0.000000 0.000000 6.274567 0.000000 0.000000 0.000000 4.872450
10.041392 0.000000 0.000000 0.000000 6.197331 0.000000 0.000000 0.000000 5.027497
10.162634 0.000000 0.000000 0.000000 6.168651 0.000000 0.000000 0.000000 5.026134
10.431939 0.000000 0.000000 0.000000 6.168956 0.000000 0.000000 0.000000 4.935855
9.984726 0.000000 0.000000 0.000000 6.395044 0.000000 0.000000 0.000000 4.925847
10.056401 0.000000 0.000000 0.000000 6.233388 0.000000 0.000000 0.000000 4.978130
10.313288 0.000000 0.000000 0.000000 6.209921 0.000000 0.000000 0.000000 4.823279
10.402662 0.000000 0.000000 0.000000 6.195573 0.000000 0.000000 0.000000 4.836007
10.242179 0.000000 0.000000 0.000000 6.274641 0.000000 0.000000 0.000000 4.972391
10.232834 0.000000 0.000000 0.000000 6.189850 0.000000 0.000000 0.000000 4.855433
9.868249 0.000000 0.000000 0.000000 6.346458 0.000000 0.000000 0.000000 5.070594
10.847497 0.000000 0.000000 0.000000 6.038840 0.000000 0.000000 0.000000 4.822734
9.926908 0.000000 0.000000 0.000000 6.425696 0.000000 0.000000 0.000000 4.915066
10.404366 0.000000 0.000000 0.000000 6.319503 0.000000 0.000000 0.000000 4.823543
9.953603 0.000000 0.000000 0.000000 6.163575 0.000000 0.000000 0.000000 4.956091
10.400264 0.000000 0.000000 0.000000 6.203519 0.000000 0.000000 0.000000 4.859049
10.180700 0.000000 0.000000 0.000000 6.307542 0.000000 0.000000 0.000000 4.995776
10.202561 0.000000 0.000000 0.000000 6.138730 0.000000 0.000000 0.000000 5.041549
10.228361 0.000000 0.000000 0.000000 6.231934 0.000000 0.000000 0.000000 4.898540
10.453863 0.000000 0.000000 0.000000 6.183885 0.000000 0.000000 0.000000 5.032498