10.8057 0.362725 -0.142914 5.02566 6.05089 2.33085 -0.397688 3.39221 5.01581 5.26001 2.97216 2.51 3.10531 4.63984 4.94616 2.02996 1.67261 2.32654 7.4691 1.22482 0.0749979 8.23958 4.70434 2.47677 0.963597 4.88014 2.16021 4.07534 1.41603 4.7368 9.38325 1.70505 2.90893 6.43611 4.40372 0.146077 1.08299 4.90616 3.68257 4.15605 1.31129 1.1109 9.39781 1.64883 1.37996 6.40121 4.61595 3.80391 4.94203 4.25665 0.70192 0.167142 1.7281 3.36414 5.5046 1.48171 4.19257 10.2284 4.98874 1.60235 1.62814 -0.103586 1.46906 3.38502 0.0965839 4.11774 8.53391 2.95529 3.40773 7.19314 3.25767 0.863232 8.61772 0.514385 3.58385 7.07405 5.71946 0.998844 1.6763 3.68032 1.52064 3.23609 2.64964 4.16446
9.87106 5.96644 -0.130948 5.50771 0.183125 2.40839 -0.0238594 2.93374 4.82819 4.97893 3.38818 2.57789 3.05482 4.89895 -0.0382873 2.02041 1.23579 2.46272 7.4038 1.78368 -0.0170642 8.25323 4.66786 2.54463 1.21036 4.39766 2.3172 4.08103 1.64671 4.89801 9.27178 1.44813 2.53545 6.50647 4.85656 0.114746 1.10707 4.65409 3.86787 3.90844 1.41032 1.27567 9.32019 1.50865 1.03418 6.38218 4.76917 3.70888 5.05926 4.93373 0.672213 0.195502 1.12829 3.22288 5.51857 1.85703 4.25783 10.1524 4.41482 1.72929 1.97143 5.61897 1.75815 3.33574 0.371565 4.15917 8.64399 2.71672 3.21974 7.25034 3.65605 0.808358 8.25734 0.271466 2.96294 7.40308 6.02317 0.403754 1.95436 3.15965 1.75274 3.26248 2.85892 4.45147
0.00319164 0.0902862 -0.0118378 4.84932 6.19091 2.39084 10.4525 3.31243 0.255767 5.45533 3.14988 2.39084 2.99337 4.70452 4.99507 2.12813 1.51255 2.42199 7.42984 1.32868 0.0653793 8.31565 4.8896 2.40807 1.04977 4.7495 2.38824 3.99852 1.40539 4.73801 9.32308 1.61971 2.65078 6.3965 4.56976 0.121807 1.03307 4.86459 3.89677 3.88521 1.52593 1.13754 9.23615 1.51715 1.09992 6.36275 4.52661 3.71277 4.93318 4.66518 0.715007 0.221799 1.27291 3.03592 5.4656 1.45514 4.26386 10.2359 5.05394 1.75249 2.01241 5.77143 1.59049 3.35073 0.123399 4.0206 8.98623 3.00767 3.29303 6.98068 3.23399 0.722674 8.45481 0.638733 3.45347 7.27811 5.77761 0.628171 1.71167 3.44417 1.73997 3.07521 2.61921 4.17995
10.164 6.11452 -0.0608213 5.45057 0.209942 2.26602 10.4697 2.99761 5.14548 5.03839 3.48636 2.38099 2.86179 4.55004 0.000349489 2.14576 1.41044 2.49419 7.42648 1.645 -0.0314808 8.37969 4.33775 2.50749 1.04981 4.73633 2.12749 4.01847 1.61559 4.74836 9.43927 1.41255 2.78314 6.31369 4.79395 0.00903155 1.17948 4.86942 3.71302 3.96894 1.73835 1.12255 9.41671 1.44506 1.23412 6.54504 4.69858 3.74527 4.8928 4.74929 0.54641 0.254126 1.7064 3.37313 5.43399 1.91233 4.25532 10.2073 4.56279 1.68357 1.70046 5.92895 1.37041 3.43591 0.271422 4.17057 8.66748 2.63352 3.45054 7.16545 3.65436 0.633603 8.83754 0.197767 3.47361 6.95691 6.04112 0.719657 1.91538 3.47568 1.62736 3.11947 2.82268 4.17306
0.106088 6.2964 0.0848176 5.47188 0.394368 2.07759 10.4758 3.19313 0.143933 4.94383 3.26253 2.61067 3.00158 4.79323 4.85214 1.89783 1.65539 2.35099 7.47831 1.28666 5.03503 8.35337 4.5639 2.40412 0.944921 4.66634 2.29557 3.93901 1.53864 4.75104 9.45208 1.45264 2.8931 6.45159 4.59443 0.0913215 0.993846 4.56824 3.89235 3.78105 1.52632 1.18542 9.30395 1.66666 1.3516 6.51619 4.62087 3.63337 4.94619 4.49124 0.532675 0.194399 1.48829 3.42875 5.39614 1.5292 4.28664 10.2666 4.74433 1.89306 1.76499 5.85946 1.72513 3.20607 0.369341 4.04222 8.8275 2.6952 3.56322 7.2021 3.53469 0.939032 8.83928 0.248469 3.56775 7.21443 5.88405 0.663927 1.65143 3.51906 1.51282 3.21455 2.82731 4.16322
0.176202 0.0874521 0.0374298 4.76073 6.11677 2.74011 10.3357 3.17511 4.91927 5.13585 2.98481 2.58518 3.0127 4.68337 5.03233 2.20095 1.43351 2.43785 7.47214 1.34544 4.86597 8.19594 4.90813 2.50334 1.12984 4.73192 2.20977 3.96269 1.55142 4.87396 9.33844 1.67501 2.68819 6.40911 4.53896 0.0996218 1.11211 4.78683 3.7869 3.98513 1.62464 1.3227 9.32783 1.49293 1.13485 6.40123 4.74095 3.61297 4.93343 4.69009 0.710009 0.270194 1.74287 3.27591 5.43926 1.36848 4.35964 10.2193 4.7456 1.73048 1.91348 5.94549 1.60697 3.10779 0.365732 4.35117 8.5606 2.89111 3.20866 7.06325 3.23611 0.707096 8.64964 0.450554 3.40921 7.35846 5.68148 0.534032 1.87867 3.42349 1.62023 3.31747 2.78679 4.13055
-0.182561 6.02687 0.0971653 5.66815 0.195924 2.4144 -0.0637511 3.04854 5.00845 4.89761 3.26315 2.3846 3.06495 4.80609 4.97966 2.14341 1.22615 2.49899 7.32184 1.69695 4.98985 8.18708 4.74978 2.49541 1.08093 4.42383 2.29151 4.17887 1.66733 4.89497 9.30148 1.53944 2.78078 6.32147 4.74045 0.00609654 1.28583 4.53136 3.84657 4.27273 1.59541 1.27845 9.16237 1.57353 1.26456 6.36145 4.64697 3.72821 4.93896 4.79452 0.683698 0.261826 1.41398 3.39505 5.47958 1.5427 4.08734 10.1425 4.52354 1.65308 1.95098 5.51428 1.52345 3.12554 0.651818 4.24003 8.48988 2.67729 3.52094 7.24742 3.58536 0.611195 8.46317 0.282134 3.32031 6.98756 6.09464 0.583338 1.63486 3.08861 1.78321 3.62938 3.07791 4.38982
0.226962 0.0399033 4.98043 5.56803 -0.0735654 2.30575 10.2012 3.27265 4.72103 5.11025 3.09536 2.50003 2.82338 4.75258 4.9823 2.17962 1.61984 2.63327 7.45256 1.2842 0.0510288 8.25841 4.94756 2.62048 1.02775 4.70687 2.20795 4.10357 1.43582 4.90258 9.28642 1.5982 2.57971 6.43228 4.53013 0.169599 1.08717 4.60976 3.75135 4.13142 1.53086 1.38191 9.40868 1.34687 1.00966 6.49653 4.87198 3.72422 5.07137 4.64269 0.827343 0.0931079 1.52517 3.19894 5.44686 1.27909 4.13135 10.231 4.63255 1.60344 1.74345 5.98412 1.66273 3.11571 0.244055 4.30587 8.596 3.03201 2.90903 6.95193 3.07086 0.333028 8.41645 0.525508 3.38433 7.26903 5.60546 1.00327 1.84858 3.53861 1.48858 3.19398 2.63094 4.25022
10.7249 0.0262655 0.020388 5.49817 6.54561 2.49866 10.4772 3.29763 5.18617 5.23836 3.2174 2.32985 2.86969 4.70165 4.84267 2.30147 1.62354 2.42862 7.41664 1.42359 0.18146 8.21007 4.63474 2.82376 1.03099 4.70811 2.13411 4.01581 1.53073 4.69199 9.36217 1.35218 2.57274 6.36474 4.72151 0.200581 1.08089 4.57686 3.71952 4.00375 1.4557 1.06258 9.4447 1.54236 1.05071 6.3345 4.77245 3.73523 4.75853 4.67564 0.60491 0.115803 1.05806 3.13166 5.55433 1.55798 4.40263 10.2182 4.82542 1.75926 1.90226 5.97053 1.52244 3.23355 0.319164 4.10058 8.75281 2.66551 3.35522 7.02165 3.42411 0.850914 8.29841 0.260423 3.04306 7.04036 5.97513 0.848715 1.64955 3.36577 1.44032 3.34716 2.80164 3.97917
10.1881 5.9766 -0.00644655 5.35831 0.329322 2.60952 -0.0326679 2.92904 0.0395974 4.96645 3.46503 2.36628 3.0962 4.73731 4.84345 2.11824 1.26205 2.33608 7.31519 1.88935 0.0555487 8.17991 4.4763 2.65617 1.08722 4.51108 2.20491 3.96716 1.6465 4.77824 9.40763 1.29654 2.78075 6.49447 4.99676 0.137853 1.16678 4.74195 3.75378 3.96083 1.45313 1.37068 9.31973 1.49518 1.2511 6.29483 4.83853 3.55135 5.03033 4.91081 0.642568 0.343466 1.17957 3.35322 5.48709 1.79588 4.31185 10.1079 4.52177 1.63188 1.95009 5.74899 1.53347 3.43614 0.333722 4.0096 8.74338 2.50235 3.59155 7.3309 3.79991 0.751121 8.56606 0.0509687 3.24719 7.2297 -0.107308 0.632098 1.57219 3.14711 1.63987 3.27107 2.89597 4.12091
10.7053 6.09325 4.81887 5.31527 6.11556 2.6085 10.6627 3.08334 4.93819 4.88352 3.31318 2.54407 2.89063 4.80631 -0.0529888 2.08587 1.4432 2.36518 7.64306 1.47346 0.0617955 8.42028 4.79149 2.50569 0.906461 4.59826 2.13417 3.95904 1.61416 4.86254 9.44833 1.62328 2.63941 6.43077 4.64177 0.20237 0.95708 4.44394 3.69772 3.88459 1.4385 1.398 9.4285 1.47326 1.09138 6.61936 4.66868 3.69061 4.96414 4.68159 0.695164 -0.0588167 1.40237 3.18572 5.39526 1.75888 4.35885 10.4697 4.95303 1.70583 1.83791 5.7014 1.44635 3.2559 0.376149 4.13684 8.69706 2.75546 3.32454 7.24465 3.44626 0.73198 8.62687 0.38878 3.30412 7.15957 5.94404 0.802623 1.37328 3.14014 1.55286 3.0748 2.84883 4.39281
0.278628 0.0266031 -0.0645416 5.61372 0.0482894 2.47858 -0.0149851 3.14478 5.02048 5.0007 3.30849 2.43366 3.19956 4.91173 4.81125 2.11616 1.35185 2.33807 7.29676 1.67225 0.158864 8.19991 4.53982 2.72689 1.1473 4.45261 2.26228 4.1859 1.70415 4.75712 9.10911 1.41552 2.77275 6.27711 4.83386 0.0067948 1.19327 4.4617 3.80329 4.19268 1.55163 1.10789 9.11882 1.29131 1.16347 6.25039 4.60041 3.66595 4.89023 4.79888 0.695901 0.212007 1.59237 3.2956 5.62683 1.53159 4.09995 10.0425 4.4525 1.66876 1.77017 5.74095 1.52949 3.35896 0.515276 3.90661 8.2505 2.54273 3.50364 7.20157 3.68596 0.759635 8.45746 0.108999 3.51293 6.9523 6.12707 0.577391 1.83048 3.12698 1.67178 3.4545 2.97253 4.34087
9.90847 5.77726 4.73536 5.29588 0.0505236 2.57241 0.47736 2.66822 -0.0319983 5.07401 3.08639 2.35517 3.06815 4.94163 5.00476 2.03114 1.51893 2.44786 7.39746 1.56076 -0.00565582 8.21928 4.65261 2.48789 1.18417 4.81576 2.34994 3.99839 1.62659 -0.047907 9.31482 1.37834 2.48646 6.4085 4.69309 0.0552878 1.29324 5.20884 3.8541 3.97927 1.38948 1.49072 9.3333 1.33305 0.839568 6.28566 4.76654 3.5119 5.01864 4.75642 0.690184 0.0125681 1.35355 3.05328 5.44558 1.67893 4.615 10.501 4.67389 1.79491 1.94817 5.91281 1.53598 3.26588 0.538303 4.20521 8.44492 2.45573 3.16902 7.2337 3.53203 0.655803 8.70351 0.0990345 3.14643 7.07166 5.95781 0.652966 1.90479 3.43291 2.02554 3.04797 2.91607 4.50237
0.06569 -0.14822 5.03909 5.46779 -0.0354168 2.48542 10.5148 3.05044 -0.129165 5.07946 3.30323 2.61439 3.00295 4.71637 4.94677 2.13961 1.45411 2.31804 7.47528 1.45766 -0.137374 8.22176 4.78815 2.59153 1.03087 4.62172 2.16392 4.03356 1.58388 4.86141 9.36748 1.66042 2.78657 6.36991 4.56298 0.146842 1.09117 4.66964 3.72494 3.9813 1.69333 1.24668 9.18724 1.53893 1.24415 6.49622 4.61371 3.80431 4.85026 4.74187 0.66375 0.273772 1.59724 3.27338 5.48604 1.48589 4.20384 10.1223 4.63962 1.66304 1.7151 5.90251 1.52061 3.08878 0.411143 4.27128 8.59515 2.92296 3.46659 6.86608 3.22366 0.74642 8.65469 0.398874 3.50313 7.13213 5.70978 0.935352 1.79333 3.44378 1.41174 3.39174 2.88909 4.21456
0.353654 0.344239 4.9664 4.94333 5.92922 2.64324 9.8746 3.48649 5.0171 6.03351 2.90234 2.36303 3.00423 4.29433 4.911 1.95159 1.88122 2.42346 7.50916 1.19005 5.02418 8.46023 4.92266 2.55828 0.927633 4.84015 2.21301 3.95189 1.31809 4.89446 9.57503 1.83637 2.65343 6.33466 4.47937 0.189273 0.889925 4.59208 3.7658 3.75025 1.41957 1.27641 9.56098 1.36477 1.20788 6.37822 4.74561 3.83821 4.81936 4.25482 0.683068 -0.0207227 2.18004 3.3499 5.39434 1.37806 4.37016 10.4748 4.77223 1.57318 1.32569 0.221271 1.9271 3.24091 6.1237 4.39313 8.47976 2.92849 3.01265 7.28921 3.2697 0.608361 8.91969 0.569448 3.46553 6.82788 5.76236 0.94049 1.91702 3.8143 1.48652 3.09261 2.48037 4.22684
0.791615 -0.677494 4.88673 5.75632 -0.636327 2.23227 9.75183 2.86378 5.11964 5.14207 3.44371 3.04358 3.73519 5.64287 5.13112 2.23566 1.60889 2.15649 6.60449 1.56044 -0.0954884 8.22058 5.65609 2.63944 2.21439 4.78925 2.56624 3.56284 0.588525 4.856 8.24688 0.912059 2.54414 6.64509 4.72199 -0.0818122 2.70393 4.48044 4.11445 2.32862 1.1913 0.299679 8.15424 1.17089 1.06549 8.06416 4.64661 4.45378 5.68118 5.61406 4.41386 9.67365 1.21274 3.15813 4.95703 0.737619 0.0860006 1.10773 5.85578 2.62848 3.49201 5.21218 1.73109 3.13923 -0.992487 4.847 7.15865 1.74586 3.2724 5.94449 3.40952 0.292098 8.13042 -0.589984 2.78175 6.87218 5.54485 1.19502 1.59698 3.53736 1.99242 3.67861 1.22404 3.35472
0.609608 6.8896 4.8885 5.13042 -0.517864 2.21331 0.575323 2.55309 5.01503 4.97621 3.95713 2.36704 3.57156 6.09173 0.214292 2.05642 1.35252 2.34754 6.92403 1.44114 4.87616 7.9633 5.80718 2.83313 2.09105 4.92649 2.44588 3.91744 0.827018 5.12781 8.4768 0.401479 2.21371 6.60558 4.95192 0.073638 3.32164 5.71613 3.01879 2.61707 1.627 0.404924 8.56175 0.840502 0.781042 7.33143 6.16572 4.6045 5.07939 5.06917 -0.168116 9.66432 1.0957 3.07039 5.18815 1.35253 0.577297 0.608875 5.07331 3.01782 1.9493 5.38207 0.912961 3.91953 -0.719627 0.32292 7.02479 0.703063 2.78238 7.16408 3.51577 4.81471 8.66638 -1.11285 2.24043 6.8698 4.83025 1.62251 2.28101 3.42167 2.39734 3.79498 0.855334 3.6124
9.67001 7.26927 0.059337 5.09263 -1.07595 2.66154 9.53779 2.90886 4.88418 5.39294 2.86617 2.33272 3.64394 5.87221 0.418172 2.33924 1.61079 2.33196 6.67091 1.58272 4.88545 8.1902 6.05211 2.27221 2.15661 4.89399 2.97046 3.74668 0.321815 4.96781 8.24574 0.739757 2.18083 6.59512 5.06968 5.07079 2.81496 5.11529 4.34033 2.3846 0.710877 0.225954 8.18237 1.26925 0.738226 6.69132 5.56085 3.60488 5.55385 5.57428 0.801293 9.48183 1.29319 3.01232 4.97582 0.761615 0.524869 9.61637 5.01083 3.22635 2.70132 5.97486 1.98908 4.07601 -1.22425 4.74695 6.97057 1.32172 2.99738 6.33681 3.45228 5.20491 8.44998 -0.821284 2.08892 7.9872 5.28294 0.418746 2.50263 3.55191 2.24893 3.81704 0.967902 3.37148
1.01708 6.93817 4.6223 5.12963 -0.49237 3.22011 0.966028 2.55027 0.125897 5.50133 3.51511 1.9583 3.66285 5.68847 -0.15615 2.16783 1.50421 3.02189 6.6993 1.70904 4.92347 8.03284 6.1473 1.71708 2.13096 4.68844 2.67242 3.75686 0.519314 0.299074 8.12058 0.711905 2.43158 6.77533 4.93954 4.78155 2.49265 4.79009 4.17005 3.58398 1.12256 1.76533 8.3026 1.21323 0.939153 7.37955 4.76187 3.30171 5.35224 5.50785 4.6723 9.37979 0.714616 3.28486 5.19669 0.6282 0.00383823 1.20025 5.87557 2.31825 3.43605 4.74653 1.66486 3.32668 -0.934401 -0.196599 7.02755 1.68118 2.96306 6.90318 3.52125 -0.0563943 7.40619 -0.659665 2.48948 7.73891 5.97405 -0.109465 1.51864 3.25889 2.65093 2.87144 1.38204 4.91397
10.0385 6.09137 -0.121516 5.41844 -0.0719629 2.45748 0.358784 2.77011 5.00683 4.71345 3.22051 2.11255 2.95289 4.9677 4.88546 2.2149 1.31653 2.30184 7.42943 1.61048 0.0134904 8.21508 4.4825 2.68026 1.11116 4.63683 2.26485 4.07062 1.62898 4.68254 9.29626 1.46542 2.70544 6.39803 4.82167 0.292093 1.19577 4.84389 3.81549 3.86772 1.42161 1.12775 9.28756 1.56839 1.13719 6.52798 4.82148 3.84062 4.90283 4.91481 0.737684 0.230659 1.32631 3.16372 5.55959 1.73043 4.2427 10.1426 4.65499 1.76266 1.88468 5.74953 1.49527 3.36823 0.44921 3.95667 8.74585 2.76068 3.54565 7.00904 3.48178 0.997439 8.41724 0.327059 3.36301 7.19135 6.0277 0.886263 1.79852 3.27231 1.8438 3.40751 3.00065 4.23552
0.828261 -0.723724 4.42675 5.2883 -0.607343 3.24472 9.76487 3.58762 0.375074 5.29118 3.57638 1.74872 3.45529 6.05624 0.446205 2.27467 1.80666 3.0525 6.93601 1.67821 4.47857 8.03066 5.67224 1.76543 2.11331 4.87075 3.07094 3.79243 0.519985 0.702117 8.55506 0.375861 1.8689 6.43794 4.62896 4.39915 2.58619 6.0081 3.92901 3.60516 1.77061 1.71904 8.17167 1.33588 0.628172 6.6322 5.558 3.07361 5.08342 4.99547 5.05302 9.85972 0.853133 2.54861 5.1412 0.728252 0.0260612 9.80644 4.97083 2.73624 2.73469 4.66811 1.61465 3.6734 -0.717154 1.53996 7.41744 0.344005 2.92656 6.36646 3.1647 3.73354 8.83422 -0.999247 1.28611 7.5194 4.44983 0.204963 2.12335 3.47831 3.93961 2.59941 0.775404 5.00052
8.98905 -0.688564 4.89916 5.09924 7.2398 2.15134 0.72918 3.85958 4.81576 5.04297 2.87939 2.41498 3.5189 5.71563 -0.121727 2.28065 1.50343 2.63756 6.66679 1.67968 -0.00830252 8.22721 6.15545 2.24557 2.4022 4.73212 2.33784 3.67244 0.170864 0.0727276 8.10364 0.646728 2.63008 6.94737 5.09485 5.03069 2.57692 4.67116 3.84454 2.89835 -0.0524907 1.49888 8.17 0.875658 1.11393 8.05788 5.56559 4.03459 5.51651 5.15914 4.38684 9.40588 1.15173 3.31527 5.23492 0.412384 0.363764 1.04047 5.43932 1.77827 3.59899 5.42088 1.78331 3.75682 -1.15333 4.52123 6.94283 1.69121 3.28219 7.04792 3.5885 0.232529 7.72255 -0.860524 2.93615 6.89843 6.23925 0.842927 2.32534 3.23291 1.73305 3.23536 1.48056 4.42626
9.30648 -0.900728 4.96971 4.74632 -0.89937 2.67022 1.34634 3.73192 0.00782472 5.45008 2.97436 1.84595 4.04053 6.14275 -0.0955399 1.90695 1.53615 2.66258 6.72894 1.45634 4.90455 8.16965 5.57248 2.54392 2.4322 4.79035 2.50222 3.51826 0.716579 -0.0886897 7.85214 0.592882 2.27539 6.95839 4.81056 -0.234685 2.68715 4.93921 4.06178 2.65882 0.399154 1.23493 7.99999 1.1071 0.851106 8.23704 5.38527 4.5764 5.79239 5.72478 5.11832 9.12191 0.825238 3.29038 4.83698 1.43645 0.363308 1.20483 5.58348 1.86179 3.75723 5.39212 1.77117 3.91618 -0.64659 4.74584 6.55397 1.22441 2.83415 6.48937 3.57346 4.3161 7.83975 -1.06801 2.31818 7.17483 4.47649 1.31801 2.32898 3.32273 2.07096 2.58244 1.55866 4.43137
9.64906 -0.892762 0.16497 5.06064 7.20356 2.24057 0.929685 3.24281 4.96056 6.23777 3.17404 2.66558 3.67434 5.65498 4.89384 2.05653 1.44056 2.24942 6.68581 1.61836 -0.172771 8.33395 6.17157 2.79666 2.23138 4.87347 2.31563 3.36164 0.612308 4.98595 7.96207 0.676483 2.54359 6.97998 4.86226 0.128308 2.55668 4.54615 3.80874 3.19055 0.55742 1.05696 6.83749 0.684182 1.43729 8.17663 5.19109 4.56778 5.79762 5.14437 4.65401 9.3698 0.625702 1.95294 4.79932 1.33489 4.66062 0.93679 5.59223 1.81665 3.45722 5.594 1.61599 3.70183 -0.825808 4.31809 7.78362 1.94628 3.53303 7.07107 3.30683 0.536828 7.65043 -0.562501 3.4035 6.98691 5.73146 1.49251 1.97564 3.39938 1.89992 2.18372 1.25792 4.35219
0.620019 -0.649043 4.74963 6.13914 7.2631 1.35125 0.794434 3.90291 4.98112 5.10502 3.31156 2.45159 3.66661 6.34302 -0.110554 2.18127 1.59317 2.05706 6.9491 1.42616 0.134904 8.25445 5.73221 2.80589 1.97427 5.02871 2.52253 3.58222 0.503902 4.64527 8.31443 0.350519 2.8078 6.60946 4.76329 0.199466 2.09793 5.31432 4.02611 2.47694 1.21618 0.109718 7.85318 0.14775 1.23881 7.70565 5.0557 4.5978 5.48844 5.69511 5.03654 9.8679 0.370372 2.8254 4.91645 0.341415 -0.12396 0.538833 5.77176 2.18181 3.15341 5.65635 1.66455 2.97529 -0.992926 4.60135 7.5844 1.5775 3.59481 6.21794 3.22245 0.280425 7.82407 -1.0538 3.32886 6.82255 4.99053 1.7114 1.8826 3.5145 2.10617 3.72323 1.11668 3.14213
0.193639 0.131311 4.98839 5.01675 6.12571 2.3325 10.1803 3.45122 -0.0724603 5.37403 2.88551 2.46699 3.03961 4.55406 5.02762 2.1252 1.69452 2.24109 7.60512 1.26408 5.24775 8.20036 4.83778 2.6421 1.10186 4.80803 2.19087 4.00991 1.44074 4.72265 9.31549 1.73163 2.6854 6.3352 4.48652 0.190429 1.13866 4.50535 3.68724 3.92282 1.63263 1.2447 9.23639 1.68947 1.17569 6.19643 4.6469 3.76624 4.88802 4.48711 0.898598 0.233065 1.70622 3.21372 5.5367 1.36553 4.31831 10.153 5.03977 1.63027 1.90683 6.07323 1.72113 3.22299 0.145738 4.35136 8.60373 3.00408 3.1534 6.97465 3.16945 0.685029 8.57469 0.478485 3.35774 7.22553 5.61134 0.83415 1.76718 3.5764 1.4136 3.28633 2.64023 3.94458
0.182184 -0.00358363 -0.0364403 5.13024 6.38519 2.51268 0.137341 2.93513 0.0400416 5.45959 3.02833 2.48726 3.16816 4.77241 4.89431 2.01663 1.57613 2.48719 7.35914 1.3581 0.16225 8.25661 4.82813 2.36144 1.11019 4.71346 2.2294 3.92262 1.60277 4.78295 9.21942 1.4752 2.65433 6.37675 4.58788 0.151796 1.10711 4.53071 3.75583 3.8481 1.73687 1.3462 9.24798 1.45016 1.07106 6.46544 4.726 3.61137 4.92025 4.45774 0.79818 0.237557 1.37109 3.22226 5.40966 1.56704 4.26793 10.1863 4.84185 1.57989 1.91818 5.93627 1.66094 3.24025 0.330138 4.265 8.70277 2.91044 3.01988 7.08838 3.31582 0.769375 8.38558 0.375097 3.46964 7.1412 5.79294 0.856535 1.72635 3.43906 1.59171 3.16692 2.87428 4.22171
0.0558388 0.221665 4.97578 4.72336 6.03251 2.51632 10.303 3.24348 -0.0112585 5.2869 3.20344 2.43372 3.04788 4.62394 4.86711 2.05042 1.61865 2.56571 7.50595 1.47018 0.132826 8.38751 4.70161 2.24821 1.11344 4.7755 2.21898 3.98367 1.51628 4.85632 9.33468 1.50102 2.72267 6.34598 4.63506 0.175115 1.10442 4.62905 3.70861 3.94148 1.53299 1.3951 9.35295 1.51059 1.20726 6.23714 4.68285 3.67006 4.92671 4.47637 0.775516 0.181667 1.59579 3.19505 5.43726 1.53576 4.34784 10.2996 4.75732 1.60394 1.66093 6.1089 1.65634 3.31382 0.191675 4.23749 8.4718 2.62722 3.38268 7.21003 3.42015 0.828285 8.86016 0.143211 3.34802 7.12407 5.88608 0.841907 2.00392 3.7121 1.48592 3.20498 2.66007 3.98748
0.265865 -0.0283241 -0.0215664 4.87084 6.08974 2.63907 9.9696 3.425 0.360297 5.64905 2.7045 2.41481 3.00174 4.47879 4.91247 2.14393 1.54005 2.30682 7.49203 1.43056 -0.0177633 8.20059 4.91394 2.43551 1.05013 4.76119 2.24615 4.04142 1.42882 4.7895 9.39051 1.67895 2.6545 6.29369 4.77818 0.204994 1.09148 4.58946 3.78419 4.07387 1.54908 1.30005 9.233 1.42403 1.11605 6.42036 4.71928 3.71634 4.84245 4.52889 0.64597 0.267638 1.38069 3.04521 5.49476 1.41609 4.22535 10.1809 5.09829 1.76996 2.05479 5.84458 1.7538 3.26667 0.150022 4.24817 8.8505 3.06289 3.29529 7.19934 3.47222 0.877626 8.58804 0.550279 3.39377 6.85047 6.02752 0.969615 1.59445 3.52586 1.49301 3.30683 2.61771 4.10126
10.3354 6.18532 0.245099 5.30878 0.135702 2.56472 0.285706 2.95568 4.92818 4.94074 3.23868 2.55004 3.08896 5.06935 4.86867 2.09523 1.38375 2.39232 7.50449 1.60056 4.80433 8.21598 4.50707 2.37318 0.903205 4.52269 2.42481 4.00457 1.74154 4.81544 9.37386 1.3062 2.7291 6.39117 4.73842 0.174658 1.15984 4.70742 3.9561 3.8722 1.65302 1.3553 9.29183 1.43573 1.18845 6.34128 4.64427 3.62218 4.94498 4.7 0.761491 0.112376 1.26468 3.19673 5.49768 1.80128 4.21483 10.2281 4.7333 1.96722 1.73432 5.55619 1.50955 3.52439 0.540481 3.97808 8.73998 2.62359 3.3577 7.23526 3.51917 0.886614 8.617 0.123773 3.3556 7.07995 5.99031 0.700943 1.49401 3.19785 1.82928 3.24431 2.96551 4.19687
10.1108 6.14553 -0.0600131 5.79241 0.319998 2.46497 0.486059 2.66892 5.0296 5.02269 3.36577 2.55553 3.07336 4.99689 4.84965 2.07559 1.35013 2.29215 7.29839 1.7665 0.098834 8.23664 4.39675 2.47183 1.19188 4.52596 2.2228 3.98991 1.64919 4.83771 9.22756 1.32038 2.61273 6.36596 4.92256 0.192921 1.18369 4.65863 3.74638 4.12977 1.48935 1.29911 9.17673 1.42099 1.03884 6.34874 4.51929 3.82023 4.86636 5.00401 0.667086 0.226774 1.25491 3.21627 5.4459 1.56095 4.34683 10.212 4.53883 1.67435 1.96761 5.75279 1.63236 3.0329 0.501363 4.26536 8.48468 2.50845 3.39208 6.98195 3.70823 1.03853 8.47704 0.0537237 3.20465 7.18173 6.24655 0.595944 1.91325 3.22893 1.70713 3.28243 2.99597 4.47876
0.241687 0.112124 0.0114619 4.77165 6.13091 2.74289 10.2832 3.19672 4.91096 5.18949 3.01049 2.60809 2.98573 4.64392 5.02748 2.23526 1.47666 2.44298 7.46031 1.35242 -0.221789 8.21356 4.86711 2.49693 1.11408 4.76586 2.24779 3.938 1.51852 4.84515 9.36283 1.663 2.70186 6.3939 4.54114 0.0904561 1.12835 4.74887 3.84337 3.94116 1.61337 1.29948 9.33708 1.49209 1.13363 6.38619 4.69865 3.57788 4.90159 4.69623 0.67861 0.277847 1.76442 3.2665 5.42758 1.38231 4.36848 10.2413 4.81843 1.74404 1.91714 5.9765 1.68083 3.11128 0.321326 4.32421 8.56011 2.88559 3.21104 7.06123 3.25427 0.72897 8.67122 0.429523 3.41361 7.31541 5.70845 0.556411 1.85063 3.44462 1.66577 3.31296 2.73771 4.07138
0.183564 0.251948 -0.102912 5.05014 6.09549 2.55328 0.052992 3.19049 4.89076 5.16369 3.00845 2.6234 3.18419 4.36042 5.04442 1.9993 1.64493 2.39831 7.36883 1.61406 -0.0636791 8.37195 4.63539 2.47183 1.20826 4.81524 2.26441 3.98095 1.3089 4.95469 9.19534 1.63381 2.54803 6.31655 4.72586 0.0837358 1.24349 4.80045 3.817 3.97465 1.3594 1.34146 9.27995 1.86285 1.07862 6.28787 4.71172 3.7574 4.91245 4.5804 0.772932 0.186891 1.75385 3.2289 5.35604 1.5029 4.18768 10.342 4.79396 1.57403 1.84081 6.12813 1.81611 3.25015 0.0681491 4.41362 8.33332 2.74997 3.29168 7.10355 3.455 0.604626 8.64614 0.302542 3.10993 7.0434 5.98649 0.615711 1.94971 3.56778 1.70141 3.06438 2.51761 4.39601
10.5045 6.04866 5.1562 5.49565 0.444304 2.39774 -0.0566746 2.78085 5.28098 4.53781 3.29657 2.25632 2.92523 4.78472 -0.0747601 2.07669 1.2925 2.54429 7.50749 1.82433 -0.098812 8.27838 4.42604 2.37863 0.914786 4.54057 2.30983 4.04778 1.6943 4.82709 9.47138 1.43225 2.6766 6.42157 4.78489 -0.0289476 1.04061 4.64071 3.83194 4.06745 1.44994 1.0913 9.33847 1.60037 1.15922 6.34995 4.64525 3.69396 4.96522 4.8655 0.581951 0.0044641 1.50007 3.15629 5.47449 2.0373 4.28766 10.4405 4.43025 1.70975 1.63235 5.69096 1.52139 3.4295 0.461162 4.0462 8.72586 2.61525 3.51796 7.24677 3.66557 0.7372 8.93133 6.12401 3.2225 7.15802 -0.036304 0.608816 1.75035 3.2093 1.83025 3.17597 3.01478 4.48049
0.218437 0.348502 0.231917 4.6928 6.1118 2.49322 9.83341 3.55894 4.9817 5.40501 2.9514 2.64018 3.10279 4.51931 4.87292 2.17855 1.68568 2.56027 7.45199 1.23967 4.95583 8.36425 4.77156 2.27651 1.21484 4.82235 2.19579 4.07876 1.33831 4.86628 9.20772 1.65658 2.75959 6.37492 4.59066 0.166391 1.16121 4.8486 3.75179 4.2104 1.53636 1.13152 9.17886 1.46013 1.14863 6.21936 4.57691 3.82088 4.89231 4.53841 0.907015 0.190874 1.82077 3.27258 5.43808 1.35192 4.13884 10.1824 4.90411 1.67818 1.94587 6.14226 1.68266 3.35682 0.0367922 4.44777 8.35943 2.88488 3.33221 7.08477 3.354 0.825929 8.55671 0.253616 3.41844 7.0961 5.8558 0.765052 2.0583 3.67995 1.59153 3.15478 2.56861 4.24761
0.185907 0.0330258 4.97553 5.54281 0.158428 2.43363 10.2191 3.26676 4.66487 4.87192 3.33159 2.57493 2.9866 4.7692 4.94343 2.41774 1.07503 2.44675 7.32947 1.51694 -0.0838489 8.11229 4.70414 2.55848 1.27294 4.76288 2.1283 4.12325 1.56452 4.95423 9.04886 1.50304 2.61432 6.35351 4.65003 0.210995 1.23779 4.89603 3.59057 4.12557 1.41197 1.31109 9.16985 1.36355 1.049 6.26139 4.63384 3.82926 4.93994 4.78982 0.999973 0.379243 1.46009 3.13038 5.53492 1.50201 4.25214 9.94797 4.72386 1.7494 2.04512 5.94296 1.40181 3.36689 0.314206 4.26236 8.37134 2.85404 3.20048 6.88539 3.36632 0.992915 8.24467 0.389681 3.49848 7.2407 5.82392 0.808827 1.84635 3.43981 1.66897 3.55436 2.89858 4.48448
10.4421 6.19257 0.170655 5.41749 0.268301 2.34847 0.00960415 2.97659 0.110925 5.02083 3.10699 2.26501 3.00394 4.97832 4.74829 2.18281 1.48368 2.29088 7.45148 1.30419 0.132403 8.29766 4.62121 2.74689 1.04455 4.60614 2.22142 3.98696 1.68468 4.60059 9.37988 1.60833 2.86465 6.33718 4.48383 0.127032 1.08776 4.60775 3.77506 3.95232 1.56601 1.01464 9.29432 1.53851 1.32096 6.47861 4.61534 3.70356 4.81093 4.69146 0.430396 0.13451 1.35496 3.37927 5.43718 1.69922 4.09262 10.2804 4.93611 1.77111 1.9623 5.74155 1.51446 3.12414 0.527135 3.84431 8.83235 2.95597 3.57197 6.90323 3.21827 0.712878 8.5958 0.442008 3.6981 6.97349 5.69911 0.997942 1.70785 3.26664 1.577 3.25878 3.01626 4.03966
0.39127 0.299405 5.02923 5.25982 6.13107 2.4266 10.2687 3.32595 -0.102817 5.28203 2.89585 2.59208 3.00853 4.26308 5.09427 2.21964 1.78389 2.48719 7.40031 1.30869 4.98759 8.22859 5.01611 2.58329 1.06616 4.92774 2.27897 4.00212 1.16637 4.87092 9.24991 1.71166 2.58827 6.33687 4.49743 0.0650661 0.974427 4.78741 3.7915 4.13274 1.26619 1.30084 9.27803 1.5289 1.04746 6.45245 4.6533 3.58116 4.92795 4.67849 0.678527 0.250525 1.81942 3.2419 5.36155 1.44716 4.12137 10.0517 4.94212 1.62131 1.76915 -0.194411 1.75109 3.41177 -0.145686 4.54462 8.43033 3.05911 3.02378 7.08892 3.23814 0.552048 8.45982 0.526031 3.28501 7.2011 5.83964 0.636341 2.00621 3.68301 1.72606 3.04536 2.33175 4.26018
10.3722 5.98047 4.96503 5.082 -0.0742788 2.37841 0.126111 2.96633 0.0244168 5.21849 3.28368 2.28685 2.89489 4.81858 -0.024171 2.22315 1.36087 2.51448 7.34793 1.62508 -0.098782 8.22139 4.56969 2.57518 1.123 4.66181 2.26042 3.94893 1.57903 4.70743 9.27837 1.24569 2.67961 6.46143 4.97278 0.138256 1.02082 4.7202 3.89031 4.03698 1.57203 1.21501 9.26766 1.40701 1.15714 6.34032 4.92854 3.64002 4.95025 4.888 0.754695 0.359662 1.53416 3.14499 5.48245 1.68965 4.15025 10.256 4.63978 1.68898 1.91024 5.95897 1.65037 3.07869 0.357664 4.16947 8.57723 2.57411 3.42727 7.19599 3.69564 0.717402 8.84757 -0.0531999 3.37189 7.22418 6.19111 0.691002 1.99335 3.43256 1.88878 3.16893 2.7962 4.16785
10.1918 6.17354 0.209454 4.67501 6.1089 2.51945 0.25519 3.08619 5.04355 5.26787 2.84139 2.7494 3.03424 4.88131 0.0114533 2.13994 1.62264 2.76531 7.40471 1.4731 -0.0252521 8.07935 4.78405 2.10245 1.32969 4.63302 2.39023 4.11955 1.52489 4.96011 9.12444 1.45152 2.54625 6.38071 4.7689 5.03923 1.28646 4.74742 3.93871 4.15054 1.53331 1.37153 9.16745 1.541 0.976747 6.43444 4.66873 3.44839 4.95132 4.96846 0.470319 0.291331 1.48007 3.26659 5.45856 1.21283 4.35436 10.1324 4.6831 1.64745 2.18106 5.82299 1.71283 3.09817 0.556068 4.22836 8.3207 2.64509 3.07393 6.95801 3.35359 0.462071 8.56308 0.152096 3.1165 7.52095 5.86668 0.371864 2.1033 3.35779 1.71243 3.50557 2.95244 4.35426
-0.0980112 -0.192324 4.92546 5.04693 6.48062 2.51718 10.2477 3.14644 4.94733 5.35612 3.11801 2.54237 3.13013 4.48138 4.86498 2.13548 1.54925 2.30167 7.49418 1.51363 0.325599 8.21471 4.81052 2.36166 1.00424 4.58122 2.20464 4.09683 1.5066 4.66787 9.29042 1.59144 2.76112 6.38163 4.7453 0.25389 1.11195 4.52977 3.72739 3.98965 1.75392 1.16097 9.36712 1.5387 1.27834 6.35756 4.81052 3.76372 4.90113 4.82869 0.735132 0.138984 1.46595 3.2627 5.6527 1.63807 4.26986 10.1193 4.73218 1.73354 1.83856 5.77651 1.66686 3.30654 0.11152 4.16747 8.55225 2.95272 3.2436 6.99493 3.41951 0.775587 8.47501 0.397473 3.48799 7.22354 5.7743 1.02724 1.62973 3.36838 1.41665 3.47744 2.79956 4.01543
10.2643 5.8889 5.14679 5.22826 0.198003 2.49909 0.283308 2.86484 -0.113178 5.12305 3.29962 2.55384 3.05149 4.84403 5.02424 2.18445 1.37614 2.33311 7.56196 1.60651 0.00140475 8.08303 4.80488 2.4976 1.0341 4.55086 2.10052 4.00989 1.66133 4.76964 9.33794 1.40947 2.82022 6.34973 4.72551 0.146619 1.09779 4.74504 3.65218 3.94541 1.52219 1.2338 9.35309 1.4166 1.26918 6.34086 4.66982 3.72439 4.88957 4.82269 0.795829 0.28959 1.40508 3.2469 5.51757 1.64548 4.31397 10.1088 4.48438 1.60612 1.7556 5.81907 1.44527 3.17644 0.490796 4.05678 8.55378 2.59493 3.53715 7.09178 3.49221 0.855411 8.56878 0.132581 3.45051 7.10435 5.95867 0.725847 1.81024 3.35832 1.44263 3.44213 2.95666 4.18354
0.11875 -0.0394054 0.0779877 5.1655 -0.0792289 2.59055 10.4044 3.38193 4.70914 5.13821 2.97654 2.46674 2.98802 4.58286 4.5999 1.91408 1.63084 2.4055 7.53086 1.40528 0.366267 8.343 4.75748 2.40193 1.04331 4.68527 2.147 4.06673 1.55001 4.67054 9.40816 1.47162 2.79869 6.24958 4.70877 0.385613 1.16554 4.6171 3.7376 3.82729 1.61656 1.4121 9.34225 1.55032 1.2266 6.18533 4.74459 3.7244 4.90481 4.83915 1.05495 0.142711 1.34872 3.11411 5.54816 1.55678 4.39606 10.3883 4.74072 1.5971 1.84925 5.93876 1.5589 3.30015 0.30482 4.0225 8.73766 2.80034 3.31532 7.09952 3.41598 0.939117 8.79642 0.100559 3.44562 7.2066 5.90264 0.965783 1.6433 3.38645 1.46728 3.30847 2.77483 3.87973
10.0776 6.06453 4.94186 5.26919 6.36468 2.575 10.4767 2.91328 4.94009 5.06829 3.34707 2.29603 2.93139 4.85061 4.84015 2.08337 1.5005 2.723 7.58721 1.59976 4.99737 8.35863 4.59218 2.66542 1.07351 4.53465 2.23111 3.91946 1.68214 4.90292 9.29075 1.44111 2.62698 6.64295 4.75284 0.152271 0.903859 4.80598 3.71442 4.0243 1.62209 1.33357 9.24889 1.55582 1.07751 6.57372 4.36536 3.76039 5.24921 5.12453 0.621083 -0.0529015 1.34706 3.03688 5.29151 1.42284 4.27823 10.462 4.6556 1.54266 1.99966 5.71923 1.66451 2.95584 0.623838 4.2139 8.45617 2.63233 3.39838 7.17119 3.45753 0.869126 8.62862 0.145794 3.08579 7.54932 5.97281 0.472535 1.73699 3.16819 1.72325 3.35144 3.08718 4.35637