-32410.2166361138
-32410.0560780106
-32410.0557537872
-32409.7936736004
-32409.6401021525
-32410.6579922887
-32410.0768567488
-32409.7552646157
-32409.4339762975
-32410.089405272
-32409.9118436002
-32409.8331925368
-32409.1015309095
-32410.8898384666
-32409.6324349409
-32409.6373476816
-32408.6821528138
-32408.8573234226
-32409.0919066562
-32410.7433257842
-32409.3923731062
-32408.6909698419
-32409.2391706445
-32409.1550741779
-32407.9780711345
-32410.7167734737
-32410.3234943471
-32410.5084256742
-32410.1785355699
-32410.032260987
-32410.3360347069
-32410.7178573025
-32410.0339821061
-32410.1388262899
-32409.7012111341
-32409.2464725435
-32409.8951985412
-32409.9619593244
-32409.7314945316
-32409.0728207374
-32409.6271145738
-32410.7457077315
-32409.7221259291
-32409.3311760958
-32410.0611723872
-32409.5743442444
-32409.7019760457
-32409.5530420956
-32410.4956469428
-32409.5479104394
-32408.9047295746
-32408.4194942494
-32410.4766910943
-32408.7859828299
-32410.2170082292
-32410.03002326
-32410.4320629511
-32409.9789694238
-32410.2862019809
-32410.2861115031
-32410.5508816699
-32410.087777896
-32409.872923858
-32410.0347315073
-32409.9708993478
-32410.0559344707
-32410.1658020094
-32409.6160690706
-32409.6831290427
-32410.1366925104
-32409.5174996927
-32409.557903815
-32409.460078532
-32409.722805397
-32409.013040623
-32410.4355465506
-32409.5851452535
-32409.6815503751
-32410.6724736355
-32409.8079560321
-32410.7736011544
-32410.150991541
-32410.1431587482
-32410.0375314212
-32409.8861325291
-32409.685462962
-32409.7962223533
-32410.3033075923
-32410.1286330468
-32410.1495947814
-32409.7336651826
-32409.2467993521
-32409.4146136391
-32409.1437655407
-32409.5796146786
-32408.92791407
-32410.5019100478
-32409.5933111135
-32409.7957630254
-32409.1646025112
-32409.7427358207
-32409.0804830509
-32409.1522333109
-32408.8999513941
-32408.7819099681
-32410.1042504349
-32408.7214887538
-32408.5754404335
-32410.087476394
-32408.569075694