-0.0480433517249281 -0.753068527544651 0.563212454726234 0.175403395199669 -0.147927829691018 0.405524979590648 0.165028999307039 0.228054675628133 0.284865227490429 0.076116441299365 -0.25011575778851 -0.0602601991904592 -0.645283824978987 -0.434557604368835 0.0118011002992763 0.0576366468809575 0.00513243347729044 0.00420195172424394 0.0125881145700902 0.613912525974298 -0.000578497912228408 0.396089035866745 0.347789602399337 -0.0136268397102692 -0.386829469728526 2.53570727297466 -0.398092952634704 -0.831341866170987 -0.763220780238985 0.107747164478915 -0.101022447636989 0.474272385928956 -1.19377646460612 -1.53622460294921 1.33997342854375 2.86207728312074 -0.203226059455657 -0.37414725283138 0.67722128060711 -1.01137221622775 0.842433856584963 0.595258410851673 -0.519118572525635 -0.344699652217488 -1.17377020702997 0.480020084074675 0.116993103777424 -0.794998570443333 0.446503714811443 0.921382880772781 -0.51117103965235 -0.536129239357166 0.671002299495563 0.362620231987408 1.42305009961286 -0.0457962087236497 -0.628005506446732 -0.855801786340737 -0.799028772565191 0.383042236729804 0.523500758488311 -0.514255590520352 0.804517560756414 0.416705673017833 1.10260725052038 0.093457751826507 1.18836892323279 -0.0471308676847064 0.165158839949562 0.467652312931598 -0.707359222062927 -0.737414888260117 -0.0528230300308508 -0.845085691014618 0.415900146813828 -0.300188737299718 -0.979830710281775 -1.25264878302759 1.16302865779572 -1.65503521861176 -0.796124198825438 0.0357120902278673 -0.538002544152053 -0.176137958993107
0.162543772276106 0.0826141298495145 0.0392265293222007 0.0467950817854308 -0.133818651277042 0.358020273699551 0.420726619173095 0.0554270419664282 0.39340274867254 -0.274455350392516 -0.0396232503348978 -0.223188094080285 -0.153455441519906 -0.0534688908110809 -0.362374177542073 1.06272046224769 -0.418957444002409 -0.0486136221112937 0.131374304765239 -0.458801809094869 -0.357039912570961 -0.0281846753939513 0.0497955576235221 -0.190332755098093 -2.22339013411243 0.877965455464215 0.762869567728717 -1.38302395762087 -1.416036390925 -1.32386316157383 -2.05237432418929 -1.58011716787635 2.12541392792615 -1.5278240419331 -0.966299515559661 -1.32063925698652 0.334988086377181 -0.823498205811719 -0.272000719473385 1.34938546102061 -0.00231167765726472 0.814446641811719 0.32820063465055 0.37024097781783 -1.85083002244203 0.225294083590979 -0.783924577742182 -1.21159702851477 -0.170341152802395 0.0536763787289335 0.89570554388552 0.0691161023410349 0.418234450167215 -0.016617031141032 -0.231992832304401 -1.00528718952166 0.907496102667284 1.06899857870138 0.174421234299796 -0.101606859083431 1.05270962015413 1.18100091671246 -1.41812335428214 0.793028592219557 0.698058261185211 0.16967729430934 -0.206653081087698 0.0799833784548829 0.599250560666415 0.0811498873561186 -0.877068655145169 0.149378702454887 1.00430862816435 0.43532867780829 0.10664390468275 0.90946453822996 2.64049638479571 1.3715642996449 -0.421374279724608 -0.241408978544197 0.657381116209324 -0.367734924862057 1.68337955942949 -0.653651475891642
0.144700582671333 0.114734647928085 -0.155644991840145 0.331306525663759 -0.0897898179527957 0.0569522195732455 -0.162189217333456 -0.236997482020635 -0.800119691072562 -0.721151383621002 -1.03290467985144 0.118497969679768 -0.308319332623451 -0.485433538982216 0.207763797079176 -0.211999687347604 0.0360373346096313 0.0707585221913971 -0.273005763179563 0.701583498907239 -0.580949714935524 0.012019643955007 -0.416217163669729 0.652641289981799 1.96127992916687 0.335937594283785 -2.96189414110864 -1.37242356187719 1.11875171314467 -1.72880552948931 1.47762225022011 1.41086410536931 0.821747542574225 -0.801875496513721 -1.00192830208817 0.474456991040503 0.331298041027713 -0.623863461395177 0.926083112032091 0.173149567333627 -0.593131338305955 2.220057986138 -0.479466268740035 0.322683307228991 0.319399238858816 0.494615200734923 0.922349872171844 -1.48040752483485 0.419060030965511 0.333268533471855 -0.14830578166034 0.640165532561773 0.182448471329878 0.189665297062473 0.249897214132779 0.0689474380608474 -0.500384239025847 -0.714742912304428 -0.64696789667903 0.15679221747764 -0.207127192265542 0.890673897600049 0.719612064954108 0.0544785625005569 0.66141594631448 0.95200907446652 -0.283806704866142 0.555541315299902 -0.854137255014618 0.568561889198156 0.718978288352489 0.248925080530052 -1.27088946497561 -1.92036804259371 -0.195810487551438 -0.124078546206398 -0.622022809593557 1.09898045427599 -0.96320545161488 -0.232041426129028 0.621571067001653 1.03612601333691 -0.472550004811615 -0.449454568384175
0.874149426124973 -0.429381976380765 -0.0669355508772086 -0.412761859917534 0.353784897651489 0.668235793924195 0.364234112607434 0.254071140847053 -0.105668171537458 -0.231993860745134 -0.672749363190492 0.427754468921029 0.0666912962031566 0.406183181659673 -1.043099355726 0.128815544221907 0.786264023299233 0.0434343945806585 -0.316003327558944 0.332023605964739 -0.162135481305164 -0.617547806854742 0.79640933401862 0.13715182769221 1.1110229810373 -1.80785174132639 3.36776107724296 -1.32717294096232 1.04264349937117 1.37983553423885 1.7359092267413 1.73341371530303 0.344907397245524 1.54776216531069 0.253484158298778 2.13707027519228 -0.668985784328626 -0.132752415347259 -1.48979564606467 0.059001130623267 -0.956035162825446 -0.114345126000518 -0.626047869511751 0.280918843288298 0.552019420010256 -0.499749433983495 0.573731603652012 -3.59414556512095 -1.58352902000759 -0.152946363357145 0.256398502225493 0.0375985076420983 -1.09610159155455 -0.924704744339888 1.51424476760673 -0.628892279468632 -0.809414224195698 -0.0542353362672377 0.0760205392010267 -0.550130945714559 0.137797431362257 0.68303479895973 -0.0973120905830475 -0.00953338848334095 0.662782744048438 -0.400563267275011 -1.07801543282665 0.121311012194297 0.0294859100311904 0.92192615458991 -1.96450100554216 1.65269320195288 -1.0721088405877 -1.49966739154912 -0.464407582419454 0.631383162923596 1.27618927718217 -0.5477717026734 -0.827993520255009 0.761979452274434 -0.385400194220047 0.195142258185268 -1.05336730800278 -0.240917898094261
-0.362272361909521 0.288597438909943 -0.284459507621319 0.0113277604519819 -0.662850364026623 0.616745880193302 0.0314216926005982 -0.195102663217054 -0.571416069342 0.00471257254810422 0.227498032081478 -0.372216355355453 -0.4698485481166 -0.419527714388775 0.0280232101988937 0.365268466874498 -0.64355218789505 0.404023970341053 0.628578090824747 1.39853027277042 -0.322879225188599 -0.165025399764474 -0.256907580388254 0.643862776996371 0.198771882641681 0.488971632213405 2.27162991801734 -1.70374242882975 1.34055989687165 0.180960574699626 3.00737898940042 2.30870443510605 -0.894832911923696 -0.607635695071529 0.720285950744309 -0.4755291405045 0.464321964728445 0.334384391666997 -1.62042458840878 0.164004158116754 -0.0149573849083945 0.220458098154933 0.470990374440247 -1.42597549927745 0.377067510292309 0.418632713841011 -0.175362514680538 0.678508117074089 0.37416730742567 0.954358547320717 0.104135280625144 -1.39427921300118 -0.12072942895987 -1.26167540733982 1.89286393785473 -0.0220492550919484 -0.214446090740872 0.364920853906794 0.0942725339971078 -0.621912509324959 -0.333534899621663 1.25908399380322 -0.3822336252036 -0.379017691031976 -1.16365909196495 0.175448646591914 -1.18523269321796 1.1146006692367 0.806894801510398 0.352954174649529 -1.60517615477299 -0.35199309678468 -1.2951328983711 -2.11439007171072 0.369161886378887 -0.90204562389336 -0.166119403594044 0.506423243009146 -0.211854934314456 -1.45272781384073 0.258177961803508 0.259307703948544 -0.0907606660046066 -0.26750334814863
-0.174504023778791 0.0646909789777624 -0.430126567471349 0.293060614580331 -0.193838452446197 -0.545837462765091 0.0755916794154281 0.488393134301177 0.415051168988859 0.529756763466241 0.397485401271773 -0.165163210822676 -0.300101319837426 -0.347887047158775 -0.0918646971313216 -0.627784134578986 1.20441182733471 0.343904410420811 -0.279744363971383 0.272498999008451 0.727770428177628 0.293106380192943 -0.380888681835215 -0.170909623417478 0.156695801158935 -2.19612951271695 2.07908267291123 1.0676703474949 0.501782918422524 -0.989346615272657 1.72175556826562 -0.39288981385703 -1.07366435719614 -0.360154545330399 -0.323709948190559 0.162888814141977 0.655409338214267 -0.222214674926642 -0.71064149066182 -0.223558075633928 -0.323486519441347 1.01506817511143 -0.0864455857997491 0.275105839156044 0.785340483521134 -0.693460873999186 -1.05815058585127 -0.105190717927232 1.01987562131714 -0.00941048981576532 -0.417072569249277 -0.631062289414947 -0.592641800517118 -0.568523322670674 -0.422078247406244 0.165132100490508 -0.361280945043053 -0.692529363805406 0.174119386944705 -0.891194545721054 0.294423041441175 0.0684008218113373 -0.182456441745557 -0.2568808409292 -0.749901444307838 -0.71945214242015 -0.524908436741401 0.973579333287143 0.365214730846207 -0.675476273793646 0.369675849635129 -0.731660248139452 -0.452136741815449 -0.701966078859859 -0.157894191722889 0.539186022325381 0.993832930859534 1.90511909473756 -0.498841320816389 1.48252971228709 0.0791189740189221 0.253135516890342 0.0614763303570549 0.433719939391928
-0.0269921983642111 0.696448237217933 -0.651134110087807 -0.0996697909631073 -0.288275022740195 -0.275903394944369 0.035689978752111 -0.203127329145303 0.476335180928871 0.256383589834867 0.613517861843067 0.599035359443066 -0.315965532362011 0.589380100732882 0.357742080481315 -0.0930767145349859 0.371690050810417 -0.24148045517513 0.549427749363473 -0.372706150254473 0.418425225923159 0.0971927914580368 -0.592451281871357 0.0206053243030263 0.544742944715155 -0.122696836081813 -0.222634278745645 -2.00651486636057 1.49407190263187 0.576717681319844 -0.53296035634907 -1.39451601147992 0.815354754978826 1.88078618699831 1.35379258667106 2.91407936033659 -1.26544438551554 0.627504141589468 -0.895778563177552 -0.625981535084482 -0.820789807141758 -2.91956994829909 0.887907649138864 0.201446085657276 -0.678617388901954 -0.456343578633174 0.0252551619664266 -2.43251661516264 -0.568995634077236 -0.261620924266908 0.138631753906782 -1.34085068848887 -0.0332230065441859 -0.433950310116087 1.08163400154518 -0.254051343362945 0.528403078351627 -0.0901960520422716 0.236563480031372 1.30478687153037 0.131228780401541 1.01111356338344 0.31870247026231 0.470727607833004 -0.713904218886788 0.749323717726159 0.710705768207623 0.915111449183859 -0.420231682070411 -0.813707707145166 0.437506915280467 0.542179041968159 0.387134659515999 -0.342739701290858 0.051643151400088 0.486313112918987 -0.653972606510475 -0.401485778612378 0.866656206945424 -1.45851767805649 -0.479451613459592 -0.149832244818074 -1.06081013358642 0.240789085892472
0.0130766239181942 0.0245943887955702 0.0929700138089527 -0.64893427536024 0.286727219437255 0.375317104164997 0.0191181990033244 -0.138330934992423 0.681681113845116 0.298937124927839 0.355905542442627 0.518083961148388 0.243569475413733 -0.437606159811187 0.33474717413551 -0.276843646884378 -0.220006612673212 -0.368482087054473 0.290448118008708 -0.665656721676389 -0.4890544216924 0.881235382774313 -0.470862590679191 -0.0712835411855173 0.234703802076195 -0.433819441032831 -1.51743936163315 -2.87705138019104 -0.473246773408121 -1.1119174673647 0.591687150406849 1.63024285497512 -0.405222103794824 0.66221221655189 -0.299232030307984 -1.33052334375977 -0.257736760729115 0.183605724264518 0.131277631336351 -0.0151425042403076 -0.634208289616737 -1.99010043804391 -1.12723866318234 0.334557426820299 1.65070316913482 -0.281418665484464 -0.41845170827203 1.29923097758132 -2.0783833332129 -0.00659127665683888 -0.247725404415182 -0.465619856933302 0.284859828176581 -0.153231755660511 -0.196518568996006 0.313761069651146 1.15034386979674 0.0138692946130387 0.645909631164927 0.486933776901262 0.327025126892902 0.879975028656205 0.153965033903034 1.10065449867888 0.145923912923059 0.925349833789569 0.759351271981635 -2.42994859865271 0.0860280388622118 0.296106341810668 1.2554422851682 0.864455343777124 0.0685687147609752 0.0887328379896086 -0.765789053859096 0.885191022943039 0.269758975785954 -1.20868165614732 0.156418122161065 -0.265012207583483 0.72641005819825 1.38271491118065 0.192976104891702 0.181953020006827
0.234957312716843 -0.185565932301331 -0.261380012025238 -0.231349542626003 -0.103556782712916 -0.0115316488272695 -0.353182745602405 -0.432307118935175 -0.678720490085423 -0.342538898237769 -0.246468392729455 0.419907466129379 0.308799100225326 0.365751062688388 0.309790002871427 -0.606964637493344 -0.655975237727518 -0.411651658146422 0.0746324013218618 0.491097419208207 -0.722614083453299 0.684680047022108 -0.165342416620375 -0.564281518868032 0.895935400389312 0.571469034039741 0.788465657798083 1.00956087498702 0.160143905825999 -0.0890534543880747 0.0364155436891371 0.789067038516617 3.22299878812766 -3.07357586272126 -0.722555205221343 -1.03690659985315 0.718365080565527 0.373794754770195 -0.713737354377883 -1.06722503265758 0.709898956452702 2.71410368781711 -1.17697277147207 -0.0488589052260785 -0.79806358093741 0.880912966604564 -0.442517221420731 1.37264313397366 2.325959870832 0.335330814251403 0.0361208954191754 -0.797091704444867 0.683829012315674 -0.231542375263413 -0.0330201466096311 -0.190857002761664 -1.59246102777239 0.245425039605978 0.00447577406936539 -0.559609312618693 -1.15268665778617 -2.14189854732283 0.48463032676986 0.0281697630033249 -0.158440293752032 -0.882484166934177 0.44343587610535 -0.205796647067416 -0.800023017643674 0.122458237831792 1.11336654035728 -0.386626866904154 0.983280871830305 -0.0435791476138072 0.112002338011084 -0.083511958609293 -0.602115539437954 -0.445187310673395 -0.101299612414492 1.30488225940834 0.631156391742003 0.0264309268342579 -0.557271923943107 0.0940555330024764
-0.0828272741913978 0.300452018127328 -0.0133648444335755 0.400867428621752 -0.477504260931939 -0.436062213160995 0.303105395218082 0.0489733192576081 -0.41752893982448 -0.211186962058469 -0.355581583611779 0.238373792831372 -0.358802659987067 0.724212280352149 0.106030696895788 -0.0626019587391598 0.381695750700319 0.406794589675352 0.825038295809163 -0.522021089383923 0.0970344115851779 0.656808017610943 -0.00359594302241179 -0.490115001198152 -0.717277504490538 1.01075515178804 0.269499808721276 1.45347703291461 -1.05100112298668 0.283542909818166 -1.20178596103356 -0.239113755938658 -0.362646714336279 -2.10214777033706 -2.46035419180925 -2.35305568460004 -0.00473622668495978 -0.972903390615477 -0.830389015832001 -0.370477262076203 1.22034443116803 -2.50399735985868 0.080122475064001 0.0243424208160218 0.627652237054998 1.35388668899811 -0.258309602217313 1.46909030590038 -0.488595994235732 -0.0166622825332774 0.829331778758631 0.238635016777516 0.25068242863231 -0.136672060090336 -0.828347560977293 0.0857488172032429 0.281145100249525 0.456976069683877 0.689239639011201 1.05642614785246 -0.863819510294039 -2.09379348915393 -0.248066589628305 -0.219331441332095 1.493509345551 0.713749695666677 -0.628765781258492 0.73306381262961 -0.598920174080987 -0.179112466702694 -0.61415112422432 0.225971826033928 0.507726277417667 0.251937640546754 -0.0357030913714549 0.637004105748991 2.70491405564872 0.764649027306731 1.47466522600298 0.0451171807297852 0.326042708882847 -0.0684954383587596 -0.899996455733155 0.731186394071791
-0.0877848727441036 0.13903413134351 0.169736429651479 -0.0842087272057992 0.839105051042909 -0.137277040351435 0.0872552257666856 -0.287371023336019 0.0766936536606774 0.200868101965414 -0.533915263569522 0.19058780839984 0.000478739161141909 -1.11184676206431 -0.568419964377023 -0.776989287660204 0.194308706971293 0.283231549386296 -0.525156548068201 0.909115382601157 -0.739260939375584 -0.252408152182033 -0.559232903310469 0.150786123597793 0.497092714460359 -2.56409532252353 1.35827016051171 -1.02096653982451 0.443652362879615 1.6648979652398 1.79129204575621 -3.52163200881894 0.760850995680314 1.31763698137715 0.865499982451517 -2.71114563515924 0.50594501806837 1.40988631534256 -0.781193553376097 0.536092215490783 0.483681590193806 -2.22458749623566 0.0975494032821527 0.928042805848538 0.20734393614999 -1.27854774889278 -0.0162005126442276 1.70881135609178 -0.0839945544231831 -0.16769086103384 -0.0256122880109089 -0.933656806698986 0.911690855306398 -0.471871491038117 0.493012890073141 -0.32476564260283 -0.183215945226768 -1.0078672902102 -0.701400950677158 -0.774390675038474 -0.237716876313264 -0.331702475345906 0.829663193784792 0.0671070433694114 0.311166827902531 -0.0914620625844106 0.0103258020680023 2.35254814909838 -0.0666653280746521 0.288324645005555 -0.592030649611622 1.00229699809089 0.229715093191321 0.194392782001204 -0.022909802875161 -0.454139630142675 -1.16215165496078 0.406292710597721 -0.236044631681649 2.23143665440626 0.111185241848834 0.856786518342441 -0.339525052670151 -0.122635900968392
-0.511367471832324 -0.214589301112922 -0.226962214459663 -0.423191791609738 0.373915596556305 -0.435745453415277 -0.344394205319831 -0.504104109156568 0.267252922830181 -0.214939228072274 -0.511630495549751 -0.27522076740794 -0.878589718989055 0.16068820808386 -0.0898558952698813 0.346855521103726 -0.500085476992954 0.421541658453879 0.439879785161336 0.594735191628835 -0.871522274272906 0.38772138495409 -0.03059431203102 -0.583441883941404 -1.00265849500849 -0.607139472417928 -1.59359514079054 0.275198655932184 -2.10623119426684 -1.58454614789237 0.202846564825235 -1.72766987381006 0.226866569471508 2.26426936769233 -0.730639006491731 3.30224400324654 0.500030969634113 1.25145322067565 -0.272027201822256 -0.0163380665922463 -0.613397791387507 0.644847251887892 -0.178800077830091 1.06519823308331 2.50389554422613 0.113115625104395 0.356584570436491 -0.22217533706861 -0.436757439096402 -0.0860478363463191 -0.0877573619544999 -0.399465406792693 -0.595955179448179 -0.178497459144449 -1.25150232872065 1.15615995925119 0.79849089806191 0.290840211038107 0.0540399325279961 0.966034692070952 0.874810713516196 -0.598798560964327 0.629352506696583 0.0603141923289338 0.246410285828049 1.30615366926432 0.504295142022695 0.439056518354689 -1.1987435762356 -1.04688530317381 0.362018851268874 -0.607310964910131 0.958844091577044 0.678567509526411 -1.73623549956379 -0.288912655994562 -0.712048140474176 -0.129136160620373 -0.134192489483433 1.83049209272954 0.059042268252581 -0.0910275463747813 0.969610066278706 -1.03294915991314
0.772741570323348 0.00903793716029022 0.962385784350798 0.047964676008865 -0.186441649585353 -0.0628744955333652 0.0204325462599074 0.10420135794223 -0.0113789253784412 0.171855017561151 0.604786914241533 0.491497739763469 -0.423560487612465 0.126549889287438 0.0260799714341727 0.00315499905820213 -0.601290729970207 0.444467145050216 0.67610567952215 -0.391808922646804 -0.0958553042849647 0.278219443474749 -0.231377567635973 -0.345556857568319 0.784371435240605 -0.73586811339791 0.160578679145812 -3.5734363683039 1.62774682931649 -0.69142044758521 0.181886942689741 -1.13026227893692 -1.49624988299386 -0.186098921711131 1.51537630952305 -1.91210554974599 -0.619468162813157 -1.21050122491391 -0.0477623302946766 -0.61847366062449 0.625936283692237 -0.473116932765599 -0.399106738087112 0.631179274548309 2.66399831242281 0.816016556590415 -0.997092573762304 2.37031754808057 -2.07572507102866 -0.737139780364079 0.163215344074657 1.54440764875032 0.962833413179771 -0.211103144138742 1.62601390668164 0.584799939929133 -1.28005775699879 -1.82665420902473 -0.15713957333516 -0.156282882204695 0.571631784785715 0.382294817427205 -0.291716442542496 0.237333010809727 -1.22908797716854 -0.0686139661532206 -0.472092862905863 2.09736526381912 -0.359006548362354 0.434378398571136 -0.76227924274806 0.0797419519928463 -1.42829848978278 -1.41178198872338 -0.871942392312276 1.30787193661873 1.16352076668639 -0.0355930482130399 0.00909758672279555 0.466100652975909 -0.137633909285734 2.13943208933527 -1.11965776943031 1.18598756871587
-0.450546515332279 0.665830528160241 -0.0151995827009808 -0.462354814716685 0.560953998876895 -0.163786900011939 -0.0367803830391158 0.0913471343325146 0.200325599478835 -0.0740335917051596 -0.540490342284819 -0.42347692680292 -0.297665972182036 -0.0768144954467873 0.253743325363457 0.207482775648925 0.440502506025077 0.0743904606394587 -0.19273982063333 0.105636032764556 0.37444498642354 0.564140365377449 -0.234870152364734 -0.0993070084945942 0.736033435245715 0.266570552403934 0.327011500053192 -0.296443670371043 0.410102826402749 -0.863164393547214 -1.95991827363658 -0.123762043570863 -0.304244136219531 -1.76057997726128 -0.0634604496409067 2.15556189667911 0.361758398653279 -0.603896798787251 -0.889433855186414 0.458258792387924 -0.839258288712104 -0.631852389007959 0.565209429519247 0.323660068815016 0.507798268268967 -0.238121824851824 0.612574267470677 -0.749447130614101 1.1738846210615 0.0687072971497268 -0.43004583487382 0.626698615385462 0.300581344549484 0.121876397487182 -0.952676789612323 -0.391809436867171 0.856707071295829 -0.835726623235495 -0.253478758984931 -0.277816294707471 0.385652419309778 -0.0461713324809569 0.11266465384304 1.03411078372089 0.670206800588703 0.173627535164219 1.03975846600534 -1.34206810520638 -0.786453770614444 0.490545917865216 -0.251582057163371 0.185553333902354 -0.353121039158434 0.44532383618068 0.101118349735327 0.539848852377703 0.253388770420806 -0.556503421605484 -0.295495705125538 0.0511477000770373 0.97022018874347 0.0228226425230519 -0.498871145597641 -0.224311922691107
-0.328588099696652 0.225268886793025 -0.0447569693631043 -0.280065494590216 0.0566542288709021 -0.585716280622103 0.191132367767884 -0.0453274968596531 0.0650843575580777 -0.576639519824147 -0.622723949063178 0.948624218904525 -0.565712594147794 0.104965232296555 0.37220015741391 0.66184891986301 1.11739211449584 0.261061709618421 0.044710689530126 0.591266775257297 -0.135736436133625 0.286854231867762 0.191562513104399 -0.133094629001115 -1.13244488728221 0.681613493866931 1.22351999904088 -1.35832415365018 -0.34927518503794 1.70545041177683 -0.381932292068875 -1.10141065972771 1.62421516383988 -1.12045146856589 -0.839460120205926 -1.03771469715898 0.607067995786995 0.385457529790903 -1.08389065762324 1.03095552755251 0.0892326601857739 -0.871454140074355 0.205605614201289 0.965790694507083 -1.20023044442512 0.430088772274416 -0.416483015599171 -0.0369511042007689 2.13579860822611 -0.0333636458144032 0.146516809005547 -1.56901000796157 -0.832474179417855 -0.964960485725489 0.510091948213407 0.293361690604873 -0.213365199530646 0.0943123860755058 -0.668695249821596 0.260342315325792 0.245390843951611 -1.92066243375349 -0.490059979618944 0.439983657675354 0.926789907925743 -0.395686144209651 0.914114118783177 0.541259358842808 0.107220088603329 -0.709726692629949 0.750300222202001 -0.735632086249721 -0.21213544152434 -0.173909842145387 0.523229507245022 1.05183261731919 0.122629987434178 0.999749036175257 -0.429606433570709 0.457429612047064 0.572690564520185 -0.185151727796175 -0.497188616558698 -0.880656627751901
-0.147934771665965 -0.0510607968351114 -0.233351145402314 -0.212775902990723 -0.373865460070579 0.0370858299367724 -0.101013191670393 0.446866497279956 -0.332415956104321 -0.120293884309508 0.0106939838503627 -0.359885865188942 0.946908779762131 0.35458528165183 0.521650079389547 0.0846967223335368 0.690787185203958 0.303393101513097 1.34987525591963 0.724445479288322 -0.212153439237165 -0.852429014957354 0.0989743079175171 0.0333191657527074 1.66827022240282 0.613475181552654 1.56558118655824 -2.1331246623207 -2.13722094175964 -3.06623433854981 1.28777646180902 -0.556121098763047 2.4490626838931 2.17448186373118 1.78498101919907 -0.292977567991154 -0.899020979698046 -0.611063745144303 -2.63313249203832 0.914580516655525 0.322815461863162 -0.602247951182308 0.435169269494698 0.854336515406608 -2.81492867483339 -1.60059882218125 -0.558623552176255 0.211317316921358 -1.22738179399274 -0.0135823596485734 -1.37720298307293 -1.12588703494919 0.428996568216129 0.500211460982729 0.168412312207934 -0.766849119144482 1.91828056501621 0.703735254030545 0.962924944404995 -0.0090862738747342 -0.587241972449286 -0.036976558108907 1.02290900725868 0.521433335505099 2.55779972257739 -0.399095682349234 -0.472565174312425 -0.0708035164734593 0.145750620659573 0.0219345839502355 -0.939775257728897 -0.187752911519738 -1.30372320670241 -1.57810965156583 0.4562512760774 0.711993376005152 0.573452381993044 2.29255457316791 -0.472433019678253 -1.68520709861177 -0.844740649148747 0.267155735180926 -1.04587537437415 1.90783906336576
-0.257127409594901 -0.0493808388980001 0.108253928650027 0.191575882833926 0.157043414126638 0.512744039753245 0.0324956418358774 0.361274774398656 -0.188492360406657 -0.546000984841615 -0.43531350830748 0.414037383536452 -1.03843717677381 1.23227485788946 -0.419061830736793 1.39830478713974 0.99877047481795 -0.261574901544113 0.361239550303556 0.498370552070926 -0.622366051688146 1.40249799711776 0.188910678674744 -0.629151703643494 -2.11691926458299 0.335556042771897 -0.680650102010433 -2.73133469807565 -0.983897422049649 0.390233351444078 -1.16067044319529 -0.36588167466146 2.60330359702272 1.07646685819316 -2.67942312364429 -0.325901555392263 -1.03508086044215 -0.307302461848845 0.30122849088063 1.19901071371596 -1.49952469539744 0.691382909498461 -0.0119877622922887 1.42683964660323 -2.81006954948085 -0.123158091750497 -0.587482113360407 1.07641852147871 1.3590222077976 -0.915904376988887 -0.246783609814074 -1.46723422748777 -0.516012681512427 -0.203662632546752 0.543439138976084 0.745102482738174 -0.149573077753395 0.747102285743202 1.08303036695021 0.749321917954877 0.156474429291189 0.562597704278173 -0.334376164141135 -0.551772080014005 0.110025932032729 0.19667900575033 1.31482291042189 0.658253491060965 1.29166396777919 -0.583907510483202 1.60489898999549 -0.476142605401645 0.594685312253292 -1.56372793635765 0.375060508202151 -0.116025855268178 1.04237404789916 -0.205626697236313 1.16488087955558 -1.40366116358661 0.620437982424235 0.197638026733713 0.302188283194563 -1.77733301968923
0.139520583810148 0.155577886082326 -0.183363269361748 0.0459982973276548 -0.0302199596042624 -0.216597074533629 -0.0973221178801928 0.0534706905823634 -0.0377957111526224 -0.171272662996175 0.121956358754161 -0.279926397981097 1.5299238607994 0.663693685427561 -0.383640275015956 -0.541165256515752 -0.566007756638122 -0.324598778093925 -0.986383420411132 -0.0882985788901625 0.417828473187922 -0.365789372105687 -1.09884058633632 0.361575336202832 -1.5079825919844 0.0985850431001332 -0.700596710024069 1.70588929885957 -0.230211830065287 -2.15264626720148 0.61698987775717 0.612364979781542 2.06549131440625 0.581693020475191 -2.76795438725026 1.7434888349424 -0.836464015240949 -1.48822136041286 -1.02602672534032 -0.262848111171382 -0.132074415794127 0.849163715630553 0.545747217090784 0.177915875910022 -0.224250473357319 -0.970245642651608 0.14900203603648 0.48157071558963 0.0141001795575636 0.823713921255435 -0.876493242555139 -0.296722120699462 -0.0934325550285522 -0.938734475707252 -0.294035833505257 0.900635888758805 -0.752282284604387 1.58472843901227 -0.0830221637102729 -0.422212973142247 -1.0459957019399 0.900434314375166 1.2092149026673 -1.12850570216521 1.26168003532312 -0.118579987828213 0.983215308733586 -1.56179806732245 -1.33239202057136 -0.0075652100308483 1.65864221737205 -0.978238426917139 -0.651332342039064 0.862946364111849 0.141043190315133 0.852006840036518 0.727994114037023 0.314935034747695 0.0563431255492148 0.0156600670391146 0.523301240986138 0.507473795217752 -1.04419181689448 2.84076259182223
-0.314268605152808 0.108802601781003 -0.26160189811335 0.208946503921954 -0.0274642526605895 0.00640538599437615 0.0317682771275688 0.298889559543945 0.0286348753247566 0.301645780707984 -0.051528223148192 0.195061011367373 -0.775883199652024 -1.39607589896147 1.58462868026119 0.593498491647582 -0.121906222268434 0.303712432360647 0.708751216594841 -0.358999863497591 0.168532382663494 0.389607288147955 -0.820574605918409 1.8060550553661 1.29758778640041 0.0239886372039212 -1.3150478818322 -3.34646746897947 0.566668786919162 -0.082676350513852 -1.85971446482294 1.56958130678867 -2.89653878941746 2.66794315396384 -1.32470031233037 -3.60134645002218 0.343295573506964 0.525475621805568 0.816640820115255 0.314052889709093 -1.67608585775212 -0.542832616053886 0.382625461122816 -0.990133372433288 0.59562633552385 -1.18367023463458 0.493211636244765 0.918086728223996 0.808438491050406 -0.0499811911758016 -0.235748440750588 0.633210959216055 -0.672753734063607 0.78473678881095 3.76770625163753 -0.0875647864272736 -0.9812684704263 -0.673030127510561 -0.252274711996946 -0.444844582799172 -1.3300266068858 0.0167692403694939 1.20092078526704 -0.457007180016045 1.22045910230974 1.27624069921882 -0.939780399932561 0.570546008482008 1.64202235801901 -0.555613820371568 1.95714714008191 0.316861561350507 -0.197506900540275 -1.11501821617424 0.166227389870993 0.282914789640578 0.278404819916845 0.324601863416123 -0.637390285244176 0.449536329422436 -1.54453209007899 -0.461632849322224 0.865580457938863 -0.228556811815948