-6.11422087576702 -1.47097637984871 -1.49704981641915 -1.47097637984871 -5.58188821245397 -1.79906712336002 -1.49704981641915 -1.79906712336002 -1.12767613167132
-4.18073201243147 0.62818178443201 0.368762003147801 0.62818178443201 -0.475960259876813 -1.71731607279877 0.368762003147801 -1.71731607279877 3.60614935636396
-1.35215170658025 4.87074616332315 1.27500834455665 4.87074616332315 -0.848576982259554 -2.55430243144795 1.27500834455665 -2.55430243144795 3.77145325448691
1.93009138412381 -1.24951411074534 -1.79268777057106 -1.24951411074534 2.96920621161649 -2.76524772274913 -1.79268777057106 -2.76524772274913 -3.31056831403661
-7.75679830017859 -0.604938211599122 -2.24002482700834 -0.604938211599122 6.28828887347058 0.672884170148298 -2.24002482700834 0.672884170148298 -9.32393895703864
-3.2619301804992 4.63459763202148 -0.0864506382679166 4.63459763202148 1.27989115679574 2.94564735756779 -0.0864506382679166 2.94564735756779 -0.915111634348191
-0.256709535485667 1.45040887549402 -4.15227673648067 1.45040887549402 2.63555123098618 1.52742173613972 -4.15227673648067 1.52742173613972 -4.3212771806754
-3.51735141212107 3.50868798499762 -0.431005499391683 3.50868798499762 -5.40381266825251 -1.04827468193756 -0.431005499391683 -1.04827468193756 -8.59411970646331
-16.6021548816663 -0.121619408429894 0.479843847805219 -0.121619408429894 -15.1007080030499 1.7690095771621 0.479843847805219 1.7690095771621 -4.29648201053244
2.84095739721082 -1.95522285985366 -2.06051997268633 -1.95522285985366 4.70946498767287 0.520291616349655 -2.06051997268633 0.520291616349655 -2.64688036571531
-4.11876383235993 2.56153849249023 0.961116887991698 2.56153849249023 -0.194383190829782 -1.33908420349405 0.961116887991698 -1.33908420349405 -9.62844738576851
-0.0295332898588794 1.13492213886265 0.339632833377113 1.13492213886265 -2.69385793927064 -2.58416286265195 0.339632833377113 -2.58416286265195 -5.49108239304736
4.96119575127101 5.52333387328591 -0.376937577940222 5.52333387328591 -0.427050666336899 -0.156875754980902 -0.376937577940222 -0.156875754980902 -9.25131188401261
-2.36343211635755 2.08075543337594 2.56746942136684 2.08075543337594 -2.53983936964683 -0.637616578154017 2.56746942136684 -0.637616578154017 -8.12748598286987
-14.0565290342681 1.43025237347284 1.70672429345922 1.43025237347284 1.33011293788722 -0.217694425186125 1.70672429345922 -0.217694425186125 -2.85179696993824
6.25780338897934 2.8278044985484 5.88895932395129 2.8278044985484 6.21263880958815 4.40103734734153 5.88895932395129 4.40103734734153 3.03355424910827
-7.00894456326437 -0.554319570022429 -2.11867335657611 -0.554319570022429 -7.29676434000679 -1.34848895399687 -2.11867335657611 -1.34848895399687 3.58975221548179
-3.23297518043437 1.74469633612975 4.04187984536725 1.74469633612975 -7.82469871961221 0.885565564550706 4.04187984536725 0.885565564550706 -5.13892375369126
8.00186492295316 0.611507639441881 0.90680833712108 0.611507639441881 6.77623636355896 5.15600244708902 0.90680833712108 5.15600244708902 -5.78318976959352
-5.08989591697809 4.1323271144153 2.18505632799565 4.1323271144153 -4.59076050087713 0.758343078539665 2.18505632799565 0.758343078539665 -2.73774704625337
2.44981072925663 0.132698081168068 0.0612452682314159 0.132698081168068 8.3701866582935 1.5617543399011 0.0612452682314159 1.5617543399011 -4.98638558850778
-6.56041458566147 3.97998484863462 2.22025011271602 3.97998484863462 -8.80896452600191 0.674050439781688 2.22025011271602 0.674050439781688 5.67797450609995
-1.51383384703523 -2.14807802777586 -4.41099862325784 -2.14807802777586 -2.26814071219589 0.861319257795909 -4.41099862325784 0.861319257795909 -5.74473844366302
0.100488368688225 -2.19270773727383 5.35422641369568 -2.19270773727383 0.149444240613258 -0.347844353151548 5.35422641369568 -0.347844353151548 0.445756097001614
0.513792714618947 -0.265365467990006 4.44346007038584 -0.265365467990006 -7.25802785321601 -0.719874407845228 4.44346007038584 -0.719874407845228 -0.880787510775338
-6.49204166569437 1.17748850791005 0.818111404957252 1.17748850791005 0.25579193798405 2.58328717534306 0.818111404957252 2.58328717534306 3.13503672752353
-1.35930592817982 1.29217970950428 1.95924650759252 1.29217970950428 -0.933473978456822 1.89841337191781 1.95924650759252 1.89841337191781 -1.60473616521229
-0.61068930476309 -0.524350472020722 -3.14820865731317 -0.524350472020722 -0.328508729458766 1.39616210019975 -3.14820865731317 1.39616210019975 4.8349746335726
2.34504411461018 3.0022406413915 -0.999355988343662 3.0022406413915 -0.742736392171908 -3.24842854666197 -0.999355988343662 -3.24842854666197 6.04412170820791
-5.08375567881325 5.68676764409249 -0.00214595005437452 5.68676764409249 3.10733567873431 0.802585320336072 -0.00214595005437452 0.802585320336072 -1.13949947887287
-4.62395466004568 -1.7320861572323 -1.24215940937936 -1.7320861572323 -8.39378923755128 -0.916986789122984 -1.24215940937936 -0.916986789122984 -5.73604502132249
-3.14856985361486 3.66805220370826 -0.927043706060982 3.66805220370826 0.844686748119346 2.56784771428281 -0.927043706060982 2.56784771428281 -3.54557262523095
-2.95429688701555 -0.935204120324397 -0.0538712050878109 -0.935204120324397 3.59428680345874 1.17223742271076 -0.0538712050878109 1.17223742271076 1.29721861851449
-3.02562358165753 2.44578505664247 0.0937332953971712 2.44578505664247 -1.63924274741099 -0.0217984407900398 0.0937332953971712 -0.0217984407900398 -8.18749436073896
-7.78426577854164 -1.0371803360004 -0.528334033369725 -1.0371803360004 -8.22815297870883 0.580301315340517 -0.528334033369725 0.580301315340517 -2.21943600083593
3.58187067093451 -1.03785651949339 4.88130078477177 -1.03785651949339 1.14754867196017 1.38591815712837 4.88130078477177 1.38591815712837 1.45553048465537
3.31949880938531 3.17083283583639 2.44874096431303 3.17083283583639 -1.53338332717607 -3.95239109677931 2.44874096431303 -3.95239109677931 -5.38595584171539
-1.76018710673312 1.03893970690101 2.48358107620759 1.03893970690101 -9.98154883696221 0.332718294565407 2.48358107620759 0.332718294565407 0.113768191044946
-10.081414614437 -3.919358978135 2.60933253631854 -3.919358978135 -6.14490308059896 0.379500294928826 2.60933253631854 0.379500294928826 -1.85462008538664
0.330456039642805 2.30482630181247 -4.95474910072028 2.30482630181247 3.92364259727786 -0.232155825318679 -4.95474910072028 -0.232155825318679 -5.21200285310044
-2.76955751155328 -1.82761620589333 2.59242253150661 -1.82761620589333 0.293835672783306 -1.99016359934792 2.59242253150661 -1.99016359934792 11.6742371555467
-7.41069877892891 0.0950089587042168 2.12186674439418 0.0950089587042168 1.55181299216888 0.00633393058028112 2.12186674439418 0.00633393058028112 -2.09864233226648
-1.92393307080447 0.373394905189026 -3.01458372607411 0.373394905189026 -12.8114534418811 2.64540797235615 -3.01458372607411 2.64540797235615 3.66011390114667
-0.65527945090003 3.0476047682537 0.693041317562065 3.0476047682537 -7.46352188143763 -2.51227477616249 0.693041317562065 -2.51227477616249 1.59710483117668
-8.39552085129872 0.877723346128584 0.0884193051382603 0.877723346128584 -6.79103394830199 1.40392604012213 0.0884193051382603 1.40392604012213 4.58270788826349
-8.46860965499659 -2.51213405782592 -0.533415725119761 -2.51213405782592 -0.414032205688195 -2.76106139621514 -0.533415725119761 -2.76106139621514 -1.37672058578529
-4.60550897834743 -0.607174183098194 -4.04340886124343 -0.607174183098194 -1.73932866424635 3.11276196924576 -4.04340886124343 3.11276196924576 0.954509632818121
0.568880429333279 -3.6509481775878 -8.07557373906885 -3.6509481775878 1.95947703437018 -6.68244877656825 -8.07557373906885 -6.68244877656825 -8.82902426325249
1.71229508328301 -1.34779662496039 -0.498006614568699 -1.34779662496039 -3.77425438530575 -5.34880295817615 -0.498006614568699 -5.34880295817615 -0.750188687477954
3.69631870843147 0.200152278867246 4.76466398913846 0.200152278867246 5.5886675268127 2.83852322757185 4.76466398913846 2.83852322757185 9.77366972130966
-1.45111495884728 0.215670296636018 -4.76338469977575 0.215670296636018 -12.0961747854004 -4.35334487654184 -4.76338469977575 -4.35334487654184 -5.75120791029381
-8.48325749959529 -2.49737111303633 -2.67947109002856 -2.49737111303633 -1.69873264251325 0.327779958586018 -2.67947109002856 0.327779958586018 5.04156793444209
-4.70275539300917 0.704339620505483 -0.216885066070286 0.704339620505483 -3.66986710806058 -2.95479060309617 -0.216885066070286 -2.95479060309617 -8.48213872255078
-4.04010860906542 -2.28342159961292 2.17481652947675 -2.28342159961292 6.15247722321388 -3.26086723083842 2.17481652947675 -3.26086723083842 -3.42648996279608
-1.63706516544318 -0.827941003212645 -0.150534727856844 -0.827941003212645 -2.67617293967724 0.148443967747722 -0.150534727856844 0.148443967747722 8.91291034519067
-3.91521051148818 -3.17259721338526 -1.47033177360779 -3.17259721338526 -5.88771058983032 0.038300972394993 -1.47033177360779 0.038300972394993 -0.663883521513213
-5.73177977376336 2.9241133834549 -0.265240373277988 2.9241133834549 -9.91740224963796 -0.338558850444262 -0.265240373277988 -0.338558850444262 -1.16231350566533
-10.1851650271926 1.52344917125193 1.87793595902246 1.52344917125193 -1.17107242388479 0.749064343205587 1.87793595902246 0.749064343205587 4.41842460471127
-2.92373794412126 1.10712768249116 -1.5654659858287 1.10712768249116 5.55865997107091 0.820404634284562 -1.5654659858287 0.820404634284562 1.28920728244717
-2.70272447083101 -0.405514826338353 3.44793758101301 -0.405514826338353 -5.4224338558542 -1.66452159083387 3.44793758101301 -1.66452159083387 -2.72820184211928
0.585987643386057 1.51276242689734 0.883137405812321 1.51276242689734 13.3281019314829 1.64783050072746 0.883137405812321 1.64783050072746 -0.523648532387541
-8.88119627026336 3.48303350570066 -0.47231228343557 3.48303350570066 0.521915856581771 -1.36517660006719 -0.47231228343557 -1.36517660006719 1.69730487243741
-4.23981615925822 -1.19049025161438 -0.666256825026291 -1.19049025161438 -5.75612479552495 0.595245125807188 -0.666256825026291 0.595245125807188 3.72811420900291
-5.00235385334435 -2.09209072217959 2.78873089004229 -2.09209072217959 -3.82175493958325 -1.84902623993466 2.78873089004229 -1.84902623993466 0.501320494630171
-1.71611531313762 -0.481349417099577 1.02339071722475 -0.481349417099577 6.9272459591287 -3.46153015601174 1.02339071722475 -3.46153015601174 4.91185687796829
-3.71652126001844 6.30914605652615 1.67520173633134 6.30914605652615 -3.65692068998378 2.54792436898172 1.67520173633134 2.54792436898172 -2.29036476276051
-6.57802605905693 0.998089363215044 2.17919724505801 0.998089363215044 -2.71122782246475 -0.0893811370043323 2.17919724505801 -0.0893811370043323 4.2626289861828
-7.34058190460149 -4.87673431090488 2.29102375169271 -4.87673431090488 -1.56649302944559 -1.32055140813235 2.29102375169271 -1.32055140813235 -1.9342976162744
4.87467632338371 1.50698452247156 2.95955015940943 1.50698452247156 5.55909846067288 1.39814675140417 2.95955015940943 1.39814675140417 -2.40698916783653
3.01330312604096 -0.269309990856581 -0.822773830333493 -0.269309990856581 -5.02358557747434 -1.30201838099166 -0.822773830333493 -1.30201838099166 6.57158788712241
1.42044644469926 -1.74249961759654 -2.09441202506708 -1.74249961759654 -1.16024454341801 4.49168200080577 -2.09441202506708 4.49168200080577 6.77378064319046
4.46964432709738 0.988745973935064 -3.30578567527317 0.988745973935064 5.42635749410151 2.81461596899873 -3.30578567527317 2.81461596899873 -1.21297562245166
2.38568728181861 -0.649138480494839 0.0537503200409739 -0.649138480494839 3.18367280242692 0.773177680589394 0.0537503200409739 0.773177680589394 2.25337880171775
-11.8092332370267 0.303653332108232 3.00771950124724 0.303653332108232 -6.54073710256492 -0.0421125059128205 3.00771950124724 -0.0421125059128205 -4.67005526096384
7.22396263621414 3.59920992803983 1.27017279395986 3.59920992803983 12.9780543792352 -0.912573872077196 1.27017279395986 -0.912573872077196 -0.0766283404034287
1.79153445956622 -6.0879428175599 -0.0748421706346203 -6.0879428175599 -1.55999149416537 4.63787576151413 -0.0748421706346203 4.63787576151413 7.50760524178535
-7.63363078601438 -3.19360908561238 -4.2460778288061 -3.19360908561238 -1.49983260700825 -2.06097687549236 -4.2460778288061 -2.06097687549236 -5.82865982102859
-11.9287082806744 -1.73777482415542 -1.44939949258562 -1.73777482415542 4.3607365356512 -5.78505991244814 -1.44939949258562 -5.78505991244814 -0.0651979010505642
4.14276610598496 -0.17527880488239 -0.0577389004318461 -0.17527880488239 -3.75096642448315 2.98592599376119 -0.0577389004318461 2.98592599376119 6.40901794793492
11.2991196162427 3.33894213428414 -4.44196328677324 3.33894213428414 8.07720229949125 -6.75507085034518 -4.44196328677324 -6.75507085034518 10.4376177680232
-0.876201887302013 3.97644732108114 -0.165597964346553 3.97644732108114 -2.16115824356071 -0.605795084761439 -0.165597964346553 -0.605795084761439 2.40431474817083
6.82148762154242 2.86432476240934 0.367520285197126 2.86432476240934 11.5642493971815 -0.110839451091197 0.367520285197126 -0.110839451091197 17.5048550653149
17.480309834874 0.408840012608781 -2.26493528111907 0.408840012608781 16.09063767934 -0.996187636356608 -2.26493528111907 -0.996187636356608 19.1828501690712
9.39101002100748 0 2.90787619939825 0 6.96777985484227 0.480673524763919 2.90787619939825 0.480673524763919 9.5816904275254
16.0468398451865 0.682967047721043 -0.971544673518667 0.682967047721043 19.5001521005648 1.32745707866907 -0.971544673518667 1.32745707866907 26.3432895336458
8.4263900567369 2.90497030567618 0.723278321005091 2.90497030567618 10.3847748002234 0.0474280866232846 0.723278321005091 0.0474280866232846 6.22098402875417
15.8428339536302 0.791568097610777 -1.28677615867646 0.791568097610777 15.7663539441992 -1.87376023105933 -1.28677615867646 -1.87376023105933 27.6111954048242
16.021596359714 -0.602547982670056 -2.95287136379011 -0.602547982670056 12.6110202783188 1.06797767441199 -2.95287136379011 1.06797767441199 22.5414745311695
10.6842568019726 1.10268776430237 -3.00285507243055 1.10268776430237 8.74864595856323 -0.421384252786975 -3.00285507243055 -0.421384252786975 21.2720284245687
12.5401616854963 0.0774084054660267 0.532182787578934 0.0774084054660267 13.3974597760326 -1.40302734907173 0.532182787578934 -1.40302734907173 10.9107147504365
17.9650688179142 -2.85972962610085 -1.7841415443553 -2.85972962610085 19.0936512029575 1.01081726660394 -1.7841415443553 1.01081726660394 14.7127887970157
14.1357420492515 2.27296639664715 0.0507707270728746 2.27296639664715 24.5984172668077 -1.19506480648459 0.0507707270728746 -1.19506480648459 17.4026430643638
12.3818312574281 -1.0993398463949 -2.05511652859154 -1.0993398463949 15.1350974201344 -4.56255535534198 -2.05511652859154 -4.56255535534198 20.8087923339972
9.03655786745603 0.705795217379189 1.36202616387501 0.705795217379189 8.13250556654336 0.162570808497454 1.36202616387501 0.162570808497454 15.6761875949923
13.2649048909056 -0.231649959616229 3.38640830794911 -0.231649959616229 8.94011793298564 0.602682522052392 3.38640830794911 0.602682522052392 20.2163668146434
14.6116629549788 -2.98387998494102 -3.71037295777588 -2.98387998494102 8.96916927588342 0.518088822450595 -3.71037295777588 0.518088822450595 18.2558140331933
12.9583324027108 -0.640108072861179 -1.86441116402639 -0.640108072861179 8.99621767460922 1.5154365821352 -1.86441116402639 1.5154365821352 22.8028860774975
8.95648915022892 -1.27421815668982 0.791766091256118 -1.27421815668982 13.9619293291036 -2.91222073368651 0.791766091256118 -2.91222073368651 22.5118358919307
2.20991661555 0.568435230534072 1.85888292932545 0.568435230534072 12.0667829639689 0.871600686818909 1.85888292932545 0.871600686818909 6.62177180832673
20.8613907344472 0.68335067183136 1.38781611161256 0.68335067183136 23.3107038166293 -0.82347595004397 1.38781611161256 -0.82347595004397 20.2433038908245
14.2590435467504 1.88693487023998 0.703636427452934 1.88693487023998 11.9063211822811 0.996983445095284 0.703636427452934 0.996983445095284 7.82522990305403
12.9173548223456 2.80391979199748 -2.37012066805975 2.80391979199748 17.0857700405472 2.35631796866174 -2.37012066805975 2.35631796866174 17.7857640814467
16.196683076321 2.25818198261139 -1.70831271301537 2.25818198261139 16.0577481363163 0.0273956219727551 -1.70831271301537 0.0273956219727551 11.7018442426483
13.5159887054082 -1.02537817067976 -2.98111877421568 -1.02537817067976 10.1963763651959 -1.5974520921594 -2.98111877421568 -1.5974520921594 11.372196120763
19.1123668245913 4.32500089298417 -1.00960968629556 4.32500089298417 22.8642434219716 1.77630576385835 -1.00960968629556 1.77630576385835 18.7366098360828
12.1863028808068 -5.01696862337648 -1.57122691285933 -5.01696862337648 15.5068160453427 -2.0388772642583 -1.57122691285933 -2.0388772642583 19.0797429978721
9.2286266192382 3.1696498021814 -2.64704803441807 3.1696498021814 12.6986222649617 -1.65590675072901 -2.64704803441807 -1.65590675072901 10.9966624848896
14.7139517491389 -2.15604918477872 -3.14932961359816 -2.15604918477872 20.2124684086751 3.37597098128514 -3.14932961359816 3.37597098128514 13.580744910704
14.2560593058088 1.12840168667988 2.03657990082983 1.12840168667988 9.02331573286328 -3.93868706179626 2.03657990082983 -3.93868706179626 18.1421265998325
-5.53525059061145 4.23976640983004 2.42446412516143 4.23976640983004 13.407652109247 0.483268393457639 2.42446412516143 0.483268393457639 8.78005266096988