10.370369 0.000000 0.000000 0.000000 6.327398 0.000000 0.000000 0.000000 4.999999
10.681481 0.000000 0.000000 0.000000 6.259046 0.000000 0.000000 0.000000 5.100148
10.370369 0.000000 0.000000 0.000000 6.327398 0.000000 0.000000 0.000000 4.999999
10.733332 0.000000 0.000000 0.000000 6.259046 0.000000 0.000000 0.000000 5.100148
10.733332 0.000000 0.000000 0.000000 6.154077 0.000000 0.000000 0.000000 5.020642
10.733332 0.000000 0.000000 0.000000 6.319787 0.000000 0.000000 0.000000 5.018319
10.785184 0.000000 0.000000 0.000000 6.319787 0.000000 0.000000 0.000000 5.018319
10.785184 0.000000 0.000000 0.000000 6.241094 0.000000 0.000000 0.000000 5.054522
10.785184 0.000000 0.000000 0.000000 6.138704 0.000000 0.000000 0.000000 5.024088
10.837036 0.000000 0.000000 0.000000 6.138704 0.000000 0.000000 0.000000 5.024088
10.837036 0.000000 0.000000 0.000000 6.213426 0.000000 0.000000 0.000000 5.093809
10.837036 0.000000 0.000000 0.000000 6.146505 0.000000 0.000000 0.000000 4.931894
10.888888 0.000000 0.000000 0.000000 6.146505 0.000000 0.000000 0.000000 4.931894
10.422221 0.000000 0.000000 0.000000 6.327398 0.000000 0.000000 0.000000 4.999999
10.888888 0.000000 0.000000 0.000000 6.258425 0.000000 0.000000 0.000000 4.942967
10.940740 0.000000 0.000000 0.000000 6.254659 0.000000 0.000000 0.000000 4.929370
10.940740 0.000000 0.000000 0.000000 6.208093 0.000000 0.000000 0.000000 4.864423
10.992592 0.000000 0.000000 0.000000 6.208093 0.000000 0.000000 0.000000 4.864423
10.992592 0.000000 0.000000 0.000000 6.211427 0.000000 0.000000 0.000000 4.864442
10.992592 0.000000 0.000000 0.000000 6.213809 0.000000 0.000000 0.000000 4.981814
11.044443 0.000000 0.000000 0.000000 6.213809 0.000000 0.000000 0.000000 4.981814
11.044443 0.000000 0.000000 0.000000 6.243315 0.000000 0.000000 0.000000 4.890458
10.422221 0.000000 0.000000 0.000000 6.322136 0.000000 0.000000 0.000000 4.992139
11.044443 0.000000 0.000000 0.000000 6.139548 0.000000 0.000000 0.000000 4.970499
11.096295 0.000000 0.000000 0.000000 6.139548 0.000000 0.000000 0.000000 4.970499
11.096295 0.000000 0.000000 0.000000 6.136944 0.000000 0.000000 0.000000 4.885084
11.096295 0.000000 0.000000 0.000000 6.203334 0.000000 0.000000 0.000000 4.904578
11.148147 0.000000 0.000000 0.000000 6.203334 0.000000 0.000000 0.000000 4.904578
11.148147 0.000000 0.000000 0.000000 6.064864 0.000000 0.000000 0.000000 5.046548
11.148147 0.000000 0.000000 0.000000 6.026244 0.000000 0.000000 0.000000 5.064915
11.199999 0.000000 0.000000 0.000000 6.026244 0.000000 0.000000 0.000000 5.064915
11.199999 0.000000 0.000000 0.000000 6.024719 0.000000 0.000000 0.000000 5.026243
11.199999 0.000000 0.000000 0.000000 5.999193 0.000000 0.000000 0.000000 5.023825
10.422221 0.000000 0.000000 0.000000 6.372107 0.000000 0.000000 0.000000 4.999539
11.251851 0.000000 0.000000 0.000000 5.999193 0.000000 0.000000 0.000000 5.023825
11.251851 0.000000 0.000000 0.000000 6.057705 0.000000 0.000000 0.000000 4.921017
11.251851 0.000000 0.000000 0.000000 6.172620 0.000000 0.000000 0.000000 4.818859
11.303703 0.000000 0.000000 0.000000 6.172620 0.000000 0.000000 0.000000 4.818859
11.303703 0.000000 0.000000 0.000000 6.155490 0.000000 0.000000 0.000000 4.923957
11.303703 0.000000 0.000000 0.000000 5.976973 0.000000 0.000000 0.000000 4.946243
11.355555 0.000000 0.000000 0.000000 5.976973 0.000000 0.000000 0.000000 4.946243
11.355555 0.000000 0.000000 0.000000 6.059142 0.000000 0.000000 0.000000 4.905693
11.355555 0.000000 0.000000 0.000000 6.070465 0.000000 0.000000 0.000000 4.980325
11.407406 0.000000 0.000000 0.000000 6.070465 0.000000 0.000000 0.000000 4.980325
10.474073 0.000000 0.000000 0.000000 6.372107 0.000000 0.000000 0.000000 4.999539
11.407406 0.000000 0.000000 0.000000 6.038599 0.000000 0.000000 0.000000 4.971962
11.407406 0.000000 0.000000 0.000000 6.052189 0.000000 0.000000 0.000000 4.891432
11.459258 0.000000 0.000000 0.000000 6.052189 0.000000 0.000000 0.000000 4.891432
11.459258 0.000000 0.000000 0.000000 6.132373 0.000000 0.000000 0.000000 4.932506
11.459258 0.000000 0.000000 0.000000 6.128334 0.000000 0.000000 0.000000 4.919964
11.511110 0.000000 0.000000 0.000000 6.128334 0.000000 0.000000 0.000000 4.919964
11.511110 0.000000 0.000000 0.000000 6.045237 0.000000 0.000000 0.000000 5.046427
11.511110 0.000000 0.000000 0.000000 5.930521 0.000000 0.000000 0.000000 4.917291
11.562962 0.000000 0.000000 0.000000 5.930521 0.000000 0.000000 0.000000 4.917291
11.562962 0.000000 0.000000 0.000000 5.970837 0.000000 0.000000 0.000000 5.067812
10.474073 0.000000 0.000000 0.000000 6.407201 0.000000 0.000000 0.000000 5.082087
11.562962 0.000000 0.000000 0.000000 5.981191 0.000000 0.000000 0.000000 5.092998
11.614814 0.000000 0.000000 0.000000 5.981191 0.000000 0.000000 0.000000 5.092998
11.614814 0.000000 0.000000 0.000000 6.011744 0.000000 0.000000 0.000000 5.013151
11.614814 0.000000 0.000000 0.000000 5.980145 0.000000 0.000000 0.000000 4.926638
11.666666 0.000000 0.000000 0.000000 5.980145 0.000000 0.000000 0.000000 4.926638
11.666666 0.000000 0.000000 0.000000 5.990865 0.000000 0.000000 0.000000 4.967001
11.666666 0.000000 0.000000 0.000000 6.061305 0.000000 0.000000 0.000000 4.972321
11.718518 0.000000 0.000000 0.000000 6.061305 0.000000 0.000000 0.000000 4.972321
11.718518 0.000000 0.000000 0.000000 5.990756 0.000000 0.000000 0.000000 5.095654
11.718518 0.000000 0.000000 0.000000 6.002159 0.000000 0.000000 0.000000 4.952660
10.474073 0.000000 0.000000 0.000000 6.242233 0.000000 0.000000 0.000000 4.967133
11.770369 0.000000 0.000000 0.000000 6.040959 0.000000 0.000000 0.000000 4.862048
11.770369 0.000000 0.000000 0.000000 6.002159 0.000000 0.000000 0.000000 4.952660
11.770369 0.000000 0.000000 0.000000 6.156702 0.000000 0.000000 0.000000 5.085986
11.822221 0.000000 0.000000 0.000000 6.156702 0.000000 0.000000 0.000000 5.085986
11.822221 0.000000 0.000000 0.000000 5.860515 0.000000 0.000000 0.000000 5.118518
11.822221 0.000000 0.000000 0.000000 5.832793 0.000000 0.000000 0.000000 5.002340
11.874073 0.000000 0.000000 0.000000 5.832793 0.000000 0.000000 0.000000 5.002340
11.874073 0.000000 0.000000 0.000000 6.029659 0.000000 0.000000 0.000000 4.919697
11.925925 0.000000 0.000000 0.000000 6.029659 0.000000 0.000000 0.000000 4.919697
11.925925 0.000000 0.000000 0.000000 6.043776 0.000000 0.000000 0.000000 4.904438
10.525925 0.000000 0.000000 0.000000 6.242233 0.000000 0.000000 0.000000 4.967133
11.925925 0.000000 0.000000 0.000000 5.999333 0.000000 0.000000 0.000000 4.992336
11.977777 0.000000 0.000000 0.000000 5.999333 0.000000 0.000000 0.000000 4.992336
11.977777 0.000000 0.000000 0.000000 5.951684 0.000000 0.000000 0.000000 5.053450
11.977777 0.000000 0.000000 0.000000 5.968608 0.000000 0.000000 0.000000 5.099748
12.029629 0.000000 0.000000 0.000000 5.968608 0.000000 0.000000 0.000000 5.099748
12.029629 0.000000 0.000000 0.000000 5.971030 0.000000 0.000000 0.000000 5.040527
12.029629 0.000000 0.000000 0.000000 5.991582 0.000000 0.000000 0.000000 5.243755
12.081480 0.000000 0.000000 0.000000 5.991582 0.000000 0.000000 0.000000 5.243755
12.081480 0.000000 0.000000 0.000000 5.950399 0.000000 0.000000 0.000000 5.137595
10.525925 0.000000 0.000000 0.000000 6.257386 0.000000 0.000000 0.000000 5.027171
10.370369 0.000000 0.000000 0.000000 6.327398 0.000000 0.000000 0.000000 4.999999
12.081480 0.000000 0.000000 0.000000 6.051839 0.000000 0.000000 0.000000 5.084872
12.133332 0.000000 0.000000 0.000000 6.051839 0.000000 0.000000 0.000000 5.084872
12.133332 0.000000 0.000000 0.000000 5.992609 0.000000 0.000000 0.000000 4.919021
12.133332 0.000000 0.000000 0.000000 6.009575 0.000000 0.000000 0.000000 5.043919
12.185184 0.000000 0.000000 0.000000 6.009575 0.000000 0.000000 0.000000 5.043919
12.185184 0.000000 0.000000 0.000000 5.902366 0.000000 0.000000 0.000000 4.912030
12.185184 0.000000 0.000000 0.000000 5.960098 0.000000 0.000000 0.000000 5.039538
12.237036 0.000000 0.000000 0.000000 5.960098 0.000000 0.000000 0.000000 5.039538
12.237036 0.000000 0.000000 0.000000 5.774586 0.000000 0.000000 0.000000 5.269915
12.237036 0.000000 0.000000 0.000000 5.931475 0.000000 0.000000 0.000000 5.256223
10.525925 0.000000 0.000000 0.000000 6.199923 0.000000 0.000000 0.000000 5.000484
12.288888 0.000000 0.000000 0.000000 5.931475 0.000000 0.000000 0.000000 5.256223
12.288888 0.000000 0.000000 0.000000 5.769788 0.000000 0.000000 0.000000 5.258451
12.288888 0.000000 0.000000 0.000000 5.598547 0.000000 0.000000 0.000000 5.375737
12.340740 0.000000 0.000000 0.000000 5.598547 0.000000 0.000000 0.000000 5.375737
12.340740 0.000000 0.000000 0.000000 5.794691 0.000000 0.000000 0.000000 5.280016
12.340740 0.000000 0.000000 0.000000 5.835469 0.000000 0.000000 0.000000 5.042872
12.392592 0.000000 0.000000 0.000000 5.835469 0.000000 0.000000 0.000000 5.042872
12.392592 0.000000 0.000000 0.000000 5.732419 0.000000 0.000000 0.000000 5.059376
12.444443 0.000000 0.000000 0.000000 5.732419 0.000000 0.000000 0.000000 5.059376
10.577777 0.000000 0.000000 0.000000 6.199923 0.000000 0.000000 0.000000 5.000484
10.577777 0.000000 0.000000 0.000000 6.241748 0.000000 0.000000 0.000000 5.060138
10.577777 0.000000 0.000000 0.000000 6.202305 0.000000 0.000000 0.000000 5.041056
10.629629 0.000000 0.000000 0.000000 6.202305 0.000000 0.000000 0.000000 5.041056
10.629629 0.000000 0.000000 0.000000 6.202459 0.000000 0.000000 0.000000 5.103320
10.629629 0.000000 0.000000 0.000000 6.206140 0.000000 0.000000 0.000000 5.097176
10.681481 0.000000 0.000000 0.000000 6.206140 0.000000 0.000000 0.000000 5.097176
10.681481 0.000000 0.000000 0.000000 6.150950 0.000000 0.000000 0.000000 5.074876