0.0179929 -0.0543348 -0.0265353 5.20318 -0.0543348 2.47346 0.0179929 3.10936 -0.0265353 3.02357 4.66107 4.91566 2.30235 1.58202 2.44844 7.38278 1.55766 0.0312701 8.10401 4.63671 2.49849 1.1366 4.70358 2.19463 4.04106 1.52202 4.71634 9.26975 1.51514 2.75229 6.3653 4.69671 0.230586 1.2305 4.69444 3.74008 3.89858 1.47616 1.25397 9.17585 1.52429 1.20685 6.50777 4.74257 3.69295 4.86993 4.6967 0.645109 0.400506 1.5277 3.21477 5.53642 1.52203 4.30182 10.0058 4.69103 1.73215 1.83803 5.93458 1.52119 3.347 0.277635 4.01673 8.56479 2.75073 3.42852 7.14497 3.48327 0.862902 8.56832 0.28415 3.42574 7.05935 5.94109 0.930202 1.84157 3.468 1.51841 3.26139 2.73546 4.08403
0.0179938 -0.0201589 -0.0766097 5.35873 -0.0201589 2.47346 0.0179938 3.10936 -0.0766097 3.09097 4.61014 4.80425 2.39361 1.69567 2.41785 7.6265 1.60859 0.142675 8.32386 4.52305 2.52908 1.1082 4.7449 2.16402 4.12393 1.44224 4.79217 9.60927 1.47383 2.78291 6.59354 4.77649 0.154763 1.15332 4.63858 3.77441 3.9871 1.5014 1.21549 9.56415 1.58015 1.17252 6.73037 4.71733 3.73144 5.12251 4.86457 0.618123 0.368315 1.56653 3.33388 5.59496 1.35416 4.32881 10.3492 4.6522 1.61304 1.86669 6.00202 1.65887 3.46562 0.162696 4.11103 8.71391 2.67039 3.41193 7.44598 3.52859 0.81332 8.85078 0.216709 3.28806 7.25185 6.05603 0.835895 2.00356 3.54834 1.535 3.27149 2.69014 4.13361
0.0179929 -0.0543348 -0.0265353 5.20318 -0.0543348 2.47346 0.0179929 3.10936 -0.0265353 3.02357 4.66107 4.91566 2.30235 1.58202 2.44844 7.38278 1.55766 0.0312701 8.10401 4.63671 2.49849 1.1366 4.70358 2.19463 4.04106 1.52202 4.71634 9.26975 1.51514 2.75229 6.3653 4.69671 0.230586 1.2305 4.69444 3.74008 3.89858 1.47616 1.25397 9.17585 1.52429 1.20685 6.50777 4.74257 3.69295 4.86993 4.6967 0.645109 0.400506 1.5277 3.21477 5.53642 1.52203 4.30182 10.0058 4.69103 1.73215 1.83803 5.93458 1.52119 3.347 0.277635 4.01673 8.56479 2.75073 3.42852 7.14497 3.48327 0.862902 8.56832 0.28415 3.42574 7.05935 5.94109 0.930202 1.84157 3.468 1.51841 3.26139 2.73546 4.08403
0.0179939 -0.0201589 -0.0766097 5.38466 -0.0201589 2.47346 0.0179939 3.10936 -0.0766097 3.10589 4.61014 4.80425 2.40514 1.69567 2.41785 7.66343 1.60859 0.142675 8.36418 4.52305 2.52908 1.11349 4.7449 2.16402 4.14386 1.44224 4.79217 9.65583 1.47383 2.78291 6.62546 4.77649 0.154763 1.15883 4.63858 3.77441 4.00637 1.5014 1.21549 9.61049 1.58015 1.17252 6.76295 4.71733 3.73144 5.14729 4.86457 0.618123 0.370015 1.56653 3.33388 5.62203 1.35416 4.32881 10.3993 4.6522 1.61304 1.87566 6.00202 1.65887 3.48235 0.162696 4.11103 8.75612 2.67039 3.41193 7.48204 3.52859 0.81332 8.89366 0.216709 3.28806 7.28697 6.05603 0.835895 2.0132 3.54834 1.535 3.28728 2.69014 4.13361
0.0179939 0.0323257 -0.0368567 5.38466 0.0323257 2.47346 0.0179939 3.10936 -0.0368567 3.14701 4.50628 4.92843 2.48346 1.47505 2.45942 7.62231 1.71245 0.0184943 8.28586 4.74368 2.48751 1.21744 4.61219 2.13997 4.16678 1.50492 4.70587 9.55188 1.60653 2.80695 6.60254 4.71381 0.241053 1.35324 4.63883 3.745 3.99817 1.32303 1.17305 9.41608 1.5799 1.20193 6.77115 4.89569 3.77388 5.13327 4.65872 0.666598 0.315974 1.50479 3.13735 5.63605 1.56001 4.28033 10.4533 4.71394 1.80957 2.00856 5.83285 1.48723 3.42999 0.341493 3.91965 8.83506 2.84473 3.46294 7.44218 3.58379 0.829527 8.76076 0.385883 3.4597 7.33933 5.87723 1.02727 1.93426 3.374 1.48399 3.32714 2.63494 4.1174
0.0179939 -0.0505293 -0.0356954 5.38466 -0.0505292 2.47346 0.017994 3.10936 -0.0356954 3.11525 4.59281 4.88575 2.42057 1.76009 2.48094 7.65407 1.62591 0.0611762 8.34875 4.45864 2.46598 1.12796 4.92304 2.09783 4.26839 1.52804 4.75184 9.64136 1.29569 2.8491 6.50093 4.69069 0.195089 1.31142 4.81593 3.70577 3.9314 1.55401 1.26631 9.4579 1.4028 1.24116 6.83792 4.66472 3.68061 4.98734 4.57399 0.599507 0.433719 1.56161 3.28929 5.78198 1.64474 4.34742 10.3356 4.65712 1.65764 1.65117 6.22912 1.55802 3.52637 0.292821 4.06235 8.79705 2.46485 3.60764 7.31747 3.46041 0.927357 9.11815 -0.0103887 3.3889 7.24295 5.92591 0.884576 1.97227 3.75388 1.33929 3.45185 2.75832 4.01957
0.017994 -0.0505293 -0.0356954 5.41059 -0.0505292 2.47346 0.0179941 3.10936 -0.0356954 3.13021 4.59281 4.88575 2.43218 1.76009 2.48094 7.69096 1.62591 0.0611762 8.38899 4.45864 2.46598 1.13332 4.92304 2.09783 4.28892 1.52804 4.75184 9.68785 1.29569 2.8491 6.53225 4.69069 0.195089 1.31767 4.81593 3.70577 3.95031 1.55401 1.26631 9.5035 1.4028 1.24116 6.87087 4.66472 3.68061 5.01134 4.57399 0.599507 0.435727 1.56161 3.28929 5.80983 1.64474 4.34742 10.3854 4.65712 1.65764 1.65906 6.22912 1.55802 3.54332 0.292821 4.06235 8.83946 2.46485 3.60764 7.35273 3.46041 0.927357 9.16212 -0.0103887 3.3889 7.27785 5.92591 0.884576 1.98171 3.75388 1.33929 3.46844 2.75832 4.01957
0.0179941 -0.0111828 -0.0537967 5.41059 -0.0111829 2.47346 0.017994 3.10936 -0.0537967 3.26056 4.5156 4.80948 2.32623 1.57641 2.41706 7.56061 1.70312 0.137452 8.49494 4.64232 2.52987 1.25149 4.56569 2.07497 4.26694 1.52913 4.65754 9.56968 1.65304 2.87196 6.55423 4.6896 0.289388 1.26173 4.53284 3.65534 4.01142 1.67167 1.14886 9.55945 1.68589 1.29159 6.80975 4.54706 3.79807 5.09519 4.51691 0.670275 0.305417 1.63569 3.36465 5.72598 1.70182 4.27665 10.5158 4.58304 1.58228 1.85695 5.89804 1.47283 3.65688 0.149602 4.08809 8.7627 2.78195 3.47458 7.49719 3.57609 1.00963 8.96422 0.320693 3.4741 7.16429 6.06913 0.858836 2.05847 3.43678 1.47234 3.32398 2.64264 3.9373
0.0179941 0.0400121 -0.0385799 5.41059 0.0400121 2.47346 0.0179941 3.10936 -0.03858 3.21514 4.56039 5.05356 2.47111 1.69668 2.33924 7.60603 1.65834 -0.106628 8.35007 4.52204 2.60768 1.19038 4.70243 2.16771 4.27862 1.50617 4.71682 9.63079 1.5163 2.77921 6.54255 4.71255 0.230107 1.34612 4.75332 3.74923 4.20496 1.48456 1.25415 9.47506 1.46541 1.1977 6.61621 4.73417 3.69277 5.07149 4.50133 0.671542 0.290601 1.71568 3.17985 5.74968 1.71739 4.27539 10.5306 4.50305 1.76708 1.82987 5.96217 1.59946 3.63801 0.229564 4.09831 8.70027 2.71973 3.50323 7.50314 3.60424 0.836509 8.9913 0.256555 3.34747 7.18316 5.98916 0.848617 2.1209 3.499 1.4437 3.31804 2.61448 4.11042
0.0179942 0.0400121 -0.0385799 5.43651 0.0400121 2.47346 0.0179942 3.10936 -0.03858 3.23051 4.56039 0.029468 2.4829 1.69668 2.33924 7.64251 1.65834 4.91746 8.39013 4.52204 2.60768 1.19602 4.70243 2.16771 4.29911 1.50617 4.71682 9.67701 1.5163 2.77921 6.57392 4.71255 0.230107 1.3525 4.75332 3.74923 4.22509 1.48456 1.25415 9.52052 1.46541 1.1977 6.64793 4.73417 3.69277 5.09579 4.50133 0.671542 0.291912 1.71568 3.17985 5.77723 1.71739 4.27539 10.5811 4.50305 1.76708 1.83858 5.96217 1.59946 3.65542 0.229564 4.09831 8.74201 2.71973 3.50323 7.53912 3.60424 0.836509 9.03444 0.256555 3.34747 7.21761 5.98916 0.848617 2.13101 3.499 1.4437 3.3339 2.61448 4.11042
0.0179941 0.00265138 -0.0734402 5.43651 0.0026514 2.47346 0.0179942 3.10936 -0.0734402 3.34991 4.56138 -0.131264 2.24555 1.84524 2.24901 7.52312 1.65735 5.07819 8.62747 4.37349 2.69792 1.17232 4.74201 2.19157 4.16746 1.4566 4.78254 9.7007 1.47672 2.75536 6.70557 4.76213 0.164385 1.33463 4.73456 3.78417 3.89387 1.34022 1.23272 9.53839 1.48417 1.16275 6.97916 4.8785 3.71421 5.17406 4.62522 0.61246 0.281977 1.60068 3.29975 5.69896 1.5935 4.33447 10.591 4.61805 1.64717 1.70069 6.09114 1.52099 3.59201 0.211178 4.03078 8.87123 2.62065 3.473 7.47879 3.56336 0.689149 9.17233 0.12759 3.42594 7.28102 6.00755 0.916153 2.00179 3.59808 1.47393 3.39423 2.65537 4.25778
0.0179941 0.0361115 0.00751698 5.43651 0.0361116 2.47346 0.0179941 3.10936 0.00751711 3.18298 4.45119 -0.00852567 2.3525 1.624 2.41059 7.69004 1.76754 4.95545 8.52052 4.59473 2.53633 1.15996 4.69434 2.26089 4.1504 1.39375 4.63874 9.71307 1.52439 2.68604 6.72262 4.82498 0.308191 1.222 4.60821 3.84994 4.01452 1.3273 1.23412 9.65102 1.61052 1.09698 6.85851 4.89142 3.71281 5.16351 4.68177 0.67256 0.37534 1.49581 3.16733 5.70952 1.53696 4.27437 10.4977 4.72292 1.7796 1.77698 5.94498 1.64153 3.54423 0.138377 4.02972 9.00213 2.81283 3.45524 7.54203 3.58385 0.842461 9.09604 0.273752 3.3054 7.3288 6.08035 0.917211 1.87089 3.4059 1.49169 3.331 2.63488 4.10447
0.0179942 0.0361115 0.00751698 5.46244 0.0361116 2.47346 0.0179943 3.10936 0.00751711 3.19812 4.45119 4.92337 2.36367 1.624 2.41059 7.72675 1.76754 0.0235597 8.56121 4.59473 2.53633 1.16542 4.69434 2.26089 4.17017 1.39375 4.63874 9.75945 1.52439 2.68604 6.7547 4.82498 0.308191 1.22776 4.60821 3.84994 4.03364 1.3273 1.23412 9.69712 1.61052 1.09698 6.89124 4.89142 3.71281 5.18813 4.68177 0.67256 0.37705 1.49581 3.16733 5.73675 1.53696 4.27437 10.5478 4.72292 1.7796 1.7854 5.94498 1.64153 3.5611 0.138377 4.02972 9.04512 2.81283 3.45524 7.57803 3.58385 0.842461 9.13948 0.273752 3.3054 7.36378 6.08035 0.917211 1.87976 3.4059 1.49169 3.34685 2.63488 4.10447
0.0179931 -0.0543348 -0.0265353 5.2291 -0.0543348 2.47346 0.0179931 3.10936 -0.0265353 3.0386 4.66107 4.91566 2.31377 1.58202 2.44844 7.41961 1.55766 0.0312701 8.14444 4.63671 2.49849 1.1422 4.70358 2.19463 4.06117 1.52202 4.71634 9.31601 1.51514 2.75229 6.39703 4.69671 0.230586 1.23657 4.69444 3.74008 3.91798 1.47616 1.25397 9.22164 1.52429 1.20685 6.54022 4.74257 3.69295 4.89419 4.6967 0.645109 0.402419 1.5277 3.21477 5.56402 1.52203 4.30182 10.0558 4.69103 1.73215 1.84713 5.93458 1.52119 3.36365 0.277635 4.01673 8.60752 2.75073 3.42852 7.1806 3.48327 0.862902 8.61108 0.28415 3.42574 7.09456 5.94109 0.930202 1.85069 3.468 1.51841 3.27761 2.73546 4.08403
0.0179943 -0.0198483 0.00198036 5.46244 -0.0198481 2.47346 0.0179944 3.10936 0.00198035 3.15157 4.77959 4.86797 2.36602 1.54835 2.50439 7.77331 1.43913 0.0789599 8.55886 4.67038 2.44254 1.18918 4.61902 2.18382 4.21157 1.6239 4.79215 9.73569 1.59971 2.7631 6.71331 4.59483 0.154776 1.26073 4.61422 3.7689 4.00701 1.57452 1.35761 9.66414 1.60451 1.17803 6.91787 4.64421 3.58932 5.21354 4.78829 0.616034 0.391154 1.579 3.20698 5.71134 1.43044 4.33089 10.5337 4.63973 1.73994 1.7947 5.87528 1.42793 3.32387 0.493103 3.98816 9.09632 2.81503 3.46075 7.43181 3.30752 0.794045 9.13018 0.343445 3.51899 7.60101 5.72563 0.95877 1.82856 3.4037 1.48618 3.49306 2.91121 4.15288
0.0179945 -0.0179654 0.00877881 5.48837 -0.0179642 2.47346 0.0179944 3.10936 0.00877885 3.21275 4.74008 -0.0102773 2.42475 1.44689 2.52034 7.76398 1.47865 4.9572 8.55198 4.77184 2.42659 1.2278 4.7028 2.18761 4.30974 1.53363 4.73999 9.74893 1.51593 2.75932 6.66699 4.6851 0.206937 1.29252 4.7946 3.77094 4.18845 1.53554 1.33637 9.6842 1.42413 1.17599 6.78827 4.68319 3.61056 5.14002 4.75182 0.660878 0.298919 1.45832 3.23408 5.83671 1.46691 4.28605 10.6778 4.76041 1.71285 2.12842 5.80357 1.53758 3.50211 0.379263 4.06132 9.10281 2.80918 3.3243 7.41954 3.33597 0.710526 8.84831 0.415161 3.40935 7.47461 5.83947 0.885604 1.87392 3.40955 1.62263 3.55719 2.88276 4.2364
0.0179949 0.005318 0.0412515 5.48836 0.00531677 2.47346 0.0179936 3.10936 0.0412529 3.25956 4.66256 -0.0407003 2.32241 1.49561 2.47566 7.71717 1.55617 4.98763 8.65432 4.72312 2.47126 1.17563 4.64183 2.15542 4.29309 1.58018 4.73819 9.8011 1.5769 2.79151 6.68363 4.63854 0.208738 1.30608 4.58497 3.73981 4.03018 1.56583 1.36214 9.67065 1.63375 1.20711 6.94655 4.6529 3.58479 5.19201 4.82874 0.55134 0.360065 1.48302 3.09683 5.78472 1.38999 4.39559 10.6167 4.7357 1.8501 1.98309 5.72052 1.44606 3.41569 0.42481 3.97141 9.19778 2.89309 3.44889 7.36522 3.43409 0.896102 8.99364 0.498213 3.50087 7.56104 5.79392 0.975515 1.77895 3.32564 1.49804 3.61151 2.78464 4.05082
0.017995 0.005318 0.0412515 5.51429 0.00531677 2.47346 0.0179938 3.10936 0.0412529 3.27493 4.66256 4.82372 2.33333 1.49561 2.47566 7.75365 1.55617 0.123204 8.69525 4.72312 2.47126 1.18112 4.64183 2.15542 4.31336 1.58018 4.73819 9.84746 1.5769 2.79151 6.71523 4.63854 0.208738 1.31219 4.58497 3.73981 4.0492 1.56583 1.36214 9.71639 1.63375 1.20711 6.97938 4.6529 3.58479 5.21653 4.82874 0.55134 0.361686 1.48302 3.09683 5.81205 1.38999 4.39559 10.6669 4.7357 1.8501 1.9924 5.72052 1.44606 3.43179 0.42481 3.97141 9.24129 2.89309 3.44889 7.40004 3.43409 0.896102 9.03618 0.498213 3.50087 7.59679 5.79392 0.975515 1.78729 3.32564 1.49804 3.62854 2.78464 4.05082
0.0179941 0.00365 0.0412418 5.51429 0.00365005 2.47346 0.017997 3.10936 0.0412433 3.18038 4.56299 4.89616 2.47023 1.63523 2.49806 7.8482 1.65573 0.0507686 8.55835 4.5835 2.44887 1.18957 4.65675 2.29042 4.26175 1.53863 4.70705 9.83901 1.56198 2.65651 6.76683 4.6801 0.239876 1.25658 4.58707 3.8804 4.13458 1.599 1.35503 9.772 1.63166 1.06653 6.894 4.61973 3.5919 5.34097 4.62964 0.729997 0.288671 1.77649 3.1408 5.68761 1.5891 4.21693 10.7399 4.44224 1.80612 1.73926 5.999 1.69135 3.57478 0.295363 4.02661 8.94859 2.68756 3.32915 7.69357 3.50109 0.859936 9.28933 0.219722 3.25558 7.4538 5.92337 0.920317 2.07999 3.53116 1.61777 3.33501 2.71764 4.08699
0.0179949 0.00246019 -0.0174438 5.51429 0.00245667 2.47346 0.0179952 3.10937 -0.0174426 3.34878 4.52266 4.90337 2.41457 1.67039 2.50462 7.6798 1.69607 0.0435521 8.614 4.54834 2.4423 1.26548 4.71477 2.18951 4.30446 1.54362 4.73985 9.76311 1.50396 2.75742 6.72412 4.67511 0.207079 1.39866 4.60616 3.74993 4.1156 1.56451 1.27633 9.62993 1.61257 1.197 6.91298 4.65422 3.6706 5.22749 4.64464 0.619804 0.249751 1.61878 3.16408 5.80109 1.57409 4.32713 10.7788 4.59995 1.78285 1.82547 6.07137 1.56751 3.5613 0.20032 4.09412 8.93629 2.6706 3.48402 7.52642 3.46647 1.00346 9.20311 0.147364 3.37942 7.46729 6.0184 0.852813 2.09229 3.54813 1.4629 3.50216 2.75225 3.94347
0.017995 0.00246019 -0.0174438 5.54021 0.00245667 2.47346 0.0179953 3.10937 -0.0174426 3.3645 4.52266 4.90337 2.42588 1.67039 2.50462 7.71594 1.69607 0.0435521 8.65455 4.54834 2.4423 1.27136 4.71477 2.18951 4.32468 1.54362 4.73985 9.80907 1.50396 2.75742 6.75575 4.67511 0.207079 1.40517 4.60616 3.74993 4.13493 1.56451 1.27633 9.67527 1.61257 1.197 6.9455 4.65422 3.6706 5.25206 4.64464 0.619804 0.250844 1.61878 3.16408 5.82837 1.57409 4.32713 10.8296 4.59995 1.78285 1.83399 6.07137 1.56751 3.57801 0.20032 4.09412 8.97836 2.6706 3.48402 7.56183 3.46647 1.00346 9.24644 0.147364 3.37942 7.50243 6.0184 0.852813 2.10208 3.54813 1.4629 3.5186 2.75225 3.94347
0.0179964 -0.012294 0.0282364 5.54022 -0.0122849 2.47346 0.0179989 3.10936 0.028238 3.20153 4.635 4.82759 2.40672 1.48347 2.42022 7.87889 1.58372 0.119347 8.67372 4.73526 2.5267 1.17373 4.75553 2.16461 4.35408 1.52738 4.62494 9.9067 1.46319 2.78232 6.72635 4.69136 0.321985 1.27335 4.87136 3.71135 4.17432 1.49294 1.27617 9.80709 1.34737 1.23557 6.90611 4.72578 3.67076 5.22291 4.70517 0.655723 0.336596 1.5115 3.29138 5.85753 1.51357 4.2912 10.7438 4.70721 1.65555 1.90279 6.0096 1.37032 3.61401 0.35768 3.95804 9.10974 2.71906 3.36299 7.43226 3.38424 0.913764 9.17764 0.209129 3.57661 7.46642 5.86105 0.988873 1.97069 3.49967 1.58394 3.64818 2.8345 4.03317
0.0179931 -0.0517037 -0.0226053 5.2291 -0.0517037 2.47346 0.0179931 3.10936 -0.0226053 3.0392 4.65367 4.93872 2.32874 1.5808 2.4445 7.41901 1.56506 0.00820559 8.12947 4.63793 2.50243 1.13418 4.69993 2.20437 4.0726 1.52187 4.71562 9.32402 1.5188 2.74256 6.38561 4.69686 0.231306 1.25529 4.6913 3.74201 3.91151 1.47794 1.24915 9.20292 1.52743 1.20492 6.5467 4.74079 3.69778 4.90332 4.68601 0.63718 0.40548 1.52701 3.1823 5.55489 1.53271 4.30975 10.0527 4.69172 1.76463 1.84307 5.9098 1.5175 3.38732 0.272153 4.0141 8.6226 2.76195 3.4295 7.17077 3.48944 0.860433 8.61514 0.308925 3.42943 7.07089 5.94658 0.932824 1.83561 3.45677 1.51742 3.28744 2.72929 4.0865
0.0179955 0.0395978 -0.0117843 5.5402 0.0395798 2.47346 0.017994 3.10936 -0.0117881 3.19118 4.64991 5.091 2.53963 1.60842 2.57391 7.88924 1.56882 -0.144068 8.54083 4.61031 2.37301 1.25688 4.63514 2.20161 4.31405 1.6407 4.7648 9.82355 1.58359 2.74533 6.76639 4.57802 0.182125 1.35573 4.59007 3.77874 4.14976 1.63365 1.32932 9.72467 1.62865 1.1682 6.93069 4.58507 3.61761 5.29782 4.67352 0.682834 0.230835 1.59238 3.22123 5.78262 1.54519 4.26408 10.8496 4.62634 1.72569 2.06709 5.81675 1.62795 3.49556 0.376505 4.12185 9.01628 2.89645 3.38292 7.52893 3.45893 0.790033 9.01334 0.401977 3.319 7.58486 5.84224 0.825077 2.06415 3.32229 1.564 3.55151 2.7598 4.1569
0.0179957 0.0395978 -0.0117843 5.56613 0.0395798 2.47346 0.0179941 3.10936 -0.0117881 3.20608 4.64991 0.120505 2.55146 1.60842 2.57391 7.92619 1.56882 4.82643 8.58084 4.61031 2.37301 1.26269 4.63514 2.20161 4.33422 1.6407 4.7648 9.86958 1.58359 2.74533 6.79807 4.57802 0.182125 1.36201 4.59007 3.77874 4.16916 1.63365 1.32932 9.77025 1.62865 1.1682 6.96314 4.58507 3.61761 5.3226 4.67352 0.682834 0.231834 1.59238 3.22123 5.80968 1.54519 4.26408 10.9004 4.62634 1.72569 2.07671 5.81675 1.62795 3.51189 0.376505 4.12185 9.05853 2.89645 3.38292 7.56419 3.45893 0.790033 9.05557 0.401977 3.319 7.62039 5.84224 0.825077 2.07376 3.32229 1.564 3.5681 2.7598 4.1569
0.0180173 0.0408936 0.030912 5.56615 0.0409029 2.47346 0.0179861 3.10937 0.0309238 3.26965 4.65281 -0.129192 2.5032 1.55268 2.39142 7.86265 1.5659 5.07613 8.62908 4.66606 2.55551 1.2407 4.62208 2.22803 4.33468 1.57391 4.68259 9.89159 1.59666 2.7189 6.79759 4.64481 0.264332 1.38253 4.64458 3.81535 4.15455 1.49128 1.29471 9.74977 1.57413 1.13158 6.97772 4.72746 3.65222 5.36133 4.66908 0.769711 0.288015 1.63587 3.11663 5.77095 1.54962 4.17723 10.8443 4.58285 1.8303 2.07099 5.80705 1.63216 3.57304 0.469845 3.94988 9.14223 2.84327 3.41304 7.60744 3.44308 0.910358 9.06129 0.411696 3.31477 7.55923 5.74887 0.997055 1.99007 3.37547 1.53388 3.52484 2.77563 4.03656
0.018006 0.00770262 0.0211806 5.56616 0.00772279 2.47343 0.0179809 3.10937 0.0212115 3.29174 4.63585 -0.0855247 2.46136 1.62014 2.3849 7.84054 1.58287 5.03246 8.67094 4.59855 2.56203 1.27504 4.7687 2.20949 4.3598 1.47696 4.63262 9.85724 1.45003 2.73744 6.77248 4.7418 0.314282 1.43035 4.70052 3.77033 4.2236 1.58193 1.27465 9.70194 1.51824 1.17662 6.90868 4.63683 3.67224 5.21601 4.78676 0.598398 0.278929 1.43667 3.06701 5.91626 1.432 4.34854 10.8533 4.78204 1.87992 2.01568 5.93952 1.45921 3.71143 0.161022 3.86845 9.20168 2.73499 3.42786 7.52008 3.55707 1.08227 9.11659 0.279223 3.48771 7.42084 6.05768 1.07844 1.93064 3.48373 1.5191 3.6122 2.66162 3.86467
0.0180062 0.00770262 0.0211806 5.59209 0.00772279 2.47343 0.0179809 3.10937 0.0212115 3.30703 4.63585 4.81905 2.47278 1.62014 2.3849 7.87709 1.58287 0.127884 8.71137 4.59855 2.56203 1.28092 4.7687 2.20949 4.38009 1.47696 4.63262 9.90322 1.45003 2.73744 6.80404 4.7418 0.314282 1.43695 4.70052 3.77033 4.24326 1.58193 1.27465 9.74719 1.51824 1.17662 6.94088 4.63683 3.67224 5.2403 4.78676 0.598398 0.280148 1.43667 3.06701 5.94382 1.432 4.34854 10.904 4.78204 1.87992 2.02501 5.93952 1.45921 3.72869 0.161022 3.86845 9.2446 2.73499 3.42786 7.55513 3.55707 1.08227 9.15911 0.279223 3.48771 7.45544 6.05768 1.07844 1.93958 3.48373 1.5191 3.629 2.66162 3.86467
0.0179779 0.0769798 -0.0498237 5.59199 0.0768157 2.47342 0.0178193 3.10939 -0.04981 3.28588 4.64654 5.04871 2.5492 1.65063 2.51511 7.89821 1.57208 -0.101783 8.63486 4.5681 2.43184 1.27134 4.69641 2.20892 4.43488 1.69018 4.77587 9.91285 1.52237 2.738 6.74933 4.52855 0.171074 1.37165 4.78347 3.79225 4.34842 1.44596 1.25162 9.81251 1.43535 1.15463 6.83582 4.77283 3.69532 5.25079 4.46838 0.636472 0.230763 1.73664 3.16988 5.93342 1.75044 4.31048 10.9535 4.48202 1.77698 1.92279 5.97677 1.50227 3.81341 0.392487 4.07271 8.98544 2.69904 3.29965 7.74451 3.34893 0.71635 9.26138 0.24195 3.44462 7.37075 5.82626 0.874242 2.19883 3.51982 1.64733 3.43971 2.86982 4.23059
0.0180139 0.0960689 -0.0589455 5.59205 0.0962351 2.47343 0.0180345 3.10934 -0.0589511 3.3401 4.45539 4.85872 2.4599 1.63484 2.34612 7.84411 1.76353 0.088211 8.72404 4.58376 2.60093 1.27441 4.57946 2.1803 4.44314 1.61492 4.76173 9.90976 1.63914 2.76662 6.741 4.60394 0.185152 1.44877 4.512 3.72105 4.25474 1.61452 1.20632 9.73522 1.70669 1.22588 6.92936 4.60415 3.7405 5.30651 4.49519 0.767812 0.252201 1.63321 3.12072 5.87769 1.72355 4.17909 10.932 4.58543 1.82616 2.09117 5.83009 1.50022 3.79395 0.291831 3.95979 9.16537 2.80199 3.49077 7.59219 3.43623 0.853448 9.09308 0.388443 3.44657 7.39022 5.92713 0.987004 2.01879 3.41667 1.4562 3.59217 2.78276 4.09351
0.0180141 6.12231 -0.0589455 5.61797 0.0962351 2.47343 0.0180348 3.10934 -0.0589511 3.35555 4.45539 4.85872 2.47126 1.63484 2.34612 7.88051 1.76353 0.088211 8.76454 4.58376 2.60093 1.28026 4.57946 2.1803 4.46373 1.61492 4.76173 9.95577 1.63914 2.76662 6.77227 4.60394 0.185152 1.45543 4.512 3.72105 4.27444 1.61452 1.20632 9.78041 1.70669 1.22588 6.9615 4.60415 3.7405 5.33111 4.49519 0.767812 0.25329 1.63321 3.12072 5.90495 1.72355 4.17909 10.9827 4.58543 1.82616 2.10082 5.83009 1.50022 3.81151 0.291831 3.95979 9.20791 2.80199 3.49077 7.62742 3.43623 0.853448 9.13529 0.388443 3.44657 7.42451 5.92713 0.987004 2.0281 3.41667 1.4562 3.6088 2.78276 4.09351
0.0181708 6.12175 -0.0396404 5.61807 0.0970386 2.47344 0.0180084 3.10946 -0.0395737 3.40027 4.69436 4.72496 2.57779 1.64326 2.36564 7.8357 1.52447 0.222064 8.65834 4.57534 2.58107 1.27845 4.64103 2.17846 4.51091 1.67606 4.54119 9.95748 1.57756 2.76858 6.725 4.54283 0.405712 1.46357 4.74427 3.67395 4.29509 1.52985 1.04401 9.77262 1.47441 1.27298 6.94105 4.68899 3.903 5.22401 4.78433 0.712014 0.217242 1.69082 3.20293 6.01199 1.43455 4.23486 11.0186 4.52792 1.74434 2.06859 5.85932 1.43006 3.6381 0.490998 3.8414 9.24111 2.87866 3.40687 7.44611 3.34854 1.15515 9.16733 0.359112 3.51656 7.59765 5.72787 1.10564 1.99435 3.33971 1.54019 3.78996 2.87027 3.79159
0.0186838 6.1091 -0.0381442 5.61803 0.110076 2.47327 0.0178266 3.10968 -0.0385423 3.29054 4.59377 5.00088 2.73253 1.7235 2.46358 7.94532 1.62505 -0.0535649 8.5036 4.4951 2.4831 1.38059 4.67829 2.31812 4.48859 1.52513 4.72343 9.85532 1.54027 2.62873 6.74736 4.69354 0.22349 1.47374 4.64398 3.86991 4.30833 1.49427 1.23247 9.76204 1.57449 1.0769 6.92793 4.72463 3.71445 5.29943 4.71181 0.612037 0.116799 1.65663 3.10825 5.93649 1.50672 4.33474 11.1191 4.56287 1.83884 2.12765 5.92759 1.56111 3.74386 0.337905 3.93107 9.10176 2.78366 3.32651 7.39182 3.39448 0.814866 9.10893 0.29073 3.38563 7.49183 5.88078 1.0162 2.13356 3.43479 1.62009 3.84404 2.82398 4.13201
0.0179931 -0.0766888 -0.0263053 5.2291 -0.0766888 2.47346 0.0179931 3.10936 -0.0263053 3.04066 4.68265 4.96986 2.34823 1.59122 2.4401 7.41754 1.53608 -0.0229368 8.10998 4.62751 2.50683 1.1549 4.69295 2.17789 4.07467 1.4764 4.66564 9.30331 1.52578 2.76904 6.38354 4.74233 0.281284 1.20567 4.69429 3.72465 3.96145 1.44183 1.20642 9.25254 1.52444 1.22228 6.49676 4.7769 3.74051 4.81276 4.70568 0.759197 0.347171 1.5319 3.24651 5.64545 1.51305 4.18773 10.111 4.68683 1.70042 1.90276 5.88348 1.531 3.36766 0.26563 3.97098 8.577 2.74174 3.41283 7.1918 3.4554 0.885758 8.55544 0.335249 3.41593 7.09055 5.9531 0.975947 1.8812 3.47699 1.5341 3.2664 2.76333 4.06117
0.0186871 0.109912 -0.0381442 5.64395 0.110076 2.47327 11.2697 3.10968 4.98528 3.30569 4.59377 -0.0229447 2.7451 1.7235 2.46358 7.98202 1.62505 4.97026 8.54288 4.4951 2.4831 1.3869 4.67829 2.31812 4.50929 1.52513 4.72343 9.90087 1.54027 2.62873 6.77852 4.69354 0.22349 1.48048 4.64398 3.86991 4.32819 1.49427 1.23247 9.80715 1.57449 1.0769 6.95992 4.72463 3.71445 5.32388 4.71181 0.612037 0.117257 1.65663 3.10825 5.96389 1.50672 4.33474 11.1705 4.56287 1.83884 2.13742 5.92759 1.56111 3.76111 0.337905 3.93107 9.14382 2.78366 3.32651 7.42595 3.39448 0.814866 9.15102 0.29073 3.38563 7.52643 5.88078 1.0162 2.14335 3.43479 1.62009 3.86175 2.82398 4.13201
0.0185332 0.081496 0.0138156 5.64375 0.0806396 2.47331 11.2688 3.11055 4.93338 3.35457 4.61532 0.0413861 2.77868 1.74397 2.36588 7.93431 1.60261 4.90455 8.50968 4.47596 2.58135 1.36267 4.68561 2.25155 4.52961 1.52837 4.66052 9.92484 1.53371 2.69591 6.75825 4.68908 0.286155 1.4572 4.60519 3.86949 4.36581 1.40726 1.30775 9.83149 1.61496 1.07827 6.9215 4.81042 3.63891 5.26494 4.73582 0.677462 0.128674 1.61943 3.19366 6.02289 1.48177 4.26917 11.1582 4.59856 1.75453 2.14068 5.92105 1.63838 3.72561 0.364903 3.99656 9.05134 2.71926 3.19176 7.56019 3.44457 0.707664 9.14505 0.298345 3.30972 7.56304 5.85258 0.949706 2.23515 3.49972 1.75516 3.72711 2.77255 4.23892
0.0165865 0.0205881 0.0649305 5.64457 0.0258589 2.47455 11.273 3.10753 4.88174 3.32118 4.69878 -0.0876702 2.67573 1.72559 2.35454 7.96743 1.52317 5.034 8.61087 4.49249 2.59243 1.41669 4.73377 2.18917 4.53133 1.52433 4.61668 9.87204 1.48018 2.75797 6.75603 4.69853 0.330575 1.52119 4.6657 3.72906 4.30169 1.48409 1.33058 9.76792 1.55137 1.21619 6.98513 4.73604 3.61659 5.31391 4.539 0.625922 0.137487 1.55894 3.15913 5.97372 1.68384 4.32311 11.1505 4.65691 1.78839 2.02645 6.05212 1.5427 3.90691 0.246261 3.85431 9.20769 2.70684 3.50087 7.7356 3.6296 1.03152 9.2631 0.160383 3.40116 7.38093 5.97654 1.09204 2.07674 3.50348 1.4483 3.5511 2.59313 3.91522
11.3203 6.19321 0.0649305 5.6705 0.0258589 2.47455 0.0211637 3.10753 4.88174 3.3364 4.69878 4.73119 2.68798 1.72559 2.35454 8.00407 1.52317 0.215144 8.65047 4.49249 2.59243 1.42313 4.73377 2.18917 4.55213 1.52433 4.61668 9.91745 1.48018 2.75797 6.78708 4.69853 0.330575 1.52812 4.6657 3.72906 4.32144 1.48409 1.33058 9.81285 1.55137 1.21619 7.01724 4.73604 3.61659 5.33832 4.539 0.625922 0.138038 1.55894 3.15913 6.00117 1.68384 4.32311 11.2018 4.65691 1.78839 2.03571 6.05212 1.5427 3.92483 0.246261 3.85431 9.25004 2.70684 3.50087 7.77117 3.6296 1.03152 9.3057 0.160383 3.40116 7.41486 5.97654 1.09204 2.08623 3.50348 1.4483 3.56738 2.59313 3.91522
11.3257 6.18792 0.0109575 5.66483 0.0296087 2.47127 0.0140226 3.11189 4.93234 3.29064 4.65978 4.97468 2.81544 1.56248 2.49035 8.04752 1.55471 -0.0253678 8.5279 4.65915 2.45699 1.41546 4.56372 2.25807 4.50829 1.64609 4.66818 9.92275 1.65686 2.69012 6.83292 4.57159 0.278214 1.48806 4.63996 3.7423 4.24997 1.53758 1.31179 9.8501 1.5826 1.20402 7.09165 4.684 3.63512 5.36013 4.59433 0.591788 0.0725864 1.56356 3.21311 5.98127 1.61652 4.35478 11.2624 4.6588 1.7331 2.37165 5.66449 1.5747 3.73851 0.422556 4.00181 9.4212 3.0907 3.17357 7.58087 3.35626 0.866581 8.96816 0.556538 3.37095 7.6044 5.79069 0.949304 1.91764 3.13165 1.76953 3.75871 2.86079 4.0802
11.3205 6.09364 -0.00266934 5.6688 0.116942 2.4804 0.0144028 3.10646 4.94809 3.25543 4.60445 4.95976 2.72603 1.5034 2.37897 8.08792 1.61744 -0.0152203 8.61136 4.71522 2.56875 1.20181 4.54859 2.24767 4.51245 1.71937 4.69439 10.1347 1.67164 2.6983 6.83046 4.5008 0.254506 1.35253 4.52096 3.71847 4.28473 1.74458 1.31329 9.98001 1.69649 1.2284 7.05494 4.47067 3.63606 5.38101 4.70416 0.570156 0.253447 1.59977 3.30834 5.96046 1.51428 4.37626 11.0831 4.61822 1.63634 2.1553 5.69011 1.52021 3.58847 0.554324 4.07308 9.39157 2.97694 3.30085 7.48409 3.24583 0.937968 9.18701 0.525813 3.42572 7.75511 5.66896 0.877528 1.94923 3.24373 1.6407 3.86022 2.97449 4.00786
11.3724 6.09364 4.94357 5.69472 6.09392 2.4804 11.3699 3.10646 0.00184776 3.27028 4.60445 0.0135177 2.73845 1.5034 2.37897 8.12494 1.61744 4.93102 8.65078 4.71522 2.56875 1.20724 4.54859 2.24767 4.53306 1.71937 4.69439 10.1811 1.67164 2.6983 6.86171 4.5008 0.254506 1.35865 4.52096 3.71847 4.30431 1.74458 1.31329 10.0257 1.69649 1.2284 7.08722 4.47067 3.63606 5.40561 4.70416 0.570156 0.254527 1.59977 3.30834 5.98772 1.51428 4.37626 11.1338 4.61822 1.63634 2.16511 5.69011 1.52021 3.60485 0.554324 4.07308 9.43456 2.97694 3.30085 7.51834 3.24583 0.937968 9.22907 0.525813 3.42572 7.7906 5.66896 0.877528 1.95809 3.24373 1.6407 3.87785 2.97449 4.00786
11.3682 6.14459 4.92958 5.69746 6.1441 2.46792 11.367 3.10405 0.0271658 3.34316 4.52267 -0.137572 2.64195 1.62574 2.37218 8.05518 1.69326 5.07988 8.75529 4.59805 2.57501 1.39608 4.67609 2.22337 4.4992 1.59145 4.58634 9.98518 1.54357 2.73007 6.89585 4.62461 0.358483 1.44337 4.75825 3.78107 4.19648 1.49265 1.18206 9.95195 1.4503 1.16399 7.19904 4.73107 3.76103 5.38913 4.60835 0.634646 0.110809 1.7562 3.19585 6.00493 1.60515 4.31159 11.2734 4.46593 1.75919 1.98064 5.97836 1.56003 3.77845 0.406071 3.8404 9.09736 2.77856 3.42894 7.68698 3.43781 1.06267 9.40293 0.239714 3.39276 7.6126 5.81309 1.10667 2.27752 3.43793 1.51728 3.71096 2.77791 3.87776
11.3672 6.13908 4.9638 5.69062 6.15431 2.47062 11.3892 3.10348 -0.0180072 3.37124 4.532 -0.146329 2.59219 1.79147 2.48044 8.02263 1.68745 5.10955 8.79676 4.43011 2.45377 1.35494 4.71956 2.27009 4.44151 1.45621 4.70216 10.0394 1.49501 2.66972 6.95037 4.76773 0.243175 1.51994 4.55856 3.84575 4.12492 1.33425 1.21046 9.87407 1.65464 1.09755 7.27037 4.88552 3.74021 5.43186 4.51114 0.596483 0.211889 1.61006 3.16373 5.9576 1.70514 4.34914 11.18 4.60264 1.78906 1.93559 6.05448 1.72511 3.91192 0.235899 3.93846 9.05286 2.52818 3.37896 7.80001 3.53396 0.833884 9.4435 0.16053 3.2193 7.47708 5.98397 1.01556 2.33319 3.68977 1.57277 3.59652 2.68897 4.10911
11.419 6.13908 -0.0165249 5.71652 0.0838435 2.47062 0.0337612 3.10348 4.96232 3.38655 4.532 4.834 2.60394 1.79147 2.48044 8.05918 1.68745 0.129225 8.83685 4.43011 2.45377 1.36104 4.71956 2.27009 4.46171 1.45621 4.70216 10.0851 1.49501 2.66972 6.98202 4.76773 0.243175 1.5268 4.55856 3.84575 4.14367 1.33425 1.21046 9.91907 1.65464 1.09755 7.30348 4.88552 3.74021 5.45658 4.51114 0.596483 0.212775 1.61006 3.16373 5.98472 1.70514 4.34914 11.231 4.60264 1.78906 1.94434 6.05448 1.72511 3.9297 0.235899 3.93846 9.09412 2.52818 3.37896 7.83555 3.53396 0.833884 9.48654 0.16053 3.2193 7.51114 5.98397 1.01556 2.34376 3.68977 1.57277 3.61286 2.68897 4.10911
0.0179932 -0.0766888 -0.0263053 5.25503 -0.0766888 2.47346 0.0179932 3.10936 -0.0263053 3.0557 4.68265 4.96986 2.35982 1.59122 2.4401 7.45436 1.53608 -0.0229368 8.15024 4.62751 2.50683 1.16056 4.69295 2.17789 4.09485 1.4764 4.66564 9.3495 1.52578 2.76904 6.41521 4.74233 0.281284 1.21158 4.69429 3.72465 3.98107 1.44183 1.20642 9.29848 1.52444 1.22228 6.52899 4.7769 3.74051 4.83661 4.70568 0.759197 0.348809 1.5319 3.24651 5.67345 1.51305 4.18773 10.1613 4.68683 1.70042 1.91214 5.88348 1.531 3.38432 0.26563 3.97098 8.61959 2.74174 3.41283 7.2275 3.4554 0.885758 8.59792 0.335249 3.41593 7.12574 5.9531 0.975947 1.89047 3.47699 1.5341 3.28256 2.76333 4.06117