-31251.0900562967
-31250.0443999508
-31251.0900562967
-31249.9938873487
-31249.9494749916
-31249.6073056206
-31249.5218768853
-31249.5091865908
-31249.9557643555
-31249.9316480068
-31249.3010270941
-31249.6470886434
-31249.5927211426
-31251.0730198022
-31249.9644536262
-31249.7480052741
-31249.9376517874
-31249.9106823266
-31249.9645944451
-31250.0558371616
-31250.0047222359
-31249.696401224
-31251.0509287958
-31249.5812161754
-31249.5434073375
-31249.7491790365
-31249.8495944338
-31249.7754690295
-31249.651740291
-31249.4667089621
-31249.4142710196
-31249.5680698184
-31249.7534197925
-31250.4382234408
-31249.7564459689
-31249.512245693
-31249.5336652589
-31249.5359474765
-31249.3904130428
-31249.4246631778
-31249.3982428424
-31249.6932106909
-31249.3990410879
-31249.3115785749
-31250.3837085905
-31248.9279616615
-31249.3969049954
-31249.3646602023
-31249.3899241906
-31249.1961456307
-31249.2012085782
-31248.9895456176
-31249.3766034086
-31249.3709332394
-31249.345374416
-31250.04881622
-31248.9216362425
-31248.8740306311
-31249.177464345
-31249.3282727503
-31249.2840632539
-31249.2878557026
-31248.9026161752
-31248.8791169804
-31249.1477046303
-31249.5146842399
-31249.9299626706
-31249.4039629445
-31249.4805316577
-31249.1664090457
-31249.1514210231
-31248.8485927622
-31249.3090068283
-31249.2840037971
-31249.0839448531
-31249.0678051093
-31249.022068783
-31249.9491962111
-31249.0937233949
-31249.0935355004
-31249.0127978692
-31249.1345578651
-31249.1076399698
-31249.1335443776
-31248.7958847469
-31248.8008713665
-31249.2775634101
-31250.2206605109
-31251.0900562967
-31248.8719752203
-31248.8457403304
-31249.1054101341
-31249.2936597517
-31249.277438782
-31248.9658047858
-31249.2464880256
-31249.2582008877
-31248.7679849293
-31248.6747703408
-31249.7268477537
-31248.6789838854
-31248.7376892867
-31248.4720735266
-31248.4823203761
-31248.6794052534
-31248.9379159888
-31248.9383146354
-31249.2410080639
-31249.2457413456
-31249.6666393324
-31249.7037333276
-31250.0742803479
-31250.02321277
-31249.9790632747
-31249.8490439478
-31249.8339545629
-31249.97620404