-2.545390813805e-05 1.51695008095449e-05 -1.92832637409469e-05 -8.22752586280403e-06 8.48463604601665e-06 5.91353421389039e-06 -2.87963405198141e-05 1.28555091606313e-06 -2.26256961227111e-05 -0.0187628727301246 -0.0133293632282922 0.00363862331282508 0.0378646166817234 -0.0385565001847486 0.056753216291439 0.0188060672409043 0.0133247352449943 -0.00349052784729461 -0.0379582047884128 0.0384659974002577 -0.0567791844199434 0.0794341911035407 0.0139852513056676 -0.0326812753881569 -0.0280725753540706 -0.00547079047839825 -0.0126392794965495 -0.0804096671386495 -0.0135769603347259 0.0329563832841944 0.0276887098505341 0.00531755280920353 0.0125814297053266 -0.0280844024224983 0.000830723001959994 -0.019707752653431 -0.0217978013327664 0.0254706202999588 0.0372830334472965 0.0279396493893496 -0.000900142751427403 0.0192536960698775 0.0218409958435461 -0.0254891322331501 -0.0370572907064358 0.073624272293485 0.00655450990063947 0.00803289345411207 0.0631326341573106 0.0030138455676184 -0.0273518955105256 -0.0732596900536896 -0.0065694222912658 -0.00813573752739712 -0.0615069264688572 -0.00305729718858133 0.0275825233448673 -0.0398682763394994 -0.0792714403575672 -0.0266908652294859 0.0113802109293572 0.0114938536303372 -0.00507586923698366 0.0205287054684289 -0.0617241845736719 0.0143845434201968 -0.0257400717719656 -0.0182203702435459 0.00261738166510453 0.0396600170910972 0.0791035474079293 0.0267070631710283 -0.0113056489762256 -0.0113429299527914 0.00504270202334923 -0.0207112536985099 0.0616514223918227 -0.0144483067456335 0.0256397988005127 0.0182717922801885 -0.00273925189194732
2.26256961227111e-05 -7.45619531316615e-06 1.05415175117177e-05 -1.13128480613555e-05 -5.91353421389039e-06 4.3965841329359e-05 3.85665274818939e-05 6.9419749467409e-06 1.54266109927576e-05 0.128138830219692 -0.294678866073472 0.541373001543788 -0.347524521800445 -0.078840780800686 0.112649227232047 -0.128281012151008 0.294712033287106 -0.541406168757422 0.347671845935426 0.0791009763060972 -0.112988869784071 1.59897285738262 -0.981223219034054 2.01059211964596 0.346163123380334 0.335873059627798 -1.01522192700099 -1.59770401862846 0.981175910760343 -2.01030055669819 -0.346258768368489 -0.335999300727756 1.01501443908314 0.0414286780414168 0.220560685118035 -1.72822266070397 -0.0629336308755041 -0.0493294168613576 0.410584907996273 -0.0414780431965937 -0.22058588191599 1.72836509974547 0.0629344022060537 0.0492898218931429 -0.410386676045016 -0.182769859058894 -1.05345138303269 -0.335831150667935 0.286153606618507 -0.00836585114137242 -0.144927868073293 0.182786057000436 1.05341024540338 0.335844777507645 -0.287760288153403 0.00827200592449981 0.14466510146605 -0.30423282337147 0.599886137039317 -0.382216398821325 -0.698413330348227 0.647127304992621 -0.0599292983846645 0.777930568040946 -0.379621642852343 -0.0916903764271034 -0.772745169865913 1.30594078203262 -0.164805827668011 0.304398402329458 -0.59979357737336 0.382184774268789 0.698489692072641 -0.647060970565353 0.0600611959086526 -0.777751105133063 0.379572277697166 0.0916723787142785 0.772734885458585 -1.30596340772875 0.164851079060256
-2.545390813805e-05 1.51695008095449e-05 -1.92832637409469e-05 -8.22752586280403e-06 8.48463604601665e-06 5.91353421389039e-06 -2.87963405198141e-05 1.28555091606313e-06 -2.26256961227111e-05 -0.0187628727301246 -0.0133293632282922 0.00363862331282508 0.0378646166817234 -0.0385565001847486 0.056753216291439 0.0188060672409043 0.0133247352449943 -0.00349052784729461 -0.0379582047884128 0.0384659974002577 -0.0567791844199434 0.0794341911035407 0.0139852513056676 -0.0326812753881569 -0.0280725753540706 -0.00547079047839825 -0.0126392794965495 -0.0804096671386495 -0.0135769603347259 0.0329563832841944 0.0276887098505341 0.00531755280920353 0.0125814297053266 -0.0280844024224983 0.000830723001959994 -0.019707752653431 -0.0217978013327664 0.0254706202999588 0.0372830334472965 0.0279396493893496 -0.000900142751427403 0.0192536960698775 0.0218409958435461 -0.0254891322331501 -0.0370572907064358 0.073624272293485 0.00655450990063947 0.00803289345411207 0.0631326341573106 0.0030138455676184 -0.0273518955105256 -0.0732596900536896 -0.0065694222912658 -0.00813573752739712 -0.0615069264688572 -0.00305729718858133 0.0275825233448673 -0.0398682763394994 -0.0792714403575672 -0.0266908652294859 0.0113802109293572 0.0114938536303372 -0.00507586923698366 0.0205287054684289 -0.0617241845736719 0.0143845434201968 -0.0257400717719656 -0.0182203702435459 0.00261738166510453 0.0396600170910972 0.0791035474079293 0.0267070631710283 -0.0113056489762256 -0.0113429299527914 0.00504270202334923 -0.0207112536985099 0.0616514223918227 -0.0144483067456335 0.0256397988005127 0.0182717922801885 -0.00273925189194732
-2.3397026672349e-05 -7.71330549637878e-06 3.34243238176414e-06 -2.57110183212626e-07 8.74174622922928e-06 3.52240951001297e-05 -5.14220366425252e-06 -7.71330549637878e-07 1.31126193438439e-05 0.125722765828043 -0.290491055409304 0.530388483186394 -0.336093917275178 -0.0806624064487475 0.0947643857775936 -0.125853120690931 0.290569474015184 -0.530325491191507 0.336265923987747 0.0809418852178996 -0.0949489908891402 1.44600643943118 -0.978733364019823 1.93585738847118 0.529567273261213 0.320327663730397 -1.0657222236367 -1.44624529479139 0.978566499510918 -1.93600008462286 -0.529598897813748 -0.320472673873729 1.06547539786082 0.0552658338815539 0.219495477628985 -1.72847231469187 -0.088252041947001 -0.0505509473418008 0.419794851869132 -0.0553200841302118 -0.219530958834268 1.72846537271692 0.0882358440054586 0.0505203512299985 -0.419633129563892 0.0897507372049474 -1.04968986105229 -0.399209582160397 0.0262095549665119 -0.0234137388342578 -0.217991640167374 -0.0897432810096342 1.04964306699895 0.399188499125373 -0.0259457599185357 0.023393427129784 0.218183444364051 -0.348398182203002 0.570720586296409 -0.369734213646718 -0.649477806287551 0.665566218891898 -0.052123176112146 0.827456159972095 -0.396551577086345 -0.103996441126209 -0.800907733784108 1.32005947352338 -0.161324298677128 0.348393811329887 -0.570693846837355 0.369713130611695 0.649543626494454 -0.665461317937147 0.0522830986461043 -0.827453588870262 0.396563918375139 0.103967387675506 0.800900277588795 -1.32011655198405 0.161348981254717
-2.15972553898606e-05 -6.42775458031565e-06 -8.1761038261615e-05 6.42775458031565e-06 -1.05415175117177e-05 -6.58202069024322e-05 -3.11103321687277e-05 2.44254674051995e-05 -8.7931682658718e-05 -0.0305760572080119 0.515473264348047 -0.156811757851564 -0.695404884094456 0.184865307052077 -0.21341430757564 0.0304084213685573 -0.515431612498366 0.158190639764133 0.695709045441197 -0.185068166986631 0.213468814934481 0.893739936534859 0.897384473381898 2.63392953360628 0.513660637556398 -1.28328089025555 -0.486238036745489 -0.895380556613939 -0.896754553433027 -2.63396835724394 -0.5137984486146 1.28296515895056 0.486563538237436 -0.0261920714740534 -0.292837700051486 -1.44128666779795 0.270072650209474 0.464819215822778 1.35786932573608 0.0259218486714969 0.29279244865924 1.44080792863681 -0.270048481852252 -0.464719714181875 -1.35843445391878 -1.02242589722443 -0.134235426884029 -0.147784362208785 0.516961675198665 0.356768918437855 0.740875848436342 1.02256550805391 0.134273222080962 0.147696173415943 -0.515030006392188 -0.356888474673049 -0.740685072680398 -0.639328896025599 -0.671630676783334 0.00449788554512168 0.415541992328612 -1.48932256332756 0.173100716398816 0.223144642459322 0.146487498444661 -0.00961412108086972 0.742714443356496 -2.55510906451007 0.571698376323167 0.639187228314649 0.671402877161008 -0.00469354639454648 -0.415471801248595 1.48944623332569 -0.173052893904739 -0.223111475245688 -0.146658990936864 0.00931227372577809 -0.742813430777032 2.55525150355157 -0.57179222154004
-1.92832637409469e-05 -1.18270684277808e-05 -7.19908512995352e-05 -9.51307677886716e-06 -1.0284407328505e-06 -5.03935959096747e-05 -1.72263822752459e-05 1.54266109927576e-06 -5.65642403067777e-05 -0.230347584242024 0.223153127095368 -0.621284132037188 -0.679988300398844 -0.193546632388251 0.233847110945731 0.230022596970443 -0.222476670203336 0.622370165451078 0.680343626672044 0.193096689567629 -0.233310521993366 -0.764011394052364 -2.50365848863721 2.42861805345458 -1.51822740434469 0.965900737665498 -0.612252365521294 0.764004452077417 2.50382998112941 -2.42882554137244 1.5182824259239 -0.965986612466691 0.61179985159884 -0.257126381154168 -0.329925843979907 -2.06160766508882 1.26007566777987 -0.173191219183307 -1.00675297467615 0.257179860072276 0.329911188699464 2.06137138083045 -1.26010986343424 0.173175535462131 1.00686327494475 1.42140639421158 0.722003960988535 -0.448988941842376 -1.13295987897918 0.0761061568920365 -0.468618275889928 -1.42141307907635 -0.721996504793222 0.448782996585623 1.13298044779384 -0.076140609656587 0.468509261172245 0.656161385500164 1.08709785004863 -0.742141858978481 0.945860541545173 0.145424862057443 0.195598628760471 0.46457933202184 -0.278540831203765 -0.883214874074867 -0.524649526786905 0.813832405584024 -0.526962489995086 -0.656236718783845 -1.08739841185281 0.742119747502725 -0.945851285578577 -0.145504823324422 -0.195676018925618 -0.464573161377443 0.278634676420637 0.883049295116878 0.524643870362875 -0.813789211073244 0.52688432849939
-2.59681285044752e-05 8.22752586280403e-06 -6.42775458031565e-05 -2.82821201533888e-06 2.10830350234353e-05 -3.88236376651065e-05 -2.3397026672349e-05 1.90261535577343e-05 -4.96222653600368e-05 -0.199916537177344 0.217022848997029 -0.601456051818013 -0.666438079523172 -0.200173390250373 0.225025403449522 0.199858944496304 -0.217020792115564 0.60252820128201 0.666514955467953 0.200181103555869 -0.224679333142918 -0.852987201165108 -2.51228530661454 2.38928276652489 -1.36764311224072 0.967688681879559 -0.636281111913797 0.852418730550025 2.51247942480286 -2.38964040678973 1.36778812238405 -0.967759130069759 0.635801601422105 -0.253337091273981 -0.327852764572664 -2.06138115101741 1.23712832681796 -0.171791254235715 -0.997654359512624 0.25328824033917 0.327874361828054 2.06116312158205 -1.23727307985111 0.171829049432647 0.997904270610706 1.61649080260563 0.735686593608562 -0.502809302273909 -1.3134121468466 0.0510199163159806 -0.504219294518647 -1.61648308930013 -0.735678880303065 0.502673548097173 1.3145377752287 -0.0509155295815963 0.504203353687288 0.62650398297677 1.07325889443721 -0.738265922966551 0.976390061810023 0.16395427874121 0.197632627419866 0.50384982718537 -0.302520469551273 -0.881649587279469 -0.554104840706294 0.827685245145337 -0.519595769025678 -0.626763921371998 -1.0735975085485 0.738341256250232 -0.976399831996985 -0.163960963605974 -0.197764782054037 -0.504024404999772 0.302526897305854 0.881550342748748 0.554065245738079 -0.827699643315597 0.519443559797216
1.95403739241596e-05 -2.03117044737974e-05 5.06507060928873e-05 -3.62525358329802e-05 -7.45619531316615e-06 7.40477327652362e-05 2.05688146570101e-05 1.00272971452924e-05 6.1192223604605e-05 -0.621875228348393 0.0782923647798935 -0.0667355191546692 0.0347368713029418 -0.216237634497498 -0.421945578551706 0.621689851906297 -0.0780717642426971 0.0670157692543709 -0.0345442957757156 0.21643869466077 0.420737932021156 -2.50438482490478 2.98529579576429 2.48406386446439 -2.47154182721138 0.0866309622418454 1.75234370965225 2.50542457848569 -2.98538064212475 -2.48392142542289 2.47156033914457 -0.0867618313251006 -1.75224317957061 0.542225321801137 0.374756089745227 -0.798886847744057 0.468604134829851 -0.940635034181559 -0.815422117846828 -0.542223522029855 -0.374812653985534 0.79901591705603 -0.46858562289666 0.940614208256719 0.815447571754966 -0.684126231687468 0.251419563527581 0.412892214780423 -0.405809086343098 0.194688715822081 -0.571356419779494 0.684125203246735 -0.251430105045093 -0.412807368419963 0.404519421664104 -0.194777161725106 0.571212438076895 0.539259812947963 0.291299152715142 0.33797879202831 0.358705729447996 0.828754309287135 -0.20097428847108 -0.617026130293003 1.59511774729553 1.21436224853522 -0.76975652109625 0.72680780765168 -0.248041135720167 -0.539124058771227 -0.291297352943859 -0.337912200490858 -0.358699815913782 -0.828873608412146 0.201106443105252 0.617096064262837 -1.59502518762957 -1.21420438288272 0.769745979578738 -0.726794437922153 0.248087415553145
-6.42775458031565e-06 4.11376293140201e-06 7.7647275330213e-05 -5.11649264593125e-05 2.10830350234353e-05 0.000114414031529618 4.37087311461464e-06 1.38839498934818e-05 9.61592085215221e-05 -0.183328816597198 -0.143632804080451 -0.874883989918412 0.245709917688978 -0.157854853864857 0.328804072250551 0.183472798299797 0.143351525540016 0.873356755430129 -0.245330423058556 0.158116077811001 -0.329575402800188 1.8092697039868 -1.64399927821773 2.92314969337996 -0.44828497416074 0.73275090953664 0.987251167279474 -1.80803557510738 1.64388769239821 -2.92209271341678 0.448298343890267 -0.732640866378225 -0.98721157231126 -0.138639467212279 -0.82642103437448 -1.09468619999597 -0.415433234721113 0.0616676203333651 -0.49310159308635 0.138510397900306 0.826428490569794 1.09477670278046 0.415431434949831 -0.0617586373382224 0.493656436861723 0.360157373542414 0.283449321711477 0.356938868268958 1.16539561414237 0.0485025505121458 0.697403144438385 -0.360098752420642 -0.283462948551187 -0.356775603302619 -1.16696244359887 -0.048688955394975 -0.697555867887213 0.664230274379925 1.53139890192049 -1.27542951659078 0.162660757409468 -0.769797144505197 -0.329037271186724 1.46987320640826 -1.25556158429321 -1.01350983029098 -0.247071316109089 -0.413837351813913 0.132499161816795 -0.664083207355128 -1.53101503641696 1.27541357575942 -0.162749974643043 0.769623595131529 0.329168911600529 -1.46977576164882 1.25541040350548 1.01357745026916 0.246837345842365 0.414044582621582 -0.13242434275348
-2.62252386876878e-05 2.05688146570101e-06 6.45346559863691e-05 3.18816627183656e-05 -1.54266109927576e-06 8.43321400937413e-05 -8.9988564124419e-06 4.13947394972328e-05 7.94470466127014e-05 -0.127350016177595 -0.147434435249433 -0.849336236563489 0.267985429742154 -0.163275507857529 0.312971227168317 0.127734653011681 0.147445490987311 0.847717727960165 -0.268322758302528 0.163094759398731 -0.313115723091282 1.59465469185556 -1.64898155934802 2.841960725276 -0.284000051723918 0.769699185525393 0.923549034066348 -1.59559931466869 1.64852184634044 -2.84138454135542 0.283635469484123 -0.769447474656028 -0.923541063650668 -0.141679795128768 -0.824020139483641 -1.10323048560449 -0.441290548736624 0.0628192168439744 -0.485661595714726 0.141780325210404 0.824028367009504 1.10312507042937 0.4412342416065 -0.0628726957620827 0.485997124503819 0.563190857470845 0.319820899559285 0.282581060622768 0.843024695785985 0.00668075100059687 0.628398627916864 -0.562914464023891 -0.319732453656259 -0.282570776215439 -0.842375749683557 -0.00660953147984697 -0.628173656506553 0.629693434799523 1.50232282552134 -1.2611825271186 0.188568979241254 -0.753971241397911 -0.323056631215015 1.50023457661329 -1.26500601265316 -1.01229575600585 -0.311935587350337 -0.377331819560651 0.117032698745639 -0.629504715925045 -1.50195078708623 1.26119898217033 -0.188595975810492 0.75394475904904 0.323212697096226 -1.50022506353651 1.26499572824583 1.01244282303065 0.312060285789195 0.377218433969854 -0.11686711978765
6.17064439710302e-06 -2.57110183212626e-06 -5.39931384746514e-06 2.77678997869636e-05 -6.17064439710302e-06 1.25983989774187e-05 2.23685859394984e-05 1.59408313591828e-05 1.05415175117177e-05 -0.446618643063339 0.447847372628912 -0.302040959059582 0.173787200587994 -1.74933423495774 0.699300874700677 0.446073826585112 -0.447647598016556 0.302238933900656 -0.173534975498263 1.7493134090329 -0.699391120374985 1.29258930732857 2.62819469096972 1.51550923548777 1.37191911169773 -1.26166743692414 0.917858414381303 -1.29406640533113 -2.62831090477253 -1.51637158304226 -1.37207749157059 1.2617569112679 -0.917768425817178 -0.249218700359281 -0.653071949538681 -2.06337761159006 1.19838465041984 0.290294366119147 -0.727237181657645 0.249398163267163 0.653043924528711 2.06355681738776 -1.19848672316257 -0.290187922503297 0.727193730036682 0.997383108269334 0.172370780588676 -0.761429493592543 2.06290015797983 0.918274932878107 -0.363618333718639 -0.997325258478111 -0.172337870485225 0.761225605217255 -2.0609126962636 -0.918118095666347 0.364160064874668 0.310378528080801 -0.692611381953851 0.730156924898208 0.0461165680119326 -0.490206018203009 0.157121318512152 -0.45069872456074 -0.0267410017152124 0.0671628362791686 1.2836308172149 -1.78898473897206 1.43347051822828 -0.310561333421065 0.692493368379757 -0.730086476708007 -0.0461371368265896 0.490208589304841 -0.15719639468565 0.450438529055329 0.0267952519638702 -0.0670821036816398 -1.2834179299832 1.78861835696098 -1.43337333057903
1.54266109927576e-06 -1.15699582445682e-05 7.71330549637878e-07 2.15972553898606e-05 -4.37087311461464e-06 3.93378580315318e-05 1.97974841073722e-05 3.31672136344287e-05 -5.39931384746514e-06 0.394105173693076 0.306763301794648 0.159494959723571 0.0444417522784856 -0.0382942477978717 -0.125301876458124 -0.394046295461121 -0.30674581830219 -0.159518356750243 -0.0445371401564575 0.0383245867994908 0.125389551030599 -1.18736285108588 -1.66980182776422 0.944189068244108 3.30325830291931 1.58910496855092 1.65169407178092 1.18734973846653 1.66978511560231 -0.944342048803119 -3.30293280142736 -1.58917361696984 -1.65175526400452 0.667097567143113 -0.0194845810144024 -2.11897511760796 -0.331331208241347 0.50210353482099 0.926523284665751 -0.666989066645797 0.0194437004952716 2.11931964525346 0.331280814645438 -0.502034629291889 -0.926461835331964 1.62096503401389 -0.0201227284891362 -0.0134574040995321 -0.32017108362882 0.809854396829358 -0.0335328243149571 -1.62113061297188 0.0200990743522806 0.0134759160327234 0.31974453783487 -0.809869052109801 0.033433579784237 1.28219511395184 0.413758161877483 -0.523429024747195 -0.853541273609932 -0.919837905681857 -1.49529009067993 0.242848281349822 -1.66888934372399 -1.07619920649243 0.170953075038441 0.533512629022611 0.949609979346963 -1.28204701848631 -0.413672544186473 0.523355491234796 0.853523018786923 0.919810394892253 1.49523481199054 -0.242712527173085 1.66883303659387 1.07614058537066 -0.171003725744534 -0.533483318461725 -0.949632862153269
1.0284407328505e-06 2.82821201533888e-06 -9.77018696207978e-06 3.34243238176414e-06 1.79977128248838e-06 3.47098747337045e-05 1.95403739241596e-05 2.28828063059237e-05 -1.59408313591828e-05 0.404089790547956 0.309591513809987 0.156333275800605 0.0337107445617402 -0.0467068929925888 -0.130707875170352 -0.403842450551705 -0.309552433062139 -0.156283396425062 -0.0341923119348975 0.0466832388557333 0.130873454128341 -1.32941982685342 -1.64800222666017 0.893508280259784 3.40403186789895 1.59625366008496 1.61049422180256 1.32920976783373 1.64815417877845 -0.893900373289184 -3.40365802969256 -1.59634236309817 -1.61061429225812 0.673614796067186 -0.0205410467572231 -2.11661253213441 -0.352119337884638 0.499975690944723 0.934141459394341 -0.673674445629692 0.0205081366537719 2.11682799046795 0.352065601856346 -0.499910899178553 -0.934123461681517 1.79860580202788 -0.00204299751580753 -0.052346861971541 -0.535696780029002 0.802683336709375 -0.0893434746747386 -1.79878089406265 0.00202679957426513 0.0523561179381366 0.53650487733484 -0.802665853216916 0.0893853836346022 1.23775953231775 0.389996810075522 -0.508664215366027 -0.822150691341502 -0.898031619713044 -1.48153958097153 0.269897815284889 -1.67495457294598 -1.07492805374663 0.128138058889142 0.559908845982135 0.938634716956165 -1.23802435580646 -0.390284259260354 0.508720265385967 0.822138092942525 0.898048331874953 1.48151721238559 -0.270036140563457 1.67507952849502 1.07491365557637 -0.128194880239632 -0.559902418227555 -0.938651172007891
6.9419749467409e-06 5.14220366425252e-07 -1.97974841073722e-05 2.57110183212626e-06 1.05415175117177e-05 3.34243238176414e-06 -3.34243238176414e-06 2.39112470387742e-05 -2.3397026672349e-05 0.0193107745305507 -0.01172216747303 0.0117687044161915 0.0274244005821915 -0.044392644233492 0.055996283912061 -0.0191143423505762 0.0117095690740526 -0.0114210914484881 -0.027173461043376 0.0441877274174715 -0.0565184746941658 -0.063835573398214 0.0156155869774188 -0.0931391923095066 0.159598832237589 0.000608836913847498 -0.0700103315582484 0.0640991113360069 -0.0151250207478491 0.0937338881632774 -0.159051701767712 -0.000720936953728203 0.0698144135986404 -0.0171973288245429 0.000383608393353238 -0.0189407929769077 -0.0512672563122312 0.0241159067446115 0.0488738176167048 0.0170672310718373 -0.000443000845675354 0.0186561720040913 0.0511417865428234 -0.0241125643122297 -0.0486383046888821 0.307833394377179 0.0117851594679171 -0.0626616083016651 -0.156501425860426 0.00302130176293157 -0.0885803716509635 -0.308094875433506 -0.0117802743744361 0.0627749938924619 0.155998261231879 -0.00302515841567976 0.0887546923551817 -0.0843347111955734 -0.103224339246022 -0.017740345531488 0.0508121712879448 0.0336585511945481 -0.00117525064746491 0.0633727750684312 -0.0849594889407801 0.00638558851026878 -0.0656731398776346 0.00921148653395875 -0.00562299970686013 0.0844169864542014 0.103173945650112 0.0176686117903716 -0.0510011472726061 -0.0337223145199848 0.00111508686459316 -0.0632269935945497 0.0847098349528806 -0.00658073513932716 0.0653905757862839 -0.00898908622547982 0.00552709760852182
1.0284407328505e-05 1.74834924584586e-05 -2.03117044737974e-05 1.18270684277808e-05 1.28555091606313e-06 9.25596659565453e-06 2.08259248402227e-05 4.62798329782727e-06 -1.15699582445682e-05 -0.0622643730686016 -0.27361537142396 -0.0838739697472564 -0.769469071911418 0.309503839237512 0.0256176873247564 0.0622224641087379 0.27354492323376 0.0835983476308524 0.768997788945589 -0.309431334165846 -0.0252880720698778 -1.97423905373134 0.806456942868386 0.852568368676655 -0.00818535979275716 0.654496082843495 -2.538753000205 1.97412232570816 -0.806452571995272 -0.852270120864128 0.00816273409663444 -0.654470114714991 2.53891472251024 0.498584210633176 0.449156834792014 -1.75820145095638 0.263149444306107 -0.508254638844169 0.521092921622525 -0.498623034270841 -0.449149635706884 1.75792171507705 -0.26301600412102 0.508291405600369 -0.521216077400284 1.00950328230598 -0.0997654359512624 -0.698563739805407 -0.255355920432566 -0.0465798805620818 -0.492507925673312 -1.00949479766993 0.0997878045372019 0.698578137975667 0.25594444564194 0.0465824516639139 0.492554719726657 0.902569614446747 -0.0795123525992374 0.773034161711844 0.941970721583349 -0.337850494046887 0.962871208376703 -0.771710044268299 0.634300849282693 -0.184903616469375 -0.746668026643756 0.651662214404126 -0.255217595153998 -0.902659345900688 0.0795488622452536 -0.773032876160928 -0.942006202788633 0.33775870571148 -0.96296299671211 0.771625712128206 -0.634348928886954 0.184828026075511 0.746796067514996 -0.651684068769699 0.255234050205723
-5.39931384746514e-05 2.59681285044752e-05 1.74834924584586e-05 -2.49396877716247e-05 2.82821201533888e-05 5.14220366425252e-06 -1.49123906263323e-05 1.28555091606313e-06 -1.95403739241596e-05 0.0564490549446984 -0.736632501972601 -0.00440378321806586 0.184046154008361 0.734637584061054 -0.375669859336365 -0.0562063429317457 0.736434527131527 0.00459121654162786 -0.184100918477385 -0.734576134727266 0.375614580646974 -0.33102653267424 -1.03499061476784 2.09518805478767 1.2356635701042 3.12089390661934 0.203780903231029 0.33080078993338 1.03507083314501 -2.09515643023514 -1.23557435287063 -3.12079851874137 -0.203471342570441 0.203760591526556 -0.312576563037086 -1.12647093217526 -0.382566325780677 -0.60622004640276 0.799195894184279 -0.203685258242874 0.312626956632995 1.12639148512865 0.382730876297933 0.606380483157085 -0.799765907460461 1.73448869297905 0.281989192981012 -0.188081498333883 0.102775681976316 -0.261617581834526 -0.144994202500562 -1.7345905086116 -0.28204498589077 0.188072756587654 -0.102686207632558 0.261588785494007 0.145124043143084 -0.206616314331498 1.17054913065469 -0.251827597388339 -0.348896718848251 -0.408448836594142 -0.813428485486197 -0.136503395810148 0.963260987414454 0.073948231124333 -0.397202322960056 1.6545767911551 0.605436117454145 0.20648518813806 -1.17067845707684 0.251925813478326 0.348790018122218 0.4086455258843 0.813311500352835 0.136640692647984 -0.963504470757956 -0.0739232914365613 0.397117733709779 -1.65462101410661 -0.60539009473135
1.69692720920333e-05 -2.90534507030267e-05 -2.82821201533888e-06 2.7510789603751e-05 -4.11376293140201e-06 9.77018696207978e-06 4.01091885811696e-05 2.545390813805e-05 -2.05688146570101e-06 -0.502908032584263 -0.190118325205294 -0.367140743228652 0.344765986644757 0.379606473351533 -0.0260498895427368 0.502831670859848 0.190050448116926 0.367156684060012 -0.34486548828566 -0.379440380173178 0.0262188109331075 0.810031802855775 -2.89088236538678 2.77607521238703 -1.15376934876768 -0.727040492367487 -1.45286999577204 -0.808867607946188 2.89075818116829 -2.7761078653803 1.15415167161012 0.727394275979588 1.45271778654358 0.445660393410506 0.563686051683712 -1.31959616097323 0.147781791106953 -0.398934988484726 1.24909192075303 -0.445608457153497 -0.563635658087802 1.31994840192423 -0.147832698923229 0.398891279753579 -1.24917573867276 -0.10447029519387 -0.0604172935124021 0.190365922311727 1.14177670138191 -0.417538452901258 0.873281936366814 0.10428543297214 0.060395439146829 -0.190320670919482 -1.14335690056794 0.417659808907735 -0.87357452775531 0.703060596909795 2.07295856545729 -0.327760976237257 0.785447955577716 -0.361231579887877 0.375634121020898 0.0730956537567999 -0.135980433697494 -0.404212946325714 0.126928869697493 -1.46369921957878 0.330215350046205 -0.702932298928372 -2.07299738909496 0.327714953514462 -0.785485750774649 0.361075514006666 -0.375617151748806 -0.0729287892478949 0.135921298355355 0.404104445828399 -0.126877190550667 1.46352618442547 -0.330103250006324
2.05688146570101e-06 -1.54266109927576e-05 2.57110183212626e-07 -6.68486476352827e-06 -4.11376293140201e-06 4.88509348103989e-06 2.03117044737974e-05 1.56837211759702e-05 -3.85665274818939e-06 -0.469447456230788 -0.181664542381263 -0.360901964632998 0.3388519382105 0.373406518393544 -0.0308658203844925 0.469579096644593 0.181571211384756 0.360971127272282 -0.338847053117019 -0.373404204401895 0.0310326848933975 0.611517544617673 -2.83327554328707 2.70701464584557 -0.964880267348327 -0.740523093264974 -1.49386441471401 -0.611285888342598 2.83323929075124 -2.70723190395038 0.964146474885438 0.741085136125477 1.493827905068 0.444083279546679 0.561422453630708 -1.32659701415193 0.132758328881473 -0.400750957708756 1.24269141985213 -0.444111818777016 -0.561362546958019 1.32692200142351 -0.132668083207165 0.400722932698786 -1.24287859606551 0.138079738343425 -0.0921318346116795 0.133015696174869 0.860742415621351 -0.395289423196954 0.820950243896082 -0.137731868265538 0.0920729563797238 -0.133095657441848 -0.861037835221862 0.395363470929719 -0.821056687511932 0.642313173922148 2.02421947357659 -0.298667159235466 0.820040588067876 -0.345982889141902 0.380420998411951 0.0996289104439765 -0.130725101552627 -0.408750426839051 0.101628456338821 -1.44417015850268 0.314595906416038 -0.642340941821935 -2.0242423563829 0.298647361751358 -0.820015134159738 0.345920925587748 -0.380435396582211 -0.0995926579081435 0.130689877457527 0.408674579335003 -0.101426367734816 1.44381226112765 -0.31442081438127
4.11376293140201e-06 1.10557378781429e-05 1.64550517256081e-05 -6.68486476352827e-06 2.69965692373257e-05 2.10830350234353e-05 1.4398170259907e-05 2.87963405198141e-05 9.25596659565453e-06 0.16401187142225 0.226561893904401 -0.108524151452584 -0.591578392799351 -0.0120561536010232 -0.0457586706369007 -0.164058665475595 -0.226695076979305 0.108323348399495 0.591630843276726 0.0120309568030684 0.0460535760170455 0.201386693204953 -0.00406336933549234 1.26659546780578 -0.915836757010702 0.789069609618449 -0.766276534766467 -0.201582354054378 0.00378054813395845 -1.26689114451647 0.915918775159147 -0.789046983922327 0.766485565345419 0.56894472626096 0.653547346267441 -1.70364292718884 -0.0499032867902882 -0.552248762293682 0.990629595086888 -0.568978921915327 -0.653566372420999 1.70361155974649 0.0498780899923334 0.552266502896323 -0.990823970385397 -1.80316745089844 -0.151103140453694 0.0493001063004714 0.918753157818883 -0.45359018568115 0.0565626976456784 1.80315562383001 0.151094398707465 -0.0492895647829596 -0.918273904437374 0.453668090066663 -0.0564079173153844 0.504303626658741 0.211142481996773 0.174340244592084 -0.523013534691123 -0.942069966114069 0.108165225636819 -0.195780148549819 -0.0763776652455091 -0.0734795192603363 -0.673866764046735 0.472481099282514 -0.0374020754621239 -0.504352477593551 -0.210988730107212 -0.174358756525276 0.523025875979918 0.942073051436268 -0.108208163037415 0.195572660631966 0.0766016082150873 0.0736301858276989 0.673798886958367 -0.472578544041952 0.037318771762763