9.254068233 -0.001461012 0.058657763 -0.000873086 9.186951207 0.363568421 0.027884463 0.289214244 5.118765641
9.278417243 0.037213390 0.043158873 0.022238347 9.137769648 0.344544475 0.020516670 0.274080928 5.093975125
9.486887192 0.232877298 0.171960106 0.139165126 9.162118697 -0.117309739 0.081745620 -0.093318466 5.527844755
10.315535699 0.043799792 0.001247131 0.026174314 6.179152751 0.022982331 0.000592856 0.018282164 5.050032432
9.306219149 0.086898440 0.013105907 0.051929632 9.047889469 0.319951645 0.006230227 0.254517631 5.077847560
8.266524912 0.206307165 0.180152604 0.123287083 9.401454444 -0.195284762 0.085640133 -0.155346646 5.367964564
9.446707356 0.248277851 0.141167173 0.148368342 9.144253982 -0.104731172 0.067107414 -0.083312370 5.509615063
9.277524551 0.275523411 0.003254206 0.164650014 9.063792348 -0.039902650 0.001546970 -0.031742071 5.562578367
8.263383231 0.207535406 0.176875223 0.124021067 9.406116150 -0.189973654 0.084082147 -0.151121725 5.370121391
10.325014471 0.040700628 -0.001451096 0.024322285 6.180417392 0.020521895 -0.000689815 0.016324918 5.035468042
9.192542077 -0.050335460 0.087291854 -0.030079964 9.217027857 0.388084050 0.041496408 0.308716129 5.158711111
8.440657700 0.141764568 0.328452137 0.084717077 9.192366250 -0.364846249 0.156138097 -0.290230741 5.217073059
8.570296630 0.058136145 0.435769801 0.034741574 8.931311245 -0.326301040 0.207154284 -0.259568498 5.137491956
8.432214681 0.147098090 0.318585753 0.087904336 9.207634660 -0.358787319 0.151447860 -0.285410936 5.229145913
8.673770833 0.317036584 -0.332938402 0.189457867 9.217752949 0.208571379 -0.158270757 0.165915988 5.360071930
9.428850271 0.343320010 -0.011678803 0.205164578 7.549025335 -0.043371037 -0.005551817 -0.034501131 5.280142172
8.632400666 0.017840627 0.406389333 0.010661379 8.846097916 -0.216799215 0.193187530 -0.172461131 5.137649482
8.281152228 0.201581856 0.192194025 0.120463285 9.382508729 -0.216683165 0.091364329 -0.172368815 5.357885214
9.868056425 -0.186552184 -0.082666874 -0.111481705 8.990754920 -0.130585438 -0.039297806 -0.103879123 5.106410278
9.904817031 0.193622711 0.044458891 0.115706981 6.471526585 -0.008804295 0.021134667 -0.007003709 5.346368542
9.475443682 0.216366802 -0.004962872 0.129298620 8.365863950 0.186516893 -0.002359228 0.148371913 5.214777581
8.673161251 0.019018130 0.184314398 0.011365043 8.825018060 0.044525805 0.087618548 0.035419735 5.162250840
8.248039106 0.249752747 0.045802834 0.149249724 9.573669736 -0.020553782 0.021773545 -0.016350283 5.396218805
8.356344588 0.301970101 -0.136011715 0.180454289 9.607243540 0.222907379 -0.064656636 0.177320101 5.442883475
8.379233934 0.320955053 -0.174536049 0.191799505 9.565412906 0.254998646 -0.082970160 0.202848313 5.461262049
8.919530419 -0.045448068 0.182146222 -0.027159307 9.012819222 0.274271537 0.086587850 0.218179663 5.236757850
8.707009508 0.317597628 -0.328535592 0.189793142 9.185627995 0.198229136 -0.156177769 0.157688860 5.343760609
9.884511327 -0.216637705 -0.108127587 -0.129460509 8.948911454 -0.125164201 -0.051401205 -0.099566595 5.143889070
10.086867790 0.122924485 0.054505561 0.073458433 6.316657956 0.028655232 0.025910608 0.022794888 5.303629445
8.427978247 0.149708716 0.313548383 0.089464420 9.214983480 -0.355532634 0.149053217 -0.282821874 5.235101726
8.311241369 0.271891477 -0.073136192 0.162479606 9.643071638 0.143190059 -0.034767153 0.113905945 5.413871609
9.818186421 0.234915670 0.012698590 0.140383237 6.566078577 -0.033212335 0.006036599 -0.026420008 5.340583727
8.668109626 0.001561194 0.282636328 0.000932954 8.818993505 -0.048528222 0.134358384 -0.038603609 5.156183270
8.819671368 0.324944084 -0.254647393 0.194183309 9.037181656 0.171885902 -0.121053130 0.136733139 5.384677151
9.501292731 0.334855456 -0.110161016 0.200106245 7.075416795 -0.122030258 -0.052367847 -0.097073582 5.259225742
9.424989191 0.358739830 -0.077025283 0.214379307 7.400117293 -0.089727363 -0.036615932 -0.071377022 5.279501544
9.577704061 0.151513809 0.185868562 0.090543125 9.185078305 -0.141299231 0.088357360 -0.112401815 5.459179907
10.114181313 0.112833221 0.049029446 0.067427996 6.297202586 0.032140053 0.023307397 0.025567021 5.286289097
8.273561551 0.255277102 -0.006312027 0.152551024 9.615414374 0.042235802 -0.003000583 0.033598065 5.388055806
8.647066613 0.319343489 -0.334304946 0.190836451 9.241868960 0.219229534 -0.158920379 0.174394420 5.375067368
9.463266124 0.210071309 -0.021069926 0.125536497 8.430290760 0.200192954 -0.010016126 0.159251053 5.193462077
8.700548082 0.317160345 -0.329646886 0.189531826 9.192248954 0.199983234 -0.156706051 0.159084224 5.346622960
8.785512594 0.330423050 -0.292147172 0.197457485 9.077788909 0.183365586 -0.138879606 0.145865087 5.349239961
9.910438861 -0.251995140 -0.128400507 -0.150589756 8.885676006 -0.112072424 -0.061038454 -0.089152246 5.195626943
9.229005851 -0.026237108 0.068754511 -0.015679031 9.207461972 0.376683148 0.032684210 0.299646850 5.138092157
8.725438199 0.319746475 -0.324516901 0.191077271 9.165225782 0.193905319 -0.154267382 0.154249316 5.336896428
8.654031823 0.007407398 0.377546548 0.004426587 8.830175300 -0.168734601 0.179476377 -0.134226317 5.149461281
8.317084214 0.274917198 -0.080511957 0.164287747 9.642136201 0.154404806 -0.038273411 0.122827140 5.418149504
8.410617422 0.159670341 0.293090613 0.095417387 9.242373454 -0.341259213 0.139328095 -0.271467542 5.257609907
9.444345410 0.323845030 0.040082472 0.193526526 7.652243192 -0.012414123 0.019054225 -0.009875283 5.274258564
9.731578095 0.271057582 -0.017080199 0.161981279 6.681141036 -0.055913601 -0.008119508 -0.044478588 5.315142425
9.748043380 -0.042178556 0.044343930 -0.025205480 9.084844121 -0.148599802 0.021080018 -0.118209330 5.171700327
8.308478129 0.270492223 -0.069575318 0.161643426 9.643128609 0.137616604 -0.033074401 0.109472330 5.411721072
9.688799263 0.285034956 -0.031688705 0.170334017 6.748173499 -0.067880415 -0.015064034 -0.053998042 5.296495234
8.639253230 0.014403123 0.398646594 0.008607161 8.840468810 -0.203108737 0.189506821 -0.161570523 5.140400477
9.269874091 0.021532247 0.050354787 0.012867454 9.159985910 0.352019164 0.023937432 0.280026951 5.102806308
9.675136895 0.036421315 0.104517236 0.021765011 9.133626295 -0.148883909 0.049684932 -0.118435334 5.280853735
9.224609345 0.279382871 -0.027459354 0.166956388 9.045826013 -0.016233220 -0.013053504 -0.012913328 5.587108436
8.902732532 -0.036097050 0.179931813 -0.021571233 8.994747075 0.258589066 0.085535175 0.205704448 5.234811845
10.310689517 0.045299726 0.002641420 0.027070660 6.178916932 0.024205859 0.001255666 0.019255466 5.057405518
9.544157676 0.323511557 -0.095961483 0.193327246 6.993334899 -0.113923232 -0.045617737 -0.090624542 5.257975652
9.352638199 0.157995393 -0.034331111 0.094416455 8.825915810 0.272641914 -0.016320169 0.216883317 5.091259493
9.522680133 0.207845641 0.189217312 0.124206460 9.182515508 -0.127277223 0.089949273 -0.101247479 5.524292642
9.869974014 -0.190548030 -0.086065514 -0.113869582 8.985830283 -0.129989056 -0.040913436 -0.103404709 5.110651077
9.423272021 0.356548815 -0.059103179 0.213069978 7.451338912 -0.074611852 -0.028096203 -0.059352818 5.282300419
9.432468402 0.356896693 -0.094672236 0.213277867 7.323760718 -0.106826497 -0.045004861 -0.084979175 5.272004567
8.300917165 0.266704371 -0.059271082 0.159379844 9.641849161 0.121107026 -0.028176020 0.096339162 5.405351201
9.486557087 0.225449357 0.025009251 0.134726263 8.277940663 0.163891341 0.011888785 0.130373563 5.239674150
9.683914757 0.026390124 0.099037915 0.015770472 9.128554127 -0.148669744 0.047080198 -0.118264968 5.264899328
8.234897312 0.230353347 0.114270985 0.137656838 9.481511880 -0.108557124 0.054321626 -0.086355868 5.388842701
9.435045466 0.334766385 0.012634766 0.200053018 7.595103249 -0.029203725 0.006006258 -0.023231207 5.277243739
9.463852020 0.345511829 -0.111956858 0.206474387 7.173215314 -0.121994764 -0.053221547 -0.097045347 5.262067824
9.530294632 0.201235087 0.191148629 0.120256060 9.185711516 -0.129306615 0.090867374 -0.102861835 5.519004602
9.654750482 0.059554766 0.118099158 0.035589328 9.144142556 -0.149420800 0.056141445 -0.118862424 5.319570408
8.625185253 0.021633364 0.413584940 0.012927880 8.852649649 -0.230431610 0.196608145 -0.183305535 5.135658695
9.908692894 -0.249476039 -0.127353421 -0.149084366 8.891476200 -0.113310477 -0.060540696 -0.090137103 5.191926952
8.381677637 0.173052209 0.262707942 0.103414256 9.279017309 -0.316322280 0.124884918 -0.251630516 5.286629878
8.665583424 0.002016755 0.350026124 0.001205192 8.823711882 -0.128127003 0.166393841 -0.101923468 5.159356591
8.236373168 0.244371024 0.074220357 0.146033661 9.540110159 -0.055425628 0.035282539 -0.044090411 5.397607870
8.373064260 0.316469022 -0.164634544 0.189118698 9.576830194 0.247941345 -0.078263228 0.197234316 5.456029616
10.077590927 0.126314490 0.056116375 0.075484266 6.323345845 0.027343810 0.026676350 0.021751668 5.308671715
9.614051417 0.106744357 0.154789256 0.063789352 9.164070785 -0.148125377 0.073583019 -0.117831931 5.397923826
8.448270029 0.335934175 -0.242662824 0.200750877 9.474377174 0.280624200 -0.115355960 0.223233128 5.482732051
10.406201682 0.000008484 -0.000011184 0.000005070 6.218626560 -0.000009633 -0.000005317 -0.000007663 4.946884764
10.359886727 0.026847409 -0.009009426 0.016043741 6.193006233 0.011094481 -0.004282860 0.008825524 4.982569104
8.461769970 0.128180159 0.351104546 0.076599171 9.151881125 -0.376588145 0.166906497 -0.299571276 5.188219368
8.566867015 0.331380345 -0.316819743 0.198029554 9.329818217 0.258122153 -0.150608342 0.205333024 5.423784244
9.476880983 0.259653901 0.085275101 0.155166554 8.024455544 0.088795272 0.040537693 0.070635556 5.269835259
8.667963763 0.013962854 0.204982194 0.008344061 8.819896490 0.022154945 0.097443512 0.017623989 5.154450857
8.747920472 0.020180106 0.155805241 0.012059428 8.879885985 0.143277336 0.074065993 0.113975373 5.188504579
10.382545152 0.015053913 -0.009031825 0.008996067 6.205551169 0.004793941 -0.004293508 0.003813521 4.955081963
9.357148502 0.162537256 -0.039058114 0.097130626 8.805931260 0.269810448 -0.018567270 0.214630921 5.095689800
8.975496995 -0.072378959 0.176859946 -0.043252936 9.072738857 0.322724604 0.084074884 0.256723486 5.234504242
10.387074830 0.012213344 -0.008075000 0.007298572 6.208101410 0.003504734 -0.003838657 0.002787973 4.951208180
9.297134479 0.072021603 0.022406581 0.043039384 9.078267272 0.327793464 0.010651539 0.260755703 5.080955887
9.658705164 0.055087200 0.115280716 0.032919556 9.142232030 -0.149322969 0.054801627 -0.118784601 5.311933226
9.236902755 -0.019482845 0.065478070 -0.011642752 9.202828123 0.373107014 0.031126670 0.296802079 5.132708548
9.875812560 -0.202021003 -0.096014066 -0.120725716 8.970476351 -0.128146919 -0.045642734 -0.101939311 5.124223336
9.624402513 0.094320037 0.144225901 0.056364703 9.158395987 -0.149118215 0.068561459 -0.118621722 5.378468088
10.030611114 0.143351090 0.061604895 0.085665167 6.358642337 0.019785164 0.029285457 0.015738857 5.328329697
9.145201305 0.285786053 -0.065782085 0.170782865 9.028488447 0.013454046 -0.031271191 0.010702530 5.608982937
10.405962697 0.000041117 -0.000045765 0.000024571 6.218450090 -0.000028272 -0.000021755 -0.000022490 4.946841907
9.098156725 -0.083763266 0.139785961 -0.050056084 9.181290658 0.380749691 0.066450820 0.302881735 5.209960042
10.405604826 0.000108198 -0.000108451 0.000064658 6.218191695 -0.000049226 -0.000051555 -0.000039158 4.946775280
10.334208146 0.037449377 -0.003928031 0.022379370 6.182605854 0.018075444 -0.001867290 0.014378795 5.021232760
8.754304239 0.019008088 0.155847931 0.011359042 8.883723100 0.148250125 0.074086287 0.117931166 5.189791843
9.250942265 -0.005173022 0.059937471 -0.003091346 9.190619461 0.365509940 0.028492805 0.290758699 5.121573335
10.370822203 0.021532795 -0.009779830 0.012867781 6.198859736 0.008080268 -0.004649092 0.006427754 4.967984031
9.688366091 0.021304618 0.096228133 0.012731425 9.125861988 -0.148572077 0.045744496 -0.118187275 5.257038017
8.277223212 0.202732204 0.189343246 0.121150722 9.387255913 -0.211367597 0.090009139 -0.168140345 5.360585990
9.193199211 0.281565122 -0.043249075 0.168260479 9.038621719 -0.003862293 -0.020559551 -0.003072407 5.597505391
8.269893934 0.205094036 0.183330397 0.122562129 9.396738443 -0.200648030 0.087150778 -0.159613061 5.365641210
9.705659727 0.279787463 -0.025756110 0.167198168 6.721013814 -0.063002182 -0.012243824 -0.050117467 5.304100014
9.344846451 0.148306313 -0.024925439 0.088626358 8.866099644 0.279022770 -0.011848943 0.221959211 5.083916751
8.487646446 0.112000449 0.374778838 0.066930339 9.100552266 -0.382756606 0.178160675 -0.304478212 5.160665863
9.459454715 0.305637930 0.072319456 0.182646147 7.754856819 0.016357845 0.034378897 0.013012466 5.274242110
8.821400103 0.000985481 0.162134654 0.000588914 8.925189939 0.194635032 0.077074841 0.154829794 5.209754331
10.105186553 0.116176420 0.050939787 0.069425858 6.303589008 0.031057329 0.024215526 0.024705726 5.292425370
8.538176819 0.333368336 -0.300931039 0.199217557 9.367979900 0.268284660 -0.143055241 0.213417175 5.442153699
8.320139778 0.276553202 -0.084345577 0.165265406 9.641231655 0.160036448 -0.040095820 0.127307042 5.420260558
8.540600146 0.079527966 0.418539781 0.047525111 8.992723082 -0.362728197 0.198963555 -0.288545856 5.138052247
9.491112705 0.230494741 0.174616372 0.137741334 9.164538210 -0.118572269 0.083008344 -0.094322794 5.529002408
9.609480820 0.306811970 -0.065252597 0.183347741 6.882049375 -0.093652288 -0.031019485 -0.074499253 5.265630921
9.467503870 0.289143595 0.084193093 0.172789298 7.854085811 0.043018246 0.040023333 0.034220490 5.275473009
9.313063261 0.097617417 0.006796009 0.058335185 9.023597365 0.313838938 0.003230656 0.249655048 5.076456231
9.740384735 0.267884364 -0.014186065 0.160084996 6.668161831 -0.053587670 -0.006743708 -0.042628338 5.318624627
8.343772769 0.185613882 0.231479065 0.110920985 9.318139297 -0.282652136 0.110039475 -0.224846326 5.315041527
9.855565288 -0.160073447 -0.063015581 -0.095658279 9.017691510 -0.134658485 -0.029956063 -0.107119182 5.085968075
8.296531693 0.264512988 -0.052645467 0.158070296 9.639975116 0.110402988 -0.025026365 0.087824231 5.401323875
9.244227318 -0.012446789 0.062584414 -0.007438076 9.197217350 0.369358463 0.029751097 0.293820152 5.127182632
9.473539526 0.215255622 -0.008083571 0.128634590 8.376798792 0.188970604 -0.003842731 0.150323811 5.211250490
9.003883527 0.304307306 -0.121359846 0.181850979 8.985649972 0.070325603 -0.057691497 0.055943159 5.580247898
8.621481990 0.023656621 0.416934424 0.014136959 8.856277629 -0.237218495 0.198200408 -0.188704419 5.134969351
8.419461929 0.154761755 0.303410718 0.092484065 9.228988779 -0.348672101 0.144234020 -0.277364404 5.246597532
9.093355793 -0.084384831 0.141539570 -0.050427524 9.177412624 0.379240059 0.067284443 0.301680841 5.211946214
9.743475711 -0.037839847 0.049492856 -0.022612711 9.088023807 -0.148501899 0.023527691 -0.118131449 5.176926354
9.624780828 0.302859338 -0.058047896 0.180985688 6.856078833 -0.088474787 -0.027594547 -0.070380614 5.270035925
10.396505533 0.005386211 -0.004203797 0.003218745 6.212982029 0.000948144 -0.001998382 0.000754237 4.946269626
8.691228650 0.024400131 0.163619685 0.014581272 8.841024106 0.082532117 0.077780789 0.065653292 5.175766327
8.741360759 0.322657442 -0.319672649 0.192816835 9.145174160 0.190970619 -0.151964544 0.151914799 5.333374891
8.811437368 0.326921847 -0.264035091 0.195365201 9.045138281 0.175066235 -0.125515812 0.139263054 5.375991281
8.996809218 0.305208000 -0.123886666 0.182389225 8.983563088 0.073986838 -0.058892685 0.058855627 5.574439841
9.327597606 0.120563719 -0.005758130 0.072047663 8.962532222 0.299013842 -0.002737274 0.237861865 5.075998539
9.376787978 0.176734930 -0.052545984 0.105615013 8.736598829 0.260293632 -0.024979073 0.207060410 5.113214182
9.346661749 0.150794972 -0.027212149 0.090113555 8.856088607 0.277328560 -0.012935989 0.220611486 5.085523428
9.449884825 0.204746299 -0.032826760 0.122354325 8.493469508 0.212704264 -0.015605037 0.169203648 5.173218495
8.415087382 0.157236042 0.298265157 0.093962674 9.235756396 -0.345031582 0.141787946 -0.274468415 5.252173694
9.465222672 0.242618541 0.156461980 0.144986395 9.151453242 -0.110496156 0.074378191 -0.087898344 5.518504313
8.842350876 0.319696960 -0.229968659 0.191047681 9.019087609 0.162105958 -0.109321465 0.128953312 5.407229573
8.532286251 0.084901246 0.411979316 0.050736129 9.010001046 -0.369188124 0.195844871 -0.293684650 5.138935134
8.682842574 0.022975781 0.169486496 0.013730095 8.833905126 0.067882381 0.080569727 0.053999606 5.171113236
9.182693548 -0.055542559 0.093166829 -0.033191674 9.217275664 0.389867186 0.044289227 0.310134591 5.163865670
9.920343554 -0.269181589 -0.138976178 -0.160860205 8.828997914 -0.102197386 -0.066065869 -0.081296774 5.226276698
8.365767773 0.178863459 0.248518751 0.106887000 9.296085067 -0.302397655 0.118139724 -0.240553646 5.299274664
9.121188959 0.288387272 -0.076463285 0.172337327 9.022778354 0.022037415 -0.036348772 0.017530494 5.612415644
9.476134157 0.341840395 -0.112957689 0.204280375 7.136221644 -0.123012148 -0.053697317 -0.097854664 5.260876313
9.506943697 0.333332852 -0.108848915 0.199196353 7.063502283 -0.121366129 -0.051744107 -0.096545275 5.258936107
8.665963026 0.006834705 0.241849229 0.004084351 8.817755361 -0.010987649 0.114969197 -0.008740541 5.150458490
8.595057172 0.039906373 0.434106643 0.023847647 8.888455373 -0.284120175 0.206363660 -0.226014134 5.134956066
9.056702543 -0.086347955 0.153196375 -0.051600668 9.146182183 0.366290987 0.072825803 0.291380012 5.223015967
9.802960125 -0.088705000 -0.018166164 -0.053009214 9.055659057 -0.147754953 -0.008635749 -0.117537263 5.114316479
8.338333999 0.187110447 0.227673335 0.111815317 9.323476957 -0.277632522 0.108230324 -0.220853285 5.318803904
8.936176197 -0.054547791 0.182646143 -0.032597210 9.031210396 0.289864924 0.086825500 0.230584012 5.237210557
9.439214741 0.354217534 -0.101695230 0.211676828 7.279318854 -0.113461012 -0.048343420 -0.090256851 5.267888419
9.113093262 0.289338617 -0.079957399 0.172905841 9.020685375 0.024972368 -0.038009788 0.019865214 5.613094957
8.478937415 0.117355878 0.367178291 0.070130690 9.117925976 -0.381766284 0.174547561 -0.303690422 5.168749016
9.417547927 0.194080028 -0.052357540 0.115980269 8.615979285 0.238334600 -0.024889491 0.189592268 5.142889272
9.774454593 -0.065404801 0.012982572 -0.039085250 9.068342045 -0.148974981 0.006171596 -0.118507780 5.143679502
9.478327444 0.237210057 0.166187587 0.141754339 9.157536294 -0.114668570 0.079001506 -0.091217449 5.524674963
8.245953048 0.249123610 0.050202865 0.148873759 9.569136436 -0.025736374 0.023865212 -0.020472972 5.396721188
8.778360553 0.330058683 -0.298593736 0.197239743 9.088805582 0.185043320 -0.141944145 0.147199704 5.343354472
8.453286364 0.133634315 0.342409494 0.079858520 9.168413577 -0.372531859 0.162773082 -0.296344550 5.199342179
9.806635839 -0.091881481 -0.021643743 -0.054907447 9.054310882 -0.147376422 -0.010288905 -0.117236146 5.110469101
9.931126090 0.181963679 0.052151727 0.108739661 6.445567050 -0.001736126 0.024791653 -0.001381067 5.345485251
8.401210822 0.331062856 -0.203113157 0.197839826 9.530435893 0.270884131 -0.096555017 0.215485022 5.476280109
8.660741183 0.004311628 0.364055017 0.002576585 8.826288978 -0.148275502 0.173062833 -0.117951353 5.154987436
9.906845898 -0.246898987 -0.126267592 -0.147544346 8.897044158 -0.114531832 -0.060024519 -0.091108676 5.188169163
8.926199710 0.311114150 -0.157693704 0.185918680 8.978995832 0.116206216 -0.074963722 0.092440627 5.495396853
9.276363176 0.033285222 0.045116559 0.019890913 9.143605182 0.346399213 0.021447306 0.275556349 5.096007479
9.639196228 0.077167291 0.130463481 0.046114395 9.151314016 -0.149608351 0.062019142 -0.119011618 5.349836730
9.838088309 -0.128120307 -0.046332339 -0.076563404 9.038946982 -0.140676317 -0.022025258 -0.111906295 5.082413855
8.238859392 0.246115281 0.066863606 0.147076011 9.549846073 -0.046019318 0.031785320 -0.036607806 5.397743369
9.310802516 0.094098968 0.008822642 0.056232595 9.031823568 0.315895711 0.004194068 0.251291185 5.076834679
8.233451065 0.240302613 0.087825663 0.143602420 9.520250574 -0.073529865 0.041750168 -0.058492111 5.395973766
8.234253647 0.231702920 0.110797998 0.138463330 9.486218266 -0.104112042 0.052670653 -0.082819859 5.389818780
8.941698665 -0.057430565 0.182393507 -0.034319927 9.037289414 0.294911544 0.086705403 0.234598537 5.237083405
9.594292842 0.310686636 -0.072582925 0.185663202 6.907725613 -0.098737401 -0.034504144 -0.078544398 5.262311766
8.676414505 0.020789952 0.177644101 0.012423866 8.828093563 0.053669861 0.084447652 0.042693720 5.165828883
10.224550413 0.071466187 0.022888392 0.042707473 6.216014128 0.037505442 0.010880580 0.029835122 5.176652861
8.487257609 0.335318376 -0.268867968 0.200382882 9.430821052 0.278616380 -0.127813243 0.221635932 5.470668825
8.634610081 0.321093105 -0.334167371 0.191882004 9.253338640 0.224889378 -0.158854979 0.178896757 5.382380799
9.262556383 0.009910686 0.054750632 0.005922526 9.174499985 0.357750198 0.026027109 0.284585919 5.110504307
9.420717997 0.195140295 -0.051057334 0.116613874 8.605851243 0.236182032 -0.024271405 0.187879926 5.145142231
9.889185699 -0.223448749 -0.113182597 -0.133530720 8.938317273 -0.123365870 -0.053804233 -0.098136045 5.153689541
9.431075026 0.357416510 -0.092638512 0.213588504 7.334714738 -0.104830138 -0.044038078 -0.083391096 5.273131216
9.893972013 -0.229950262 -0.117508194 -0.137415959 8.927860076 -0.121338238 -0.055860516 -0.096523088 5.163251160
9.799158579 -0.085513904 -0.014417701 -0.051102247 9.057088749 -0.148080743 -0.006853822 -0.117796425 5.118284452
8.741722622 0.021222659 0.155853942 0.012682447 8.876113296 0.138244338 0.074089145 0.109971685 5.187337708
8.668919791 0.000662897 0.293873741 0.000396141 8.819528344 -0.059926892 0.139700375 -0.047671112 5.158439872
8.563269311 0.063474502 0.433145494 0.037931723 8.945436584 -0.336819390 0.205906753 -0.267935717 5.137719002
9.158124511 -0.066890629 0.108542498 -0.039973166 9.214170546 0.391798134 0.051598444 0.311670636 5.177191712
8.561254114 0.331876370 -0.313975758 0.198325974 9.337254100 0.260408621 -0.149256381 0.207151882 5.427359132
9.752591967 -0.046399220 0.039080962 -0.027727706 9.081744203 -0.148699521 0.018578132 -0.118288655 5.166645042
9.672278305 0.289909071 -0.037854994 0.173246739 6.775522063 -0.072901172 -0.017995336 -0.057991993 5.288994119
8.669260961 0.000335729 0.299361760 0.000200628 8.819800087 -0.065731296 0.142309244 -0.052288444 5.159467437
8.265745454 0.253588141 0.010137237 0.151541717 9.604126605 0.021370114 0.004818994 0.016999665 5.390184109
10.392435327 0.008483046 -0.006217597 0.005069383 6.210959528 0.001995382 -0.002955693 0.001587302 4.947767731
9.853280125 -0.155423161 -0.060204297 -0.092879315 9.021457043 -0.135450749 -0.028619647 -0.107749418 5.083931574
8.873127372 -0.020624977 0.173539202 -0.012325278 8.965780513 0.232845642 0.082496284 0.185225868 5.227833204
9.477928999 0.257231695 0.084203926 0.153719069 8.039039132 0.092846972 0.040028483 0.073858633 5.268924834
9.898584661 -0.235981497 -0.121037002 -0.141020164 8.917706583 -0.119171776 -0.057538025 -0.094799694 5.172177842
8.920083410 0.311431916 -0.161840299 0.186108574 8.980421287 0.119945892 -0.076934912 0.095415494 5.487992435
9.112041256 -0.081391884 0.134134272 -0.048638970 9.191825619 0.384814978 0.063764146 0.306115621 5.203417854
8.617079740 0.324037468 -0.332700522 0.193641525 9.270442409 0.233504908 -0.158157675 0.185750306 5.392866390
10.164928298 0.093636921 0.037008226 0.055956480 6.260640471 0.036764152 0.017592804 0.029245434 5.243308365
10.250056544 0.062954050 0.017495756 0.037620706 6.198636632 0.035593222 0.008317054 0.028313974 5.144086345
9.518757177 0.330179743 -0.105473541 0.197312087 7.039933320 -0.119537855 -0.050139537 -0.095090905 5.258425690
8.873364575 0.314836334 -0.199803814 0.188143020 8.999733529 0.146650708 -0.094981837 0.116658849 5.436914153
8.254705666 0.251393723 0.032292335 0.150230355 9.586383966 -0.004835590 0.015350985 -0.003846653 5.394217124
9.766178735 0.257908989 -0.005650232 0.154123813 6.631902598 -0.046897990 -0.002685982 -0.037306779 5.327763425
9.484597051 0.223145399 0.016876255 0.133349441 8.300059470 0.170095130 0.008022558 0.135308601 5.234139376
9.359598059 0.164741711 -0.041359585 0.098447986 8.795933910 0.268445525 -0.019661333 0.213545141 5.098054231
9.423790531 0.353407617 -0.045262434 0.211192830 7.482877342 -0.064543592 -0.021516652 -0.051343640 5.282557990
9.809536135 0.238956869 0.009514959 0.142798217 6.576444033 -0.035549775 0.004523178 -0.028279413 5.338993777
8.884677823 0.313707076 -0.189724436 0.187468187 8.993857567 0.140520192 -0.090190347 0.111782099 5.448319525
8.814783589 0.003239748 0.161017442 0.001936041 8.920743712 0.190155020 0.076543746 0.151265999 5.207362406
10.374087257 0.019825699 -0.009767921 0.011847638 6.200704096 0.007172289 -0.004643430 0.005705468 4.964047731
9.748979763 0.264676194 -0.011360924 0.158167826 6.655785375 -0.051344053 -0.005400705 -0.040843568 5.321856933
8.332951743 0.188539798 0.224049342 0.112669483 9.328749050 -0.272593620 0.106507566 -0.216844900 5.322504914
8.932336048 0.310787999 -0.153753535 0.185723776 8.977860426 0.112413578 -0.073090663 0.089423631 5.502916335
8.290751737 0.261662444 -0.042736729 0.156366839 9.635980723 0.094671043 -0.020315994 0.075309660 5.395850648
8.669475673 0.000022710 0.325604603 0.000013571 8.821285508 -0.095981884 0.154784449 -0.076352418 5.162243164
8.958395738 -0.065466741 0.180417341 -0.039122265 9.055261079 0.309408585 0.085765983 0.246130755 5.236089974
9.916295871 -0.261339123 -0.132752609 -0.156173626 8.859843680 -0.107075939 -0.063107337 -0.085177604 5.210270807
8.587812445 0.044992516 0.436336447 0.026887074 8.899645015 -0.296853781 0.207423654 -0.236143562 5.135809766
8.944524697 0.310080075 -0.146601720 0.185300728 8.976530887 0.104802706 -0.069690865 0.083369274 5.517937697
9.299171105 0.273232780 0.017988630 0.163281155 9.074096890 -0.050078773 0.008551354 -0.039837053 5.549884331
9.442441317 0.325993939 0.035046649 0.194810692 7.640901292 -0.015689396 0.016660318 -0.012480723 5.274704228
9.465392004 0.211048772 -0.018790599 0.126120619 8.419733182 0.198057435 -0.008932590 0.157552274 5.196999293
9.143975988 -0.072381607 0.117279196 -0.043254519 9.209730013 0.391094203 0.055751655 0.311110668 5.185351720
8.678333175 0.021586525 0.174686604 0.012899890 8.829863016 0.058318424 0.083041730 0.046391595 5.167616114
9.632518142 0.300830661 -0.054512434 0.179773371 6.842909265 -0.085862101 -0.025913875 -0.068302254 5.272646855
9.840784088 -0.132441302 -0.048384756 -0.079145587 9.036643583 -0.139795657 -0.023000927 -0.111205740 5.081406502
9.039463287 -0.085694364 0.158353832 -0.051210088 9.131197451 0.359152456 0.075277531 0.285701398 5.226400644
9.526486323 0.204591967 0.190264046 0.122262097 9.184206777 -0.128291253 0.090446865 -0.102054127 5.521850392
9.343083232 0.145755831 -0.022690744 0.087102216 8.876132834 0.280797517 -0.010786624 0.223371000 5.082464216
8.879243442 -0.023656911 0.174993156 -0.014137132 8.971407955 0.237910737 0.083187458 0.189255089 5.229588682
9.338024555 0.137834482 -0.016464342 0.082368497 8.905792822 0.286496915 -0.007826745 0.227904801 5.079094263
8.666279421 0.005050430 0.253493977 0.003018086 8.817911778 -0.021298995 0.120504824 -0.016943091 5.151314676
9.871893620 -0.194452569 -0.089439328 -0.116202895 8.980798611 -0.129390452 -0.042517265 -0.102928527 5.115049128
8.767264536 0.328405607 -0.306931704 0.196251881 9.106565789 0.187101176 -0.145907810 0.148836703 5.336779668
9.902869738 -0.241565150 -0.123874527 -0.144356899 8.907626924 -0.116910455 -0.058886914 -0.093000841 5.180390627
10.295336925 0.049789653 0.006940294 0.029753795 6.180027250 0.027868220 0.003299246 0.022168829 5.080385782
9.427544900 0.358514027 -0.085657111 0.214244369 7.367422604 -0.097947234 -0.040719291 -0.077915830 5.276505175
9.096869060 0.291351303 -0.086776872 0.174108602 9.016208409 0.030946244 -0.041251598 0.024617360 5.613556326
8.669770420 -0.000125074 0.315347296 -0.000074743 8.820646571 -0.083642149 0.149908376 -0.066536309 5.161718946
8.239667062 0.223501999 0.132365910 0.133562542 9.459103526 -0.131009004 0.062923510 -0.104216065 5.384609241
8.976372996 0.307513840 -0.131638883 0.183767172 8.978715913 0.085337442 -0.062577899 0.067884894 5.554862035
8.645639305 0.011323142 0.390444600 0.006766595 8.835718085 -0.189338233 0.185607795 -0.150616255 5.143777980
9.702048866 0.005780539 0.087081370 0.003454392 9.117114446 -0.148331734 0.041396349 -0.117996085 5.234027165
8.687297262 0.316768273 -0.331522785 0.189297527 9.205183140 0.203968431 -0.157597808 0.162254399 5.353011124
9.586784509 0.312594480 -0.076227278 0.186803311 6.920399304 -0.101204842 -0.036236580 -0.080507217 5.261054141
9.445702073 0.351696825 -0.105998062 0.210170478 7.245045291 -0.117195758 -0.050388881 -0.093227796 5.265436697
9.563748979 0.167602514 0.191137831 0.100157573 9.189226318 -0.138020503 0.090862241 -0.109793626 5.480062036
9.826577927 -0.112221163 -0.038008795 -0.067062236 9.046256639 -0.143929540 -0.018068450 -0.114494194 5.090483155
8.847791653 -0.009139224 0.167523964 -0.005461508 8.944449497 0.213234347 0.079636787 0.169625322 5.219409991
9.321708364 0.111114047 -0.000637777 0.066400634 8.989395041 0.305426918 -0.000303184 0.242963388 5.075735048
9.966107707 0.167559622 0.059256406 0.100131941 6.412924706 0.006803889 0.028169043 0.005412411 5.342441156
9.327120071 0.269491398 0.038669822 0.161045343 9.089004181 -0.062824202 0.018382686 -0.049975886 5.532669979
9.051030200 -0.086245765 0.154893227 -0.051539600 9.141259170 0.364030245 0.073632444 0.289581620 5.224223991
8.496495594 0.106639298 0.382296493 0.063726570 9.082818182 -0.382593475 0.181734384 -0.304348443 5.153760773