4.0346883037 5.6558315759 3.3140362544 2.5466205434 8.1719255238 5.4084561826 1.8458402214 3.5774658304 2.1729018005 6.6604614972 1.0972088985 0.1936535333 7.5872190983 5.9625869056 3.0863273213 1.1681802038 6.8830146819 2.7710988584 3.4863232037 2.3606799337 4.8337284345 8.1197070358 2.6284571540 2.8713569995 5.8546811338 6.9956519211 0.6224880865 2.3443715977 7.2492334627 3.7555516255 2.8729374234 3.0889013081 0.7250038616 7.0131205757 1.9991560215 1.9761749055 6.0509303713 6.8589851788 4.2618389235 4.2638007173 6.9120126039 0.9873702523 0.2872733316 2.4291772526 2.1580560366 5.0746130437 2.2214471427 4.9024369243 9.0889086779 6.8312098368 3.5884808854 1.0979614432 7.8789938686 1.6008438514 2.8042554405 0.9614803453 5.0413312269 7.9290410666 4.1322245628 3.0969347504 6.5886200689 5.9137616082 1.5164323543 8.0719345595 1.8031239869 4.1945431068 6.4701705134 8.4079955729 0.9036297108 1.5450705463 5.4488165959 2.2139813200 3.2158470646 2.9896745174 3.3627826577
4.0731996026 5.6038807523 3.2122635471 2.5881718035 8.1307024038 5.3651976681 1.8637149294 3.6012260969 2.1832947769 6.6488284527 1.0999322053 0.1559471174 7.6369719311 5.9419911187 3.0696780024 1.2023477393 6.8450226402 2.7176857760 3.5647490231 2.3627728167 4.8304086873 8.1505524081 2.6084521305 2.7796269754 5.8114912668 6.9539747757 0.5792355844 2.4072755807 7.2033340008 3.6980816473 2.8693440295 2.9992007845 0.7644199122 6.9791173475 2.1379761199 1.8688354135 6.0559155183 6.8152797389 4.2049459095 4.2530209763 6.9206385453 0.8693189094 0.2919775926 2.3538207052 2.1393053278 5.0562238859 2.2424764220 4.9682502280 9.1758255548 6.8394717939 3.5770196146 1.1983275741 7.8652497541 1.6005031159 2.9132584163 0.9969796936 4.9751722555 7.9818994010 4.1307387768 3.1163717102 6.4723038933 5.8600690374 1.5178707887 8.0881560786 1.7511915515 4.1289915120 6.4505733640 8.3698786104 0.8687272667 1.5452932486 5.4330090134 2.1537437830 3.1751192963 3.0919578590 3.4948221253
7.4267949196 4.4555858502 5.3260669671 3.2906421011 7.3023533993 5.6794822126 1.5655976709 3.0237298904 2.6142893036 6.1555714796 1.6704711187 -0.1224457869 8.1151044762 6.8830715783 2.6020607209 1.9273966248 6.2665999405 2.8230091973 2.8870079298 1.4679688825 5.3882917104 7.6881304373 3.1433735327 2.6063273928 6.4930703019 7.6523796794 -0.1391391648 2.5333474129 6.2003967884 4.2674490939 2.0923972908 1.8983783194 1.2481203130 6.8518570847 2.7265315380 1.2825864470 6.7794662601 7.0259639696 3.9145587180 5.0863237775 7.3232337794 0.2918001515 -0.2878015715 2.6117170334 2.7646644020 4.3278242587 2.0915612159 5.3367211650 9.8873786887 6.9274471160 2.9634966239 2.7868928711 7.2914851278 1.9733581810 2.8508100577 -0.0411008424 5.1946178184 7.4215160304 4.5621035423 2.8621133262 7.3971412596 6.8097381441 0.7296880501 6.9807186084 2.3190858148 3.7540925960 6.9696914604 9.1355211161 0.1947665308 2.0237614265 4.8425808424 2.3153186221 2.0858125517 2.1473133110 4.2336474999
5.1449591278 3.1555755769 2.5647156533 2.7522610752 4.7902866685 4.9386945180 2.3138414699 1.5091840013 2.7576125722 7.6541198981 1.4140842048 -0.1241535776 8.1013233549 4.7478027176 2.6792674320 1.1825321783 4.3893031665 2.1570853422 4.1466882190 1.7619470227 4.8927447814 9.2690530663 1.5701699069 2.7032720870 6.0615409942 4.7537592778 0.2717443991 1.3581423084 4.7819737352 3.6521383879 4.0585356377 1.7908857889 1.4037997470 9.0221346561 1.7453734711 1.1924749368 6.3758611009 4.4680952591 3.8196800253 4.6136065643 4.8741224562 0.7829014764 0.4070899826 1.2788039432 3.0573086233 5.5188270225 1.7644096305 4.2699436888 9.9807477162 4.2364514367 1.8919023089 1.7577533787 5.5587546743 1.2849557094 3.1602511526 0.5987187754 4.2821445438 8.4561060303 2.6557523124 3.5192515146 6.8319743156 3.7176510449 1.1782950504 8.5163467779 0.2947075899 3.4169874876 6.8698044136 6.0383035007 0.6792875425 2.0646475958 3.2050089337 1.7733212284 3.3554063158 2.9590367083 4.2309316311
4.1435859414 5.5297599087 3.0815987749 2.6591866779 8.0840391239 5.3190921821 1.8676888716 3.5753941063 2.2085707364 6.6417295620 1.0988700419 0.1326649904 7.6484763915 5.9024309571 3.0511899027 1.2879941297 6.7772350308 2.7100128599 3.5684627292 2.3447857581 4.8151855159 8.1775868029 2.5621517520 2.6730516653 5.7682008289 6.8846942645 0.5270537115 2.4515920069 7.1126896340 3.6378173449 2.8876070130 2.9476792471 0.8709996117 6.9899109566 2.2819167941 1.6996676316 6.0912464523 6.6949319313 4.0949269300 4.2381534443 6.9350952159 0.7128304158 0.3280817829 2.3123070804 2.1232911605 5.1017615686 2.3081474354 5.0400480999 9.2912273921 6.8621302334 3.5568445988 1.2987386478 7.8450811843 1.5431982999 3.0236055846 0.9020943160 4.8649271433 8.0495093355 4.0627550042 3.1639796060 6.3065421542 5.8386567684 1.5171635765 8.0926126483 1.7179154071 3.9892610990 6.3918622774 8.2717838753 0.8072090772 1.5527712271 5.3982743983 2.0636926402 3.1442365991 3.2414105490 3.6333178842
4.7596689799 4.3264009373 5.1098539201 2.6360920729 8.0524357208 5.3116002180 1.8694305493 3.2863382169 2.1776678440 5.9089622564 1.4692877033 0.2351078388 6.7545298807 6.1488339522 2.5166447835 1.6606405657 6.4492744089 2.5857182477 2.7559199920 1.7367366032 4.7962124018 6.7751004246 2.9519865621 2.9934549293 5.6010213497 7.7985784015 -0.0702584599 2.4675798499 6.9530686749 3.8578575840 2.0694610604 3.1821994492 0.0913282390 5.8910953672 2.0623325155 2.0869815827 5.5684903758 7.0815223687 3.8481967103 4.3059333686 8.3218875248 0.4983872385 -0.0709218662 2.8166422589 2.3373869425 4.2159649866 1.7863935579 5.3184818412 8.4510724606 6.3406601926 3.2313046056 1.4780847191 7.4843900247 1.4497829181 1.9627110709 0.4395905513 5.2893952612 6.0283138138 4.3750972776 2.9769449676 6.1031241416 6.6846018301 0.8885632980 6.7173170823 2.4684297136 4.5345005177 6.4838110950 9.0507730300 -0.0034076480 2.3043810010 5.1147345618 2.0402293819 2.6231676839 1.7892021690 3.2779397242
7.3769045619 4.4596810327 5.3062651141 3.2556528554 7.2692188302 5.6610427772 1.6023012352 3.0540192139 2.5827800014 6.1875967536 1.6377218752 -0.1582477257 8.0430268865 6.8774084374 2.5357940352 1.9048755068 6.3663060347 2.8172069544 2.8516702627 1.4958126058 5.4233685828 7.5877939345 3.1171757795 2.5638827380 6.5170166621 7.6402440856 -0.1252336140 2.5427392420 6.1975691470 4.2444922859 2.0231190488 1.9459625709 1.1813953367 6.7947645220 2.6955671248 1.2993960546 6.7760359815 7.0540704572 3.9316251669 5.0140773925 7.3250624058 0.2678283808 -0.2503917187 2.6680951195 2.6703478744 4.3060572764 1.9960744456 5.3771579163 9.8254961731 6.9436650094 3.0063849596 2.7497735589 7.3158666454 1.9645303352 2.7619421198 -0.0510227816 5.1859455602 7.2950706671 4.5972326829 2.8427612411 7.4169798815 6.7679937954 0.7819754749 6.9869222529 2.3524417878 3.7024935291 6.9412543433 9.1117204273 0.2069359698 2.1077118646 4.9030071191 2.2853055085 2.0682438723 2.1616627598 4.2228029156
7.1440313079 4.5072067988 5.2952831315 3.0935350749 7.2761676198 5.6987438410 1.6443854855 3.1561984418 2.6043917845 6.1466754836 1.5715595716 -0.2844974313 7.7836006337 6.7454324247 2.4908747052 1.8650506396 6.3290525745 2.9091870807 2.7289945722 1.4782893488 5.3815190006 7.3760106792 3.2471326810 2.6124731209 6.4531083006 7.4942553002 -0.0887340622 2.4438063587 6.3283637555 4.3443859585 1.9295339925 2.0566762730 1.0950996206 6.8103633187 2.6585427275 1.2152708548 6.7661109741 7.2361617908 3.9373660231 4.9715190342 7.2845578965 0.2393635705 -0.4050841542 2.8376680007 2.2501790548 4.2629035666 1.6862855245 5.6105234979 9.6303584801 7.0300141191 3.1482784233 2.5227980733 7.4506305312 1.9943187582 2.4860408041 -0.0010334138 5.3113167371 6.9924913172 4.6615100307 2.7690426681 7.3837213099 6.5355800099 0.6029998114 6.8817226827 2.3097809955 3.7577548540 6.8524540346 8.9746477522 0.2266239082 2.1126117921 4.9821111448 2.2165153300 2.0931082720 2.3007387438 4.2029713942
4.7648331804 4.3319164465 5.1202489540 2.6411555175 8.0602491721 5.3173559032 1.8688458785 3.2967257821 2.1767257548 5.9069567936 1.4707801519 0.2337180516 6.7473200274 6.1544336134 2.5181359445 1.6619421814 6.4565683924 2.5906858795 2.7490050217 1.7386613049 4.8042944022 6.7707039182 2.9602898620 2.9896058785 5.6033392324 7.7964276758 -0.0737756807 2.4692555087 6.9543740437 3.8668520999 2.0639545106 3.1772126813 0.1027777490 5.8830924563 2.0798382275 2.0769579564 5.5590113980 7.0911720324 3.8505569790 4.3074077949 8.3251206709 0.5047748968 -0.0717793540 2.8175850003 2.3412932060 4.2145324789 1.7842901592 5.3196642808 8.4465639093 6.3507618914 3.2308326683 1.4815149312 7.4867413774 1.4543196922 1.9512694141 0.4388697608 5.2925760594 6.0354368203 4.3910972166 2.9735318185 6.1027664678 6.6881410497 0.8931130019 6.7073415663 2.4746245517 4.5281230478 6.4801125607 9.0493287024 0.0028977883 2.2992172128 5.1182028648 2.0473502052 2.6162781181 1.7961594977 3.2771715190
5.1502232509 3.1478765782 2.5517113528 2.7475437472 4.7807665215 4.9268350743 2.3057680253 1.5117892581 2.7326536623 7.6563333304 1.4182026287 -0.1193867563 8.1104918149 4.7488791564 2.6636766325 1.1835776960 4.4013426408 2.1492540481 4.1441068316 1.7640941534 4.8801275160 9.2712786637 1.5776063837 2.7002599423 6.0876680513 4.7451178748 0.2716656293 1.3747785808 4.7648500185 3.6400853639 4.0494079459 1.7903510415 1.3903033866 9.0342083789 1.7397031979 1.1836115971 6.3740635989 4.4677115732 3.8061657115 4.6186020613 4.8733993472 0.7776633920 0.4061654861 1.2793010516 3.0438757575 5.5308971879 1.7453990856 4.2485636297 9.9952628394 4.2571621052 1.8855991618 1.7673005624 5.5725981278 1.2834158356 3.1720638514 0.5723734598 4.2708048093 8.4456578159 2.6645325261 3.5153459276 6.8359831407 3.6888003480 1.1664541774 8.5236554829 0.2806084905 3.4197501354 6.8669075636 6.0389838768 0.6706488824 2.0699889984 3.2089405765 1.7788837803 3.3518914054 2.9410592690 4.1986958748
3.9940697118 5.7210651635 3.4621479636 2.5132773651 8.2225288093 5.4896274005 1.8042329004 3.5002243243 2.1672184686 6.6461606475 1.0978724204 0.3039478855 7.4401038540 5.9710615920 3.1346888674 1.1594748577 6.8808772857 2.8282124814 3.3837110134 2.3014353286 4.7802259753 8.0642927353 2.5978665479 2.9393786529 5.8425057105 7.0260604682 0.6828820484 2.2391895868 7.2900095308 3.8506997361 2.9233956222 3.2070937145 0.5759129702 7.0687978994 1.7917376236 2.0650500056 6.0645353089 6.8490634212 4.3093576478 4.3715868609 6.9252108374 1.1087618726 0.2843332640 2.5719200153 2.2206855258 4.9612555702 2.2025247147 4.8261706280 8.9997846415 6.8539075169 3.6655791895 0.9842909314 7.8317707743 1.5923334803 2.6923657037 0.9555157023 5.0989595694 7.8072978360 4.1171430759 3.1319518604 6.6932390829 6.0289996491 1.4724950159 8.0790987918 1.9071805559 4.3242807351 6.4538198502 8.4199434104 0.9380964260 1.5562736144 5.4663789989 2.3216291753 3.2599728333 2.8081053969 3.3197398189
4.5883034090 4.1703273903 4.7113366391 2.4148277370 7.7665594051 5.0879924627 1.8322655078 2.9249372073 2.0655022409 5.9819109108 1.3983314986 0.4591991417 6.9369991541 5.8901608602 2.5486940774 1.6468563569 6.1589531926 2.3360730953 2.9646588739 1.7380713122 4.5805430419 7.0216308232 2.6891089271 3.0418465300 5.7080271612 7.6549646523 -0.0498701218 2.4487649092 6.8833311211 3.5041038548 2.1036859675 3.2738768493 -0.0103852242 6.4078748482 1.4178762458 2.3716719116 5.8460411304 6.7354682235 3.7050554883 4.3284236987 8.0894373680 0.3186778357 -0.0521670011 2.8905382869 2.1240504471 4.4531320596 1.7614381404 5.0321165853 8.6840332058 5.8737869621 3.2346173531 1.4689085789 7.2665192074 1.2867245730 2.3104252880 0.4317115226 5.1453719930 6.1211762285 4.0180004581 2.9217596188 6.2216398226 6.4930013831 0.8829838911 7.2825100429 2.3473143440 4.6287646890 6.7824217448 8.7822272200 -0.1515546050 2.4527031604 4.9073406069 1.9248944313 2.9678021789 1.7649842887 3.0540048493
4.3760779384 4.2793562539 4.4960004098 2.4061206069 7.6812106415 5.0936596522 1.7420298728 2.7851371889 1.8591356645 6.1033082680 1.3338388506 0.6995070735 7.0083864436 5.5332372674 2.6745580434 1.6262933614 5.8946811150 2.4035138731 3.2196910635 1.7274172664 4.5062782752 7.3456347836 2.5303901604 3.2207528501 5.7685408946 7.3285879938 0.0720179413 2.4565789377 6.7332752726 3.4716821296 2.1835903032 3.1538433557 0.0313819480 6.8049965020 1.2941482272 2.4738560789 5.7228686639 6.3950501598 3.8004224074 4.3315654056 7.7936279150 0.3817277999 0.0004726438 2.9214092129 2.0098386046 4.7257151465 1.8851313037 4.8969218466 8.7401196036 5.5174211892 3.2759024716 1.2815292425 6.8247129029 1.1968102016 2.3461508504 0.5260256744 5.0788875209 6.3965315199 3.7281580605 2.8891555072 6.3609960867 6.2466835917 1.0532510473 7.4273504557 2.2080372460 4.7835695006 6.7664697447 8.5159341226 0.0524288287 2.4971674545 4.6347791173 2.1017692767 3.1219303007 1.9842935903 2.9352138610
4.5995965415 4.1746985112 4.7327415017 2.4232566237 7.7814352630 5.1037509193 1.8385814554 2.9397157624 2.0794399613 5.9760381602 1.4008267314 0.4436715338 6.9348488057 5.9091721152 2.5450576697 1.6405493506 6.1792482992 2.3386689527 2.9488862068 1.7393137205 4.5960059193 7.0032138372 2.7063868691 3.0318547815 5.7006410752 7.6801459464 -0.0559675730 2.4525982341 6.8884052942 3.5192545613 2.1058378338 3.2790039209 -0.0147335045 6.3723412944 1.4388965889 2.3586803702 5.8438160152 6.7573869358 3.7242329323 4.3134755231 8.1092593940 0.3294677776 -0.0471418056 2.8822829628 2.1427991672 4.4432963528 1.7602284413 5.0598053504 8.6704351981 5.9004395354 3.2417551816 1.4818676459 7.2880548131 1.2934024072 2.3009299511 0.4243104136 5.1581080792 6.1003752907 4.0333173626 2.9379330653 6.2131539666 6.5021696591 0.8677494802 7.2647462520 2.3653815349 4.6225032081 6.7742765950 8.8046100188 -0.1553323190 2.4520219919 4.9294537300 1.9282225530 2.9436978208 1.7624398238 3.0494423988
6.2927645781 4.8896478999 5.0631978723 2.7138405041 8.1151833617 5.5634991841 1.5086078446 3.2959903449 2.2530591415 5.9780434207 1.5640494909 -0.2437147264 6.9812569435 6.6589259623 2.3526452271 1.5814980178 6.5712595189 2.9568937265 2.5922761056 1.7651869001 4.9857502907 6.6675262583 3.3921228244 2.3834455396 6.1850856384 7.6493655793 -0.1868925963 2.2198726915 6.7057123424 4.4051735572 2.2208861300 2.4641119684 0.8338945727 6.1473680028 2.6774018529 1.1103492854 6.1066668474 7.7796926916 3.6301774782 4.7948736479 7.5041412123 0.3477066541 -0.5350495239 3.4056263297 2.4876663755 4.0285223665 1.0614616448 5.0535385940 8.7243615190 6.9354436389 2.9162818814 2.1792126513 7.6188678979 1.9549959164 1.6762038290 0.4986524199 4.8138033479 5.7258532305 4.5920943942 2.7485693141 7.0219668332 6.4431970685 0.5046732301 6.7652540284 2.2418062459 3.5882261843 6.6908782713 8.9808079277 0.3845871769 2.0387006556 5.1470900990 2.3541906726 2.5859360415 2.7271027675 3.7873087436
4.4084628383 4.2792216487 2.7810315830 2.9424859550 6.6198011889 4.9646131450 2.1013252643 2.2535928442 2.7482559458 6.7821802855 1.5449003926 -0.2237124516 7.7104187689 5.0989347925 3.0467407763 1.2844826753 5.5921715087 2.2342365084 3.6068123832 2.1210451689 5.0001373638 8.3771313986 1.9267007792 2.6223486696 5.8991414628 6.0364261870 0.3947357578 1.8040896640 6.0751677779 3.6399071784 3.3601507603 2.0858539438 1.2717174264 8.1990802455 1.8261850050 1.1009434721 6.2341373657 5.4509274932 4.2490662440 4.4248844761 6.0585743316 0.6449958052 0.4513091207 1.5390603009 3.0008885381 5.0841040877 2.5877087274 4.8627765283 9.1470660378 5.9312528008 2.1825230027 1.7598768052 6.6247060466 1.2174465941 3.0761981682 0.8431978814 4.3335882391 7.9581953078 3.2485746048 3.4725053129 6.5232376463 5.1114579206 1.4513891647 7.4482278222 0.8498549473 3.3778978858 6.6146550823 7.4054374970 0.4609023901 1.8832939580 4.1894023730 2.0235802904 2.8408000671 3.3016812078 4.3546674221
4.2334265751 4.4910636948 4.3967799900 2.4539825246 7.6956571831 5.2304974935 1.7948653473 2.7954588501 1.7728506520 6.1549885932 1.3111956736 0.7670641452 7.0196024549 5.4159431870 2.7309439274 1.5478736681 5.8787753836 2.4781584148 3.2686095896 1.8237236543 4.4465078132 7.3685008548 2.4947541796 3.2552516914 5.6712411766 7.2246415665 0.1658124083 2.3566384324 6.6533048137 3.5062692687 2.3439704116 3.1954394415 -0.0278507914 6.8740591348 1.2455261970 2.4858821378 5.7555457044 6.2262774898 3.9379236545 4.2444269530 7.7193603931 0.5977797628 0.0569438943 2.8887906530 2.1099186652 4.7305228171 1.9028304767 4.9371319145 8.7877050229 5.4520920524 3.4294867522 1.3235456737 6.6571593455 1.1356086192 2.4307002069 0.6719960769 5.0054452685 6.3519443140 3.6837818302 3.0204972075 6.3731940211 6.1374608960 1.0328862340 7.5659333040 2.3192498120 4.7250949914 6.7081469362 8.3971733815 0.1025381950 2.4538938416 4.6267567168 2.3084540609 3.1128654676 2.0461228616 2.9532563418
4.7399559570 4.3045117646 5.0665466300 2.6144584879 8.0214890727 5.2883538617 1.8710684674 3.2434013613 2.1792286059 5.9168642617 1.4604198584 0.2437742614 6.7837281382 6.1263754753 2.5113218742 1.6538462664 6.4194819295 2.5654502590 2.7790255944 1.7287886561 4.7675500441 6.7902786451 2.9211192997 3.0083464481 5.5985759501 7.8049430312 -0.0617768033 2.4581840261 6.9425168564 3.8110337045 2.0904764626 3.1995753267 0.0490059366 5.9261948471 1.9906334564 2.1260131699 5.6079528824 7.0429926897 3.8409411382 4.2882332225 8.3092540391 0.4759781693 -0.0600017417 2.8144037553 2.3198963641 4.2233776807 1.7919874819 5.3092810971 8.4747245603 6.2994427449 3.2320569404 1.4707516849 7.4750933802 1.4300416817 2.0122635898 0.4456992714 5.2740495206 6.0057245228 4.3090923761 2.9898678920 6.1064747939 6.6673193356 0.8658426468 6.7657624754 2.4562576571 4.5407722152 6.5077636807 9.0571251224 -0.0310351524 2.3262663686 5.1059795457 2.0149939034 2.6508736041 1.7669134993 3.2704673641
7.3433005368 4.7058438536 4.7814628827 3.2708661815 7.0890232474 5.0554701467 1.2865111869 2.3384366865 2.3599682657 6.2223504488 1.8205113287 -0.2768891870 8.3045559916 5.9907711135 2.0990158798 1.5539418358 5.8158165431 2.5221445715 3.0041649324 1.4154663456 5.0689015539 7.9424687065 2.7533796743 2.3497741226 6.5666528890 7.4535682466 -0.3172551485 2.1773644414 6.0764038342 3.9439267731 2.6450289230 1.4742339244 1.4656240191 7.3042023547 2.9405563765 0.9008698418 6.8583350458 6.9122458016 3.3121478834 5.1631944533 6.7659117398 -0.1700791849 -0.8637988452 1.8072038408 2.4709684299 4.2959348458 2.2697702116 4.8350607501 10.0326915910 6.3241770306 2.1373455778 2.5752641032 6.3109908791 1.4371543356 3.2891732926 -0.0430705429 4.5888552024 8.7252179507 4.0788041778 2.4260673806 7.6182023092 6.8339242946 0.5852816632 6.7643075523 2.5439241560 3.2752434734 6.4718329924 8.9686292216 0.0377938271 1.2399560945 4.2958028151 2.4998768323 1.8058712081 2.0251878513 4.2751307040
4.9034287922 3.5884634516 2.7882329215 2.7220477594 5.2879104126 5.1064431954 2.3549799640 1.6684188881 2.9654281222 7.3874583171 1.5574309826 -0.2969034893 7.7654732645 4.6931380471 2.8512347012 1.0356567186 4.5492055821 2.2787523295 4.0733252865 1.9098606746 5.4109888365 8.8480751654 1.5986416605 2.7678907979 6.1174074049 5.2989367341 0.3961136822 1.4285023975 4.9488707828 3.7247310919 3.9047014028 1.6249455827 1.5336426603 8.7150735995 1.6796447942 1.2440685194 6.3734282467 5.0176707266 4.2298796192 4.5494270120 5.2626385766 0.6317328672 0.4521603123 1.3271961797 3.1072656434 5.5406934770 2.0615301508 4.7948327509 9.4483197646 4.5826594342 2.0994518072 1.5717263361 5.5555533475 1.2069715498 3.2869567213 0.7974846963 4.5732412804 8.1752574632 2.7164019561 3.7084383397 6.6617110497 4.1939429511 1.4068168765 8.1263143653 0.3766959726 3.3143665203 6.6946354299 6.6877871238 0.8192912763 1.7896205435 3.1907312613 2.1477022837 3.2898568087 3.1730398013 4.6821650956
4.4916059609 4.9536073705 2.7363686772 2.7917758954 7.7278855378 5.1992399629 1.8367793293 3.0823366651 2.5678413343 6.7990510421 1.2462380836 0.0585996027 7.7290066481 5.5613792069 3.1228193192 1.3691327168 6.2654412385 2.5162292346 3.6797257713 2.3065719207 4.9776617735 8.3328663790 2.3143283152 2.6636687550 5.8818289881 6.3536034969 0.5135836059 2.2757098885 6.5980811677 3.7157849432 3.2164073084 2.1747992425 1.2919550427 7.7165260100 2.3302228818 1.2437901676 6.3288580851 5.7750835336 4.3786750125 4.3471885703 6.2535993780 0.6632753406 0.3939323494 1.8736607240 2.5387849312 5.2337055339 2.5064582285 4.8671270369 9.3462583045 6.4328168011 2.9314798631 1.5943592839 7.3659035036 1.4323094106 3.1853366467 0.9768985993 4.3764741120 8.1374284567 3.6611284665 3.4412302761 6.6239693030 5.5436465543 1.5787408419 7.6758662715 1.2290167858 3.5969161529 6.4427081799 7.7931560877 0.5694971552 1.7699513058 4.8814002853 1.9665606009 3.0310524383 3.4860717711 4.2150974420
3.7948413496 5.2185625254 3.9515941002 2.6362941492 7.7514440105 5.4006909380 1.9841589214 3.0387408741 1.6514726859 6.2062703025 1.3814214741 0.6071932489 6.9228446772 5.4967722431 2.8359702449 1.3914129927 6.0046933577 2.7845497239 3.2708480738 2.0113442304 4.4116818844 7.3482733480 2.5081809854 3.2156273784 5.6516821905 7.0852701726 0.2280713780 2.1188118497 6.9940671917 3.7301719429 2.6768569983 3.3427245689 -0.1817296563 6.5952192035 1.3303461673 2.5157176401 5.5919563187 6.3906547673 4.0556603179 4.1695700759 7.3098984638 0.8586313880 0.0391631309 2.8422879177 2.3472999325 4.7342469846 1.8424343592 4.9571567934 8.6129848125 5.8350002566 3.4148813569 1.4419877865 6.6174806826 1.3330196092 2.3434780807 0.8922920250 5.0305207360 6.3414461501 3.6823731779 3.0008702185 6.1398654842 6.0986972158 1.3174966787 7.5129383820 2.2305445011 4.7071393756 6.3206890211 8.4245083432 0.0208210640 2.2228625476 4.6995069158 2.6965625629 3.2208064353 1.9898408512 2.7969421075
5.0093683638 4.5134629857 5.4081762727 2.6518050162 8.3152427732 5.4655453246 1.7669452414 3.5027282174 2.1461338975 5.8828464152 1.4092714251 0.2271423347 6.6103854630 6.4808242442 2.6419583045 1.6254931636 6.6719960285 2.7355138717 2.4942576357 1.8279645464 4.8955036766 6.7879176695 3.2664709385 2.7510518414 5.7223370456 7.9368145910 -0.0731236423 2.4805295918 7.0992861849 4.0119633288 1.9137794447 2.9602917952 0.4092902211 5.7954550736 2.6126949697 1.7312048099 5.4468453391 7.3565689812 3.8857522412 4.4328522944 8.2900949041 0.6498123595 -0.0172989093 2.9722450397 2.3351246843 4.0089128597 1.6164366795 5.1634734694 8.3709490129 6.7134810444 3.1892236410 1.8142491077 7.6563239071 1.5883258240 1.7642706265 0.4614503079 5.2581206963 6.1760940451 4.7199381904 2.8831163517 6.2095175041 6.5568291533 0.6450527290 6.4968051799 2.7437337347 4.2783783624 6.7459590949 9.1135517839 -0.0026398008 2.3254287925 5.3084889379 2.2940003266 2.3849069799 2.3362847815 3.4740355193
5.5561484358 4.7029611319 5.7215068615 2.5856627672 8.5277613871 5.7004222706 1.5153626112 3.6144919329 2.2428444231 5.9062759462 1.2733705134 0.0242782976 6.6582589494 6.9555648056 2.6784033549 1.6622167511 6.8207727327 2.9629898910 2.4827933468 1.9182037952 4.9933572756 6.5809950650 3.4675182481 2.6633026639 5.9731644097 7.9214204860 -0.0399081396 2.3517529242 7.2330564563 4.2947250093 2.1701155398 2.7085500891 0.6922552807 5.9865965351 2.7382309210 1.4125609366 5.6236122630 7.9082469026 3.9293316802 4.5573706921 8.1434801911 0.6792935551 -0.2298301858 3.3223445144 2.4200839459 3.9804011073 1.4601753680 5.1687337680 8.4841275811 7.0186304508 3.0122693681 2.0192496750 7.8334676743 1.8868130168 1.6441607147 0.5821468411 4.8565643977 6.0666647172 4.9408064694 2.9580188996 6.7351678492 6.7725241653 0.7567970326 6.4643005874 2.6124380932 3.8941338167 6.8348719583 9.2206066718 0.1598151738 2.2604336387 5.4106104079 2.6484593625 2.3796510666 2.6728039609 3.5931874579
5.6576373983 4.7501840619 5.7354090491 2.6041222510 8.5338074216 5.7396193963 1.4788749054 3.6108244181 2.2708660648 5.9123878415 1.2763157246 -0.0278103664 6.6982607977 6.9781912841 2.6605979794 1.6423165269 6.8000383219 3.0142651082 2.4760257076 1.9277389610 4.9823910848 6.5821853703 3.4708621153 2.6288973508 5.9895498950 7.9413025900 -0.0257400723 2.3420036317 7.1638758090 4.3417080025 2.2779132565 2.6083782489 0.7484573408 5.9544270210 2.7257623642 1.4166123307 5.6712208738 7.9033467173 3.9211211597 4.5423558569 8.0351526631 0.6717031601 -0.2778026698 3.4040055096 2.4872705138 3.9363434239 1.4667877502 5.2068306604 8.5008012809 7.0184694457 2.9866580522 2.0519491838 7.8423925480 1.9098555205 1.6671147941 0.6217455305 4.8465172256 6.0121350614 4.8858294920 2.9759146917 6.7636823166 6.8553783781 0.6920840658 6.4459014837 2.6072932772 3.8117867635 6.8785663420 9.2151819403 0.2336418267 2.2153076471 5.4215235368 2.6863413728 2.4320624070 2.6668005532 3.6108329507
3.8591625411 5.7369678552 3.7831741532 2.6127744660 8.1199357253 5.5853144330 2.0033179122 3.2670436927 1.8467443067 6.3928285910 1.2550429550 0.6069690546 7.0136847580 5.7661832486 3.2540191284 1.2230518789 6.4669595940 2.9069171920 3.3617569900 2.0928962345 4.6472328045 7.7891531100 2.5421487957 3.1844074525 5.7769131457 7.0110806715 0.5364097994 2.2457598485 7.2477721691 3.8757386315 2.7437763730 3.1644762884 0.1263927990 6.8468518960 1.5119095905 2.4531255958 5.7090331667 6.7207256602 4.2896647676 4.2491320408 7.0113218908 0.9339094054 0.2273501783 2.5955484171 2.2907795331 4.8340820422 1.7894319846 4.9419574459 8.7037097311 6.4143960234 3.6548675293 1.2415555008 7.2033439010 1.5715969004 2.5334149555 0.8741693899 5.1778733409 6.9032049295 3.8557804363 3.1194199832 6.7603545856 6.1174358300 1.3661668999 7.8406556815 2.0757316611 4.7053852803 6.3777790715 8.4310612673 0.4530840477 1.7746596936 5.0076540134 2.7021984185 3.1477333213 2.1904207289 3.0794129054
6.3386913200 4.8363856872 4.9594648941 2.7343485744 8.0546990010 5.5572455973 1.5147869420 3.2565945529 2.2639928542 5.9885688786 1.5769452715 -0.2439838398 7.0144685045 6.6202126632 2.3605416244 1.5684465790 6.5620169062 2.9258071215 2.5817308384 1.7507283784 4.9894894222 6.7113904191 3.3847926473 2.3632002125 6.2029241433 7.6429702797 -0.2240024148 2.2346588590 6.6530417059 4.3723127157 2.2195401015 2.4615536796 0.8167060848 6.1771298400 2.7270261538 1.0936050169 6.1719346447 7.7383578421 3.6268900724 4.7773965465 7.4491858941 0.3245885865 -0.4906092283 3.3885173964 2.4623273599 4.0331419769 1.0640265814 5.0525791834 8.7598270697 6.9354585271 2.9185949507 2.2002117450 7.5852357991 1.9631455022 1.6613580904 0.4528023333 4.8184611926 5.7502954528 4.5907589613 2.7625940937 7.0975988561 6.4307879645 0.4816669419 6.8120263475 2.2678294850 3.5500573320 6.6803261537 8.9607702042 0.3974525420 2.0353019544 5.1279052199 2.3216873751 2.5838429130 2.7589193044 3.7930731522
7.2923247894 4.7383116921 4.7566573819 3.2857920039 7.0368956570 5.0976088696 1.2688063092 2.2952675145 2.4007506934 6.2178753830 1.8276133652 -0.3164716224 8.3102293565 5.9495592854 2.0980511847 1.5150317191 5.7535646689 2.5138365878 2.9786157987 1.3598678640 5.1363854025 8.0244641829 2.7016307247 2.2739256538 6.5325366468 7.4448180748 -0.3505427529 2.1264031951 6.0201794766 3.9233316914 2.6221199530 1.4435901175 1.5743377359 7.2100668103 2.8987497272 0.8976092988 6.9324597371 6.8608466685 3.3472300675 5.2228210444 6.7287821032 -0.1986684566 -0.9061681574 1.7753450489 2.5006200925 4.2840711298 2.2622525349 4.8992561209 10.0508545629 6.2993188644 2.0936577555 2.5568192477 6.2599252435 1.4189263632 3.3115249813 -0.0667460775 4.6564805663 8.7122386245 3.9920441156 2.5028555715 7.5635132239 6.7911823721 0.5377648442 6.7683256717 2.5289889957 3.3088702633 6.4077965789 8.9335699829 0.0300614084 1.2333645093 4.2828703805 2.5097980216 1.8507262748 2.0007586163 4.3449055564
5.0303532471 3.4214657075 2.7630704103 2.7864913810 5.0689077908 5.1151283260 2.3818953110 1.5780223703 3.0161092288 7.5138924091 1.4429145417 -0.2015736897 7.9116987460 4.7039520857 2.8553440145 1.0409359229 4.4166527614 2.3031200771 4.1011215167 1.9605636423 5.2693486225 9.1273908495 1.5887189925 2.7831751395 6.0841199183 5.0942587621 0.4003747013 1.2831590076 4.9600316316 3.7396682944 4.0751506754 1.5096938545 1.5072744872 8.7829725733 1.6611941310 1.2714651374 6.2442298517 4.8095140664 4.1749142117 4.5624206064 5.0728726452 0.6551980796 0.4859260097 1.3804584389 3.1832217558 5.5177150394 1.9307936865 4.6892491097 9.6182198536 4.2534644028 2.0902131439 1.6059618531 5.5381479248 1.3399240066 3.2075471915 0.7089881302 4.6029496985 8.4688347099 2.7452357507 3.7001559826 6.7247418626 4.0619325515 1.4147459602 8.2427051848 0.2690123091 3.3178587596 6.7679785955 6.3908842857 0.7473316824 1.8563205685 3.1524239185 1.9119167854 3.4007960747 3.1764819218 4.6428571316
4.6051143546 4.1771335740 4.7434568694 2.4278056599 7.7890812901 5.1115542024 1.8415736185 2.9473160782 2.0860989304 5.9732913127 1.4020254265 0.4357946239 6.9335795047 5.9183403511 2.5431497435 1.6376755854 6.1890413735 2.3411325950 2.9408477023 1.7396048487 4.6042683731 6.9939272480 2.7149677457 3.0279920540 5.6977538887 7.6917283843 -0.0592344327 2.4539455494 6.8901331891 3.5261620046 2.1072187841 3.2806341193 -0.0169295109 6.3545093045 1.4503634084 2.3519813359 5.8418873021 6.7684440063 3.7344357092 4.3046104227 8.1193215304 0.3352680107 -0.0440108773 2.8782590452 2.1517045880 4.4386588045 1.7599361279 5.0736214155 8.6639571379 5.9139391012 3.2447264542 1.4875273354 7.2982922036 1.2968842082 2.2959110115 0.4213599937 5.1641867586 6.0907030623 4.0401631511 2.9457179769 6.2089727608 6.5066426671 0.8603249986 7.2546974587 2.3742879702 4.6180254996 6.7695583929 8.8160237431 -0.1567052136 2.4513402484 4.9404713654 1.9301294886 2.9314558051 1.7615017781 3.0467446563