-28926.7891506504
-28926.8277335158
-28925.7006687784
-28925.6030977856
-28926.8092191718
-28926.3528182386
-28925.7222529731
-28925.5902591892
-28926.3468607173
-28925.6932451085
-28926.5602030276
-28926.2067633875
-28925.5564855253
-28926.2436198274
-28925.0309327459
-28926.2780690136
-28926.1037382838
-28926.5178791431
-28924.9663476478
-28925.3775819248
-28927.3103517875
-28926.0080788897
-28926.2448412098
-28926.0188656128
-28925.6094789879
-28926.7187930684
-28925.1105340303
-28924.6878723386
-28925.2117317544
-28926.2624819327
-28925.8321930301
-28925.6380522869
-28926.4397257758
-28925.7440854715
-28925.7041657115
-28926.1645410014
-28926.2833314204
-28925.2730713524
-28926.2197962731
-28925.1624529159
-28927.2967104557
-28925.0743415477
-28925.7770215694
-28925.1382854098
-28926.7324929047
-28925.2640631644
-28926.2706875213
-28925.8678434622
-28926.3167531052
-28926.5609860348
-28925.41296242
-28926.3893803876
-28925.8317120691
-28925.3900527595
-28926.1560149989
-28926.8329998682
-28926.4135140155
-28925.7560899034
-28926.6988030518
-28925.5372304878
-28925.6404119209
-28926.8475224403
-28926.1301029719
-28924.9526309405
-28926.2839900716
-28925.7762229157
-28925.8906944822
-28927.1553501101
-28926.3451689864
-28926.3525810915
-28926.3895877382
-28925.7596280618
-28926.1647669918
-28926.5638089423
-28926.0374950609
-28925.1566084579
-28926.3528630013
-28926.3778872573
-28926.3574745121
-28925.6899559342
-28925.1876224807
-28926.1765195825
-28925.2334974489
-28927.775620498
-28925.4706658987
-28926.1809562603
-28925.4874008912
-28926.6971371718
-28926.2016437043
-28925.8448814198
-28925.7250451317
-28926.9067160136
-28926.5894755227
-28925.9276435769
-28926.8359776084
-28926.5448502367
-28926.7482035252
-28924.8067973178
-28926.2811870284
-28925.1414551262
-28926.239557442
-28927.7346890193
-28926.4770392307
-28927.6669303953
-28925.7113911466
-28925.9010371157
-28926.7802723967
-28925.454212952
-28926.3164698349
-28926.4593546975
-28925.9745147534
-28926.3739006556
-28925.3898557492
-28926.7618267615
-28926.0367285166
-28926.855914971
-28926.6170696206
-28925.2569071183
-28925.4991405564
-28925.8999532868
-28925.3723348923
-28925.7495382219
-28925.3330848042
-28926.7549343936
-28926.7589509278
-28925.4304876307
-28926.4888884217
-28924.7720264933
-28925.9551662449
-28926.7635867929
-28927.3230052106
-28926.033474581
-28925.9981919106
-28926.2946918952
-28926.4754288618
-28926.378365089
-28925.3328709228
-28926.478346601
-28925.8056959586
-28925.445501368
-28925.7807507516
-28925.9956988049
-28926.7189479011
-28927.0144258267
-28926.7761070163
-28927.2313079281
-28926.3070395986
-28925.6605314635
-28925.6395325854
-28925.3764546938
-28925.826185712
-28926.4747356522
-28925.1217085154
-28926.3823590378
-28926.3461424732
-28925.7125102142
-28925.7085747698
-28926.2542111729
-28925.7236700052
-28926.5823767566
-28926.2487728446
-28926.5333303032
-28926.6915811543
-28925.7505322532
-28926.3739380712
-28926.1354215702
-28927.0927572925
-28926.3054886865
-28925.6441646409
-28926.2284157466
-28925.7385980266
-28926.179043301
-28926.2221062463
-28925.3581003526
-28925.480093686
-28926.3260272843
-28925.1658416838
-28925.5828298049
-28926.8317037907
-28926.5101606381
-28925.2431989826
-28926.2710675281
-28926.7762583115
-28926.5160430559
-28926.3823652964
-28926.6719326404
-28925.3674243285
-28925.9169779444
-28924.8780643038
-28925.2415492933
-28925.2569264384
-28926.8155481282
-28927.1117919179
-28924.7771063118
-28925.8145763892
-28924.9270084425
-28926.2632356877
-28925.8027707364
-28926.4995194958
-28925.5007442585
-28926.3266259345
-28925.4892153453
-28926.3923000315
-28925.3887746415
-28926.5188046018
-28926.3183362627
-28926.2236011029
-28924.7750664115
-28926.6687618355
-28926.7250037915
-28925.0625871883
-28925.5445387815
-28926.4779004706
-28925.3846534795
-28925.1729120141
-28924.9151710884
-28925.7104263675
-28925.4657471715
-28926.3061021669
-28925.5115655401
-28927.1743924907
-28926.9349737967
-28926.2709027633
-28925.6347814802
-28925.4172962389
-28926.5759170495
-28925.4939158374
-28925.4529125207
-28926.5830203055
-28925.6193020204
-28926.033599073
-28926.4906621949
-28926.6087447101
-28925.052403197
-28925.6722586116
-28925.6919010029
-28925.6776822458
-28926.5232969269
-28927.3097404841
-28926.3501673069
-28925.878950327
-28925.3418995193
-28925.1277709365
-28926.6703300268
-28926.1502155757
-28926.7525147586
-28926.6689139471
-28926.7441838616
-28926.2815771034
-28924.9172051383
-28925.6743861325
-28925.1449928764
-28925.2987973897
-28925.9871536184
-28926.4039335725
-28926.5240282324
-28926.3599850331
-28925.8833570723
-28926.2032871349
-28926.2656715135
-28925.03063138
-28925.3976504461
-28925.7966530762
-28926.2293199804
-28925.7387459204
-28926.6810538916
-28926.7144011533
-28925.3279217189
-28925.8098152158
-28926.6134841144
-28925.882963732
-28927.242254654
-28926.7157592728
-28926.0513676894
-28927.1971601079
-28926.322443819
-28927.0173329534
-28926.0752059379
-28926.7369316234
-28925.8074504117
-28927.2579357502
-28925.6647245996
-28926.6756018215
-28926.7309375028
-28926.181455861
-28926.1087759247
-28926.4525386575
-28926.6798757753
-28925.8622802336
-28926.1217580611
-28925.7512877769
-28926.5948650067
-28926.5528222156
-28925.7606981489
-28926.3221691202
-28924.8855828053
-28926.6776834913
-28925.9573393449
-28925.4454461289
-28925.5800134281
-28926.3036007617
-28926.5100462142
-28926.8512351596
-28926.7956575692
-28925.7296414042
-28925.4668663751
-28925.6109881305
-28926.6585854634
-28926.2314828762
-28927.2680793325
-28925.0897557003
-28926.3298808225
-28926.6710232364
-28926.3719244298
-28925.6680045221
-28926.3274181935
-28927.1764304863
-28925.0489995989
-28925.563365376
-28927.0063426893
-28925.9187189278
-28926.3324899847
-28926.3089618097
-28925.6168055132
-28926.518347859
-28925.8077829347
-28925.8594001823
-28925.2818146376
-28926.1118482244
-28926.7717322444
-28926.833602328
-28925.4368096483
-28926.399289408
-28926.238722189
-28926.7451060549
-28926.6356518569
-28926.2653564058
-28926.3982708864
-28925.6318780271
-28926.6724518333
-28925.8812778515
-28925.780856876
-28925.5822616315
-28926.6714103181
-28927.5758448243
-28926.084946928
-28925.8569307504
-28926.7112344301
-28925.0552139955
-28927.0054881162
-28925.749555365
-28926.2163147144
-28925.5213439458
-28927.1702909209
-28926.479974113
-28926.7431422104
-28925.3830131781
-28925.7148259018
-28926.4517312961
-28926.1790356818
-28926.8604629433
-28925.2356343578
-28927.0276799408
-28926.1632449238
-28925.480416957
-28926.5293517288
-28926.221047724
-28926.7314040417
-28925.3766869428
-28926.1100057425
-28926.1749308466
-28926.4372503574
-28926.3271161473
-28926.1006478885
-28925.7035500543
-28925.4911644958
-28926.1856646436
-28925.0474158972
-28926.1926028627
-28926.2796744844
-28926.7126335027
-28924.879158473
-28925.4595705987
-28925.8081549141
-28926.4438463935
-28925.6509946947
-28925.622359898
-28925.2706043696
-28925.5329046964
-28925.4688066818
-28925.8676795137
-28926.2648049674
-28925.4177064503
-28926.1293934354
-28927.1953206193
-28926.3317384066
-28926.2789298453
-28926.3965719445
-28926.2204821357
-28925.8304308218
-28925.6562036312
-28926.7665994997
-28925.8069578859
-28925.641568268
-28925.9377132804
-28926.2594997026
-28926.8229920706
-28925.2842778108
-28926.0937670854
-28927.3286038139
-28926.0301761548
-28926.5235069987
-28926.2509649925
-28927.2476151578
-28927.2829454481
-28926.1310771389
-28926.2621423348
-28926.5881152264
-28925.9798295421
-28926.8220123252
-28927.145106662
-28925.1568366252
-28925.9113759396
-28925.6966228559
-28927.0565328366
-28925.7915317603
-28925.5356325001
-28926.0125162478
-28926.2440573863
-28926.403355603
-28925.7118209502
-28926.6795372659
-28925.1349750106
-28925.3903231045
-28926.3853946022
-28926.0669464708
-28925.4726351855
-28926.3305627394
-28927.0099216647
-28926.1225903208
-28926.8071260732
-28927.4661885819
-28926.3208874647
-28926.7530811632
-28925.4905413554
-28924.997676098
-28925.2062749223
-28926.5057779748
-28926.2806947747
-28925.8056243927
-28927.0740136927
-28925.2478083165
-28926.2243973076
-28926.8243527752
-28924.8037861076
-28926.7084930207
-28925.0208756957
-28926.4497112601
-28926.1799011394
-28925.1551199959
-28925.7416195772
-28925.7000524409
-28925.7793568492
-28926.4220413786
-28925.4889543883
-28926.834794186
-28925.7581421849
-28926.4220484535
-28926.2773020611
-28925.7620980378
-28926.4320464551
-28925.799328226
-28926.7405593071
-28926.5108715351
-28925.3970047203
-28926.7127937777
-28926.6403538456
-28927.0409223539
-28925.7093734235
-28925.4606605501
-28925.7929098801
-28925.2149062328
-28926.3049299011
-28925.4933155545
-28925.7636792905
-28926.4531990774
-28925.7590257381
-28926.4543706629
-28925.4274455356
-28925.0225128678
-28926.6670507846
-28926.5988441253
-28926.1812860621
-28926.0555781046
-28925.4179457743
-28926.2873278183
-28925.9555487007
-28926.4507595781
-28925.2564178579
-28925.6799621504
-28925.8483056986
-28925.5626622342
-28927.2050207923
-28926.3246585524
-28926.2709926968
-28926.3962467686
-28926.2683104721
-28926.7701244606
-28926.0751170928
-28927.161112934
-28925.9693986077
-28926.2732342334
-28926.192826132
-28925.3474932246
-28925.5439636692
-28926.1036078052
-28927.0073308702
-28925.1803718751
-28926.6278896776
-28926.249216662
-28925.9234775161
-28926.5308641367
-28926.3000792023
-28925.3932207072
-28925.7690743528
-28925.7677774589
-28925.2069677238
-28925.4381425972
-28926.5718622833
-28925.6457812684
-28925.4819241948
-28926.3938201947
-28926.3081038352
-28925.4851959539
-28927.327278076
-28926.0156010648
-28926.4420391504
-28926.3387051976
-28925.6549293228
-28925.184839982
-28926.688483684
-28927.1873810218
-28925.7268043468
-28925.4992529394
-28926.3540744515
-28925.9859349572
-28925.3065724944
-28925.0394869121
-28926.845944453
-28926.2335842742
-28926.2759789083
-28927.0694561964
-28925.5635339504
-28924.9639371286
-28926.7590218135
-28925.4457138888
-28926.5982447949
-28927.0128966838
-28925.7231497238
-28926.2023016752
-28926.0726419466
-28925.3046709639
-28925.7285915896
-28925.0472539895
-28925.6018304161
-28925.9654737757
-28925.3800825136
-28925.9171130488
-28925.6167074162
-28926.3253001965
-28925.3735515127
-28926.2411214155
-28926.1020043753
-28925.8035068039
-28925.8631628344
-28925.7753550091
-28926.6974090134
-28924.8315438818
-28926.1746894818
-28926.6437136334
-28926.4493571041
-28926.2485205952
-28926.8392613405
-28925.3292274565
-28924.7927640062
-28925.9250455713
-28926.1705292715
-28925.3795363814
-28925.7172081211
-28926.9709102203
-28925.5169518947
-28924.8658197316
-28927.1473083339
-28926.8466111315
-28926.1969711039
-28926.1766095161
-28926.1806957114
-28927.3204550971
-28925.6238445504
-28926.1832499067
-28926.4807295006
-28926.6833932531
-28925.7916377486
-28925.7282730805
-28926.7653326744
-28925.1146485254
-28926.0486949886
-28925.3537968745
-28926.6431494057
-28927.3437330635
-28926.1266231819
-28925.2701570146
-28925.5033219916
-28926.42040788
-28926.6472772344
-28925.2164907509
-28926.9806663127
-28925.698765071
-28925.7430231396
-28927.1301454427
-28926.0488285965
-28926.3505018707
-28926.8273209914
-28926.1890761331
-28926.4039077217
-28926.8084862335
-28925.2688806653
-28926.434688407
-28926.7052588133
-28926.0571675208
-28925.3655885135
-28926.6839563924
-28927.2915041043
-28926.2931320035
-28925.7301725702
-28927.1615631461
-28926.2698445131
-28925.6285963359
-28925.210371322
-28925.3997134761
-28925.5548830477
-28925.8035970096
-28926.7245097691
-28926.3243263016
-28926.3039945102
-28926.5268236565
-28926.8176397302
-28927.0129957332
-28926.5803818911
-28925.0785360443
-28926.2787892985
-28926.3381477727
-28926.7235123363
-28924.9562146779
-28926.3711196536
-28926.4100717772
-28925.3459851705
-28926.3710644145
-28925.3954512232
-28926.6582654577
-28926.4008418166
-28926.1060058072
-28926.6498500695
-28925.2428532621
-28925.4924469676
-28925.9223200805
-28925.7254533023
-28925.78823796
-28926.2105192368
-28925.5560581707
-28925.4918990667
-28926.8233229609
-28925.7019513863
-28926.2623902304
-28926.2875136719
-28926.7213464473
-28926.2870976101
-28926.3594058391
-28926.2688284405
-28925.6334726134
-28926.2406997753
-28926.4904036869
-28924.9367842632
-28927.1706909281
-28925.1374762797
-28926.2264723106
-28926.4202946807
-28925.4360316752
-28925.7824732313
-28925.8012751995
-28925.9713160568
-28926.6310754487
-28925.6142719986
-28926.72981068
-28925.8246462288
-28925.739907982
-28925.8458490561
-28926.7408931907
-28926.3426405059
-28926.6476044512
-28925.8085170974
-28926.8770455522
-28926.3015626301
-28925.7337526341
-28924.7052371382
-28926.8174755096
-28925.7417584912
-28926.6704877166
-28926.4847091635
-28926.5470000709
-28925.3598934459
-28926.3612930837
-28926.8573262887
-28925.4611377014
-28925.8800376934
-28925.8064479448
-28925.8604053703
-28927.0102027582
-28925.5055959097
-28925.8445376041
-28926.8195743225
-28926.2514086739
-28926.7430536374
-28926.3286840664
-28926.2883119174
-28925.4349826769
-28926.4854621021
-28926.6149874066
-28925.5289325166
-28925.2078711413
-28925.5123541256
-28926.3861997866
-28925.8533791224
-28925.6905404344
-28926.4791589964
-28926.4713754562
-28925.5644509736
-28925.5916669694
-28925.3151900631
-28925.4377148345
-28925.4987809582
-28925.2205490546
-28927.1901018867
-28926.9157339976
-28925.302833244
-28925.8034755109
-28926.2624409796
-28926.4170331259
-28926.2739903013
-28925.3893366923
-28926.3424625436
-28926.762589088
-28926.1313759198
-28926.7123832942
-28925.3531929181
-28926.8289607485
-28926.7201120035
-28926.2698487308
-28927.1808013125
-28926.2515362952
-28926.33378062
-28926.0715079127
-28925.6051391826
-28925.6385224994
-28924.8861113862
-28925.477205063
-28926.5279707518
-28925.1243771344
-28926.959895738
-28926.3677945602
-28926.4552355763
-28925.3694791951
-28925.7130390672
-28927.0856728123
-28926.1872555564
-28925.345732785
-28927.1628771832
-28926.6345429936
-28925.896959628
-28926.1765651615
-28926.2762473484
-28926.3935612785
-28926.6810966134
-28925.6172615758
-28926.20583616
-28926.6011259347
-28926.8353660329
-28926.6859288085
-28925.2032690184
-28925.6811089736
-28925.384377148
-28925.3237611004
-28925.958100855
-28926.8003577892
-28926.7159515211
-28927.1931812614
-28926.4593721127
-28925.7406128925
-28925.275320236
-28926.6989505375
-28925.7936981935
-28925.4943380218
-28925.7775128707
-28926.8201177336
-28926.0867167555
-28926.3412327257
-28925.0905837423
-28926.2839707515
-28926.7277635686
-28925.3569846865
-28925.8076796675
-28926.2241737662
-28925.660551736
-28925.9058610113
-28925.0791046259
-28926.4124439284
-28926.2658060737
-28925.6451907816
-28925.3439981962
-28924.9309256552
-28926.3360349459
-28926.0590410236
-28926.3858412768
-28925.0728171668
-28926.0276171975
-28925.8073048309
-28925.6063070946
-28925.7658560641
-28925.4104657768
-28925.3471571642
-28926.2536385096
-28926.5257894884
-28926.4902342961
-28925.3660716513
-28925.4286231076
-28925.2100827454
-28925.6049067975
-28926.4679107685
-28925.7541212968
-28925.2215130174
-28926.7250363091
-28925.7787041845
-28925.7942994287
-28926.7342544327
-28926.14921583
-28926.0283193869
-28926.6932618645
-28926.0767722243
-28925.8970228944
-28926.7473705851
-28926.6936026869
-28927.2119500316
-28925.4237364898
-28924.8784681205
-28925.0676927216
-28924.8981018042
-28926.9616871986
-28925.8426072295
-28925.4209572566
-28925.6596743054
-28926.4174295956
-28926.8292893258
-28926.1892351835
-28926.6755761068
-28925.7032018848
-28925.1656747421
-28925.8065550216
-28926.476130507
-28926.1623197373
-28926.8342728161
-28927.1956772243
-28926.6793720929
-28927.1878106893
-28925.6985669722
-28926.2181667202
-28925.4441335885
-28926.2059285426
-28926.3618045214
-28926.5673145831
-28926.7871070765
-28925.9056883552
-28925.9609108372
-28926.3603419102
-28925.2812470085
-28925.5875837673
-28926.3466560878
-28925.9774783437
-28925.5410559983
-28925.5011612728
-28926.3932735183
-28927.2388242527
-28924.6828483033
-28926.7067101317
-28925.7039476124
-28925.0007377853
-28924.7495765689
-28926.3391954105
-28925.500367245
-28926.094572542
-28925.3887531445
-28925.6978519934
-28926.4066245048
-28925.5499254082
-28926.0695295101
-28926.714414759
-28925.8262385021
-28927.2148128038
-28926.2297421648
-28927.1555467122
-28924.9731198775
-28926.1033234464
-28926.1551179761
-28925.6929834712
-28927.0220674597
-28926.7419304881
-28925.8646568747
-28926.1981156141
-28925.7113448873
-28927.7877155438
-28925.5906956596
-28926.1911203872
-28925.5291288467
-28926.3424045834
-28926.244174123
-28925.9206781464
-28926.3128809273
-28925.0248934545
-28925.6692645445
-28925.3853217908
-28926.232449288
-28926.3781532485
-28926.996620611
-28926.6911142072
-28926.3713731275
-28926.5608171882
-28925.8362864365
-28925.4773136363
-28926.262286419
-28926.7084060803
-28926.7557937287
-28925.3654549056
-28926.0472642148
-28925.5932846853
-28926.4724131618
-28926.8052454954
-28927.216486167
-28926.8232629598
-28926.4593455816
-28925.1173311583
-28927.2697812677
-28925.4093086133
-28925.6500568549
-28924.8490912698
-28924.9043168811
-28925.4006436968
-28925.6327747778
-28925.1482321179
-28926.7032048991
-28924.8567602502
-28925.8079319169
-28925.456474625
-28927.2246412785
-28926.7935156263
-28926.3123670406
-28925.6169113654
-28924.7207359182
-28927.0070133135
-28926.7981970703
-28925.1628269362
-28926.5175142387
-28926.1409796286
-28927.1110104073
-28926.3341735521
-28926.6792452879
-28924.9243932938
-28926.2877490503
-28926.2905886928
-28925.5822334677
-28925.1514625157
-28927.2183451117
-28926.7420957972
-28926.830871803
-28926.4880164334
-28926.2458617722
-28925.5749315687
-28926.3922442482
-28926.3698233039
-28926.2766662675
-28925.8661023427
-28925.8126613891
-28924.9335167219
-28926.8197790881
-28925.1114305088
-28926.3575002269
-28926.3107057864
-28926.0477736116
-28926.4598293998
-28926.254962887
-28925.6959169929
-28925.802092493