0.326283106904151 0.159230907565411 -0.107345044152371 1.05760705492396 0.933437234602522 0.490166166124611 -0.833261965019219 -0.97933731584019 0.452996775378295 -0.341174928715826 0.0605921284369867 1.80133348396158 -2.10065267462167 -0.0801098766650235 0.501291837972588 1.24001027486159 -0.633632619916524 -0.0926961914638312 0.259805212153061 -1.17744611131937 -1.42086029218244 0.290271740423024 -1.28039251445733 -1.43543484002803 -1.34780423339385 -0.0786415204086962 0.444048569671946 -0.465772323271947 -0.085066960997363 -0.157612913182454 0.666989066645797 0.0838330892281256 -0.961649420786077 0.215820087559961 0.00868980997222033 -0.751639252036172 0.379803162641691 -0.546928895492829 -0.649731316928199 1.24000461843756 0.539330518248346 -0.547010142310724 0.0755929649663441 0.583849146471613 0.407243246945058 -1.70473050326383 0.397678491019366 0.0175161454517266 0.765368935819726 0.713422137293264 0.604056464211026 0.186411567693917 -0.191406704333372 -0.194976165006913 0.632062190917461 0.566150195679622 -0.455299454179147 -0.167828157871675 -0.001172936655816 0.649861671791088 -0.73752801674073 0.830642526472649 -0.57271421865704 0.536570697541742 0.377706943317958 0.0550691445913963 -0.388396299185023 -0.364906712846718 -0.151100055131495 0.0265219438391152 0.434714698690778 0.218647785354933 0.188026476754676 -0.270235400955447 1.85583775748046
0.412550772457117 0.156928742984925 -0.0567935825902034 1.06516583720023 1.26722230243245 -0.13332474261509 -0.592469793804549 -2.00996219969708 0.26164509262413 0.356339801542073 -0.0229262579268866 1.43656278240178 -2.08248758306752 0.209066317267331 0.0339804531439303 1.36239523629117 -0.318632022072109 1.74350837531633 -2.45095758594338 -0.312987167999676 -0.865972808078445 -0.196132132390637 -0.437397900562785 0.317956079400443 0.151351251780494 0.183071706413985 0.639258190725216 -0.674631923951975 -0.200375993074745 -0.11471665021526 0.155217674715645 1.17388076440876 0.888305141482111 0.656112020344987 -0.330908004879779 -0.358748152628226 0.500781217148728 -0.617410510016906 -0.827215504840607 0.226314039687784 0.322852999949911 -0.0205009375686419 0.408643469002834 0.79511041337303 0.0560019403360917 1.38996181880468 0.490222473254735 -0.230466112036485 0.206029588893407 0.441620935322052 -0.00743536938832593 -0.348667119454642 0.521703558307655 -1.03756685880364 -0.409875283890606 -2.0113925036463 -0.389867740763549 0.104177446695191 -0.838580803379338 0.305748230791325 -0.217587462959364 0.964382244923444 -0.0958221370713303 -0.0260187792105681 0.628142803284568 -0.854995231695999 -0.437422840250556 -0.470718866086775 -0.1382394037672 0.0838235761513467 0.131279688217817 -0.157758437546153 0.357386754208115 0.285807022091537 -0.393542616612207
-0.168294041523656 0.341850614277309 -0.143613263706527 -0.24871527862055 0.559467130687376 -0.886807988885263 0.0263026288528348 -0.77779249987256 0.54121230767928 -0.505761955617923 0.526345425555376 -0.845966550502304 -1.17230133655328 -1.01829927878386 -0.609347534671358 0.274106194763713 1.63344670496813 0.9547845788943 -0.290499282935167 1.74365441390039 0.234142787656425 -1.00379620756921 -3.53186730810245 1.09213515275813 1.23786263350122 0.791230620708352 -0.96782649293776 -0.401564454328441 0.85234391148671 0.230458655841171 0.83004320263558 -0.170934048884884 -1.27640910638882 2.01218414590041 0.590172257207361 0.692504424117635 -0.24880089631156 1.34006650243007 0.707090284811287 -1.62016362157282 0.142242352209637 0.0189855301487867 -0.310014974281738 -0.038189346843121 -1.52023157822284 0.415679289166448 -0.857672005813426 0.364406376430186 1.65329715377325 0.0495214781682174 0.300679046419105 -1.09168289594586 -1.03135173434484 0.534202969864537 0.156680888768308 -1.18420733780731 0.0802895966830892 -0.0591715946747369 4.2454565670148 0.00268577297383909 2.0209708864117 -1.66369186137035 1.75507499112851 -0.48580917695989 -0.54187899438435 0.718421901916017 -0.990033870792385 -0.714672978334594 -1.06443307317807 -0.033731056266214 -1.53693936925854 -1.03985951030734 0.00321413440034104 0.251698528076367 0.127420464367796
0.135117571922632 0.47484008521349 0.0321050914675774 0.925569148775849 0.0311985209615697 -0.369285556377012 0.117226302713598 0.248397747544283 -0.76588058508432 -1.10839351519358 0.241215631686421 0.468039520867516 -0.166305037146323 -1.70951043867994 -0.741934113950445 -1.98274682969384 1.15320473480535 1.08981807578702 -1.92221897880266 -0.490962693472204 1.74634584329826 -0.924584673884328 -0.373608349887366 0.163672743090593 2.40547839407563 -0.184007330370696 0.372684552999083 0.210039736420974 -0.202362940570612 0.0435606356806159 -0.213335117639211 -1.47007143835952 -1.68754602994845 -0.137925472233497 -0.797192234526503 0.292547422654639 -0.413111015546337 0.871176975296852 0.590024418852013 -0.384975448197379 -0.246988783740278 -0.963174084172528 0.578964824321122 0.647275657568335 0.0277689282276964 1.40888332851784 -0.562706718995855 0.28169608737215 -0.145938053983135 0.523172943004715 0.260769632450291 -0.0993532883275725 0.72465733807929 0.474209651044253 0.957251808212408 -0.079072951296127 0.0372251836560736 0.39967726558366 0.416311265996784 -0.156795302799838 0.246307955975131 -0.417129133489584 0.00906673350081004 0.0476258047873908 0.300802973527413 -0.788278481584704 0.453516137948384 1.11108828702384 0.348358330124604 -0.148316066067669 -0.741793474680228 -0.417523540510632 -0.238454268318718 0.532064327360574 -0.347475156645268
0.470051408051155 0.119344376402904 -0.0128380256681728 -0.0818847082597403 0.716244692884572 -0.417256145920091 -1.19159205648954 -1.74799957599669 0.489676628335774 1.2829906128587 -0.144842507492466 0.538629378778726 -0.931390123323783 -0.0258717121857705 0.139749926093574 -1.10009759802205 1.17579546394314 -0.709244611036426 -0.819127332697105 0.0856030357293613 1.39264116402394 0.0382569668213059 1.11001279512746 0.818811858502303 1.49335250833924 -0.146742037526041 -1.63152403501807 1.1072522030903 0.20507905254607 1.07323189786797 0.914687731601925 -0.555345654450478 -0.165480484788761 1.22948109863867 -0.744040360571323 0.120966998769159 -0.0642438643691556 0.00112768526357058 1.19059138365648 -0.565739590717031 -0.344683197165762 0.325862988864781 0.0934268986045215 0.464228633731938 -0.222110802412624 -1.27946691779777 0.595360740704591 -0.92907536034432 -0.662121456657215 -0.205586073827365 -0.745222810303918 -0.439276604671519 -0.790567276435663 0.566479039603951 -0.0128670791188759 0.315989186498867 -0.622705951350353 -0.137523609017136 0.269026725984165 -0.25754109987969 0.66662114197362 -0.236100167481223 0.652851349001484 -0.833726048899918 -0.593022066478089 0.0396913845334491 0.228548841400268 0.777767560184789 -0.080774249378445 0.253014675104232 -0.28297341076235 -0.267298174222426 0.341372389336533 -0.017805651518024 -1.28811173348793
-0.0548719410808722 0.0897553651882452 -0.0339418866164484 -1.25458507981737 0.419933691368067 1.07614855578634 -0.658517286108941 -1.16595045791775 -0.647734856355553 -0.94663984251049 -2.03410895966368 2.46897226804036 -0.434145456745145 0.0945530412069928 1.49305683162854 -0.742601057765699 -0.228804666032565 0.35461407799235 -1.58344597341841 -0.0587473628724361 1.46105946932773 -1.4071396072553 0.766089101442905 0.537920526003608 1.59589087761645 -0.463667876422352 -1.34468188732892 -0.616813243061303 -0.889605861898983 -1.82762094331361 -0.180791396199073 -0.410637101363465 0.515541141436415 0.383330200135002 -0.41719366814557 0.214565904086249 0.190857002761664 -0.0505388631631898 0.670157178323343 -2.30833445355241 0.0412587282103133 0.645121074233013 1.51802068775739 0.325868388178629 -0.264123891900483 -0.0249196331773341 -0.392382278355369 -0.486288430341398 0.728971389843414 -0.148265929581942 0.181534958848923 1.08374153371697 0.166485528494939 -0.216436380669121 0.870891582993486 0.76889777308432 -0.24015350951957 0.674567389295989 -0.613730749074767 0.266399574132098 0.0302469561734997 -0.562812648391339 -0.777307332956838 1.38715906069748 2.34392004557013 -3.11281190512024 1.47094021366859 0.383590909860779 -0.332742228926818 0.242201649239042 1.05270447795046 0.696245634393562 0.0359859125729888 0.983389372327621 -1.29749342696317
-0.119367773429576 0.257494305826346 -0.203695542650203 -0.60051142900489 1.15833999649465 -1.20804222312167 -0.337759991262396 0.121938103931153 1.08228757563091 -1.15873003264259 1.07457555568544 -0.85637025695582 -0.301465546469552 -1.24349566050522 0.219688824486761 0.325469867394649 -2.38131646460823 1.20461520148963 -0.555356967298539 -0.529149983433859 -2.57605711668732 2.14879809908934 1.693832373928 0.914886991993914 -1.41879595452142 -0.278419989417655 0.0344764186873474 -0.433592926961421 1.19719011650863 0.518199146510467 0.256379218961752 -0.0277061933429926 0.506125509416985 1.17601477892942 0.212847636731839 -0.901769744666773 -0.0596446774118482 0.940953850808743 0.639708904876388 2.09006616282789 0.37603444157616 -0.277900112627199 -1.87453815243606 0.147377871009126 -1.42627811796309 1.29807603863833 -0.202861991436228 0.297565184990217 0.98429285751143 0.40760114432009 0.143659543539505 -0.483894734535689 0.451489595484302 0.0572376118766116 0.158988195552459 -0.203051224531072 0.42910866825601 0.490522263728361 1.17237975515916 -0.476238764610167 0.445047956954093 -0.589763709126236 -0.113278632960552 -1.49222816550805 -2.30724636325705 3.05413601887873 -0.265648041066568 -1.10687450823116 -0.538779531125722 -0.669106369004553 -0.616763106575577 -0.588323634990062 0.396985836185791 0.274594447001634 0.0650380777250994
0.00457270460843655 -0.383997658170622 -0.0604121513087378 0.14423778434155 1.53335602463511 1.87725632129299 -1.40158165642479 -1.04505544999989 -0.950564372347048 -0.558064851748134 0.917052888177297 1.61599920793532 0.905806888763577 -0.775017509665147 0.752514712210011 -1.43712071149935 2.71576127716828 -0.620602275831308 -0.428842559216385 2.32227213947418 1.75694212527901 1.28503643858652 -3.84930222516152 -3.4690324075373 -0.508214272545405 2.43015608657056 -3.0342858271838 0.0907735215137672 -1.23894018227906 -0.756486036099913 1.16649630283671 -0.0315039678592263 -0.594650859488741 -0.879320169019562 0.436131632910463 0.0324578466389451 -1.02828415274893 0.312224064975901 0.846564588788457 0.476477362860188 -0.55475121570689 0.0535622218075871 1.75911290655587 0.40686400942482 1.45746764006825 -0.194978478998562 0.494932217590824 -0.778934583306391 0.197555494364902 -1.01863609312387 -0.960974506555144 -0.130855970635883 -1.34109340050182 0.320749067320682 -0.591949402793726 -1.43557573640843 -0.846511109870349 -0.981529694372444 3.19997585677188 1.12721038106218 1.15938257828758 -1.09477927388229 1.76855244982234 0.208324040168397 0.659819034966546 -0.0944417124976617 0.17359796749315 -1.16747846373658 0.328746222459328 -0.24875847313133 -1.11416538169652 0.0425139401247573 0.818126145643675 -0.378248160253621 0.186359117216542
-0.0485637427357504 0.0813020965845805 -0.0393540559730742 -1.29710621902725 0.393113242606242 1.05665471880534 -0.698135137129991 -1.29168427948367 -0.575051864442809 -0.849378145523353 -2.11613584985474 2.41334133769864 -0.299840095891282 0.162997571749476 1.54606138144874 -0.812032891411719 -0.283762996134996 0.479258780822182 -1.55406830677435 -0.112717875650965 1.13270971077092 -1.40686681335091 0.774660383620664 0.525736331531345 1.31345302736573 -0.261276653731586 -1.05542418946849 -0.639657997060112 -0.883456300536904 -1.8647355695909 -0.134999044128171 -0.423393365993376 0.452827082657375 0.38630239385294 -0.387904704514721 0.268842892203168 0.221378295500651 -0.133529402320928 0.565539301884309 -2.13066720318955 -0.0578824442161088 0.563248193041701 1.56761672787874 0.324910909856345 -0.28783125056397 -0.245331708609472 -0.367301951313527 -0.528431103361597 0.736453553285085 -0.135569828734903 0.179307099111386 1.096636894956 0.242567517029753 -0.277916567678924 0.945377945731283 0.8612057281715 -0.28172488371267 0.590151688392704 -0.756971974346185 0.308483883140707 -0.00106649303996597 -0.584797883047667 -0.913968594419479 1.34623406150497 2.32343556305322 -3.08001030216634 1.55247859451155 0.534148976726062 -0.364640089586726 0.301212035828904 1.11503621388707 0.672852721484144 0.0604180648429517 0.983007306595367 -0.895774706524804
0.114758044954757 0.474176226720435 0.0567359899091637 1.30730398022402 0.111298370329448 -0.335046964609136 0.33072314265805 0.0269639162440577 -0.46742836996202 -1.26598688800211 0.214250429891448 0.432611537392099 -0.235479760609131 -1.69732367310584 -0.663315219237872 -1.68372331574445 0.955365133687994 0.923313006918159 -1.27946254692465 -1.11816293082511 0.868744970073844 -0.91863051626149 -0.639560552300674 0.217433196849437 1.20870299629252 -0.164703497815092 0.430607620624139 0.0264409541314032 -0.0241562730433758 0.293682049893156 -0.175818628145557 -1.36355428899709 -1.21414319065912 -0.136538105684882 -0.72335764610315 0.501386968740377 -0.209354537782713 0.794124138710226 0.316058349138151 0.140706118864942 -0.409936219004027 -1.05898696527726 0.318207790269809 0.709037380228756 0.0864070192722672 0.738273636272047 -0.401035064461206 0.597184166123935 -0.303380246003936 0.408737057109524 0.178377902909256 -0.179176487138314 0.635113574571828 0.568726696825596 0.86708326695974 0.315868087602574 -0.139462476908742 0.664671475454318 0.133804510216965 -0.379737599544972 0.37946377719985 -0.244902334603507 0.0345772058791668 0.196597758932435 0.799830185006264 -0.887841057601412 0.68814872050383 1.04881851464139 0.58423789706863 -0.328887118839728 -0.475173300010933 -0.644786316774471 -0.264643254470573 0.634477998198927 -0.299336159932185
0.163042308921355 0.0325162106505344 -0.06643547157086 0.355759246748379 0.609507457205317 0.601748900316692 2.16805025249812 0.56936253030868 -0.476099153780682 -1.3536403774426 0.205608956633671 0.420189258890181 -0.339088736689239 0.102230865498088 1.425204425838 -0.967450597849904 0.106169279284539 -0.920165206945086 1.78910403809707 0.809950041817513 0.735229965923176 -0.498833093290526 0.0768672030343459 -0.161544899214325 0.321192582386724 0.150307127326468 -2.17907205183207 0.978415061613006 0.360905049955196 0.296903383378627 -0.623993816258066 -0.923555976041294 -0.308187435099463 -0.0469925424061381 0.525985985519245 -0.387566347513613 -0.327777174178799 0.0654368556192622 0.55315379013859 -1.38915680682104 0.356335430668959 -0.386584186613741 -0.428138591534748 -0.92055601442357 -0.184578886307978 0.788078192751982 -0.880786211284241 1.13651005638898 -0.201435544139764 -0.231478869048159 0.151603476870226 1.11973156005289 -0.50757123997719 0.396484214218343 0.164021641609212 0.209919665965414 -0.148407340182709 -0.572822719154356 -0.333902310073474 0.13625862691573 0.189413586193108 -0.859815790521052 0.281207578024046 0.134855833756122 -0.0484207894738842 0.29786394702311 -0.150435939528257 0.759750821206347 -0.395020743055497 0.447073213867259 -0.873059021837968 -0.0172248396141467 -1.71897106498143 0.638292999097436 -0.801471576415894
0.0140757540901584 0.35844116306947 0.119367773429576 1.90864356112903 1.2220770966927 -0.500932397936457 -0.322558094569766 1.00731990263014 -1.15097019020305 0.786828380151385 -0.0396278783181956 -0.444254257818516 -0.191042122093577 -0.897322766937927 -0.60373430515146 0.520587443002329 -0.372977658607945 2.12988430268167 -0.491911944268625 -0.963647681130006 1.88045785729435 -0.150348779176148 0.101934931677211 2.55563434061437 2.14823014269462 -1.40264866368512 -1.01313984873734 -0.459272577840332 -0.926131448746535 -0.85363640437772 0.43135838235912 -0.938826521152842 -0.137910559842871 -0.282604200539257 1.10237585135549 -0.278943979971042 -0.906117992085265 0.350378444834105 1.07257549557023 -2.06225789674217 0.595560772427131 0.472012901638884 0.962178810653312 0.0276028350493411 -0.507019481524016 0.755600548628929 0.196898063626427 0.370696577062483 0.279565158173684 0.366671517144289 -0.578145414167224 -0.74516778872471 -0.410512145814424 -0.0356172165702618 -0.297110614186297 0.40449113954395 -0.134263194783816 0.744225222793053 -0.923155912596216 -0.128391826639973 0.103024050413299 -0.0143503477658295 -0.0552252104726063 -1.29376327242512 -0.062740026907545 -1.55513839935688 -0.770422950691137 0.617014303224576 0.422040452209311 -0.250796328443473 0.162389249055995 0.246782067152975 -0.430943406523415 0.438785781331767 -1.29212908010062
0.0776490751014955 0.469668828098534 -0.183830438564646 1.4320872654426 -1.77567568744824 0.546261951677576 2.58160349755958 0.5835568121933 0.133922266680876 -0.204068609526044 0.0959085260928898 -0.312157730548632 -0.673247899835742 0.483266100137734 -0.372387847847656 0.162209014817563 0.722883792035489 0.529706369870331 -1.35866919551605 0.686209338391857 -0.621440969248947 -2.17637368045926 -0.786834036575416 1.38283446741584 -1.03284940116205 -0.605137869641618 0.065464366408866 -1.13383276805119 -1.0137959939249 -0.948847133433371 0.915143587956761 0.117259984147599 -0.809319607648276 -0.518619007439653 -0.385817484047401 0.211003642497839 1.18134467302742 -0.399819447514977 0.232433519158428 -0.710900914836681 0.396047126906881 0.916609116001073 0.602376763384098 -0.20311910161944 0.247220182905169 -0.903071493524378 -0.855009115645892 0.29619375927296 1.03163121311399 0.328617410257538 0.785325314020324 0.861486749601751 0.209215441173595 -0.342882911662907 1.12182520827479 1.10107795915064 -0.728917139594756 -0.980930884755742 0.424569902191757 0.775516560530762 -0.359788420429504 0.110403369781685 -0.672016342058153 0.72829081918845 0.934982723913813 -2.21218707209931 -0.0718211585786149 -0.360542267486683 -0.556285906390486 -0.580836843565093 0.723963140584616 0.408438295076631 0.00936292443187098 -1.00187893693299 1.22934380180083
0.00361214096395418 0.363953091177182 0.143693224973506 1.91935374292094 1.09756403427667 -0.68811992416331 -0.433519393449022 1.12137372279307 -1.23374732790872 0.876994093192038 0.0557294035418863 -0.426950742488306 -0.546150365858061 -0.742456818952916 -0.526493263910723 0.757739448243075 -0.506036549293594 2.45721153403984 -0.265750113809303 -1.00834885758335 1.30446959756428 -0.135315546763706 -0.029424974917769 2.66987122322776 1.83983419123657 -1.6508427799643 -0.756118882758286 -0.58981770226471 -0.871428686166217 -0.874586513436435 0.385700241803856 -0.984566679856551 -0.0988861191246752 -0.121327724356206 1.22697813100509 -0.190012910030177 -0.859267888720626 0.255463906709515 0.665852125415631 -1.56299337256421 0.481581771327508 0.328610211172408 0.753497644440433 0.0812247064194335 -0.563033248928535 0.319563532265889 0.227400587322041 0.102507516055225 0.469835178387073 0.404132213728186 -0.689387477366548 -0.885805773391101 -0.375727966237771 0.0142606163118883 -0.268573440731161 0.709823366058837 -0.244454191554168 0.887896850511169 -0.861491120474866 -0.308928683757665 0.111540053901668 0.113058803753905 0.113518259651306 -1.34462943685154 -0.178886209741467 -1.51748461302539 -0.724889251464547 0.662840079619295 0.455580989829765 -0.364081646268788 0.107007201371629 0.199901881896901 -0.223445461373681 0.30107962408455 -0.337273281685574
-0.647059685014437 -1.64880363910124 -0.753886137927267 0.598034943720186 -0.868974312357269 0.185263056505506 -0.546967204910128 1.39061924954315 1.74326283509136 -0.0840220652127869 -2.6492877532903 -1.60389343206894 -0.567591812476895 -0.119748039390548 0.946399187379004 1.23457393714775 -1.71231036857513 0.0692436289919083 -0.0750044397569704 -0.293628828085231 -0.427873253825673 -0.0835145297111251 -1.77666196211105 2.86609128730105 1.17060466645426 0.262166769185869 -0.139338549800434 -0.0949767587889272 0.349011389989964 -1.02322216746184 1.09131754237552 -1.38795635937562 -1.23354189687233 -0.280070893904063 1.64262810961066 1.00337197576691 0.00436778779241609 -0.624509065065224 0.175237302021313 -2.8572963192639 -0.973842614114753 0.476739615247065 1.47436697819045 0.866307308426805 -0.521167997796023 -1.38591233341908 1.71138888567849 0.517710894272546 1.04140577094918 0.177479817039294 -0.5135503372878 -0.730276481133402 -0.147135416106357 0.73089740222586 -0.0843966747497277 0.542356962214942 0.117673417322205 1.76801097577649 -0.352571080476542 -0.184466272047731 0.0211159451268865 1.99836961575639 -0.977948663740658 -0.869081527303669 2.03256167058111 -1.44441081363416 1.39801733795491 0.806367211414445 0.0503092637695809 -1.03985848186661 0.886551907142784 0.494110236335093 -0.455787449306885 -0.110378687204096 -0.553010579766541
0.208787352718546 0.112438396881813 -0.151087199622335 -1.77903431777155 -0.218179073490936 0.472898646220051 0.282093579715397 1.31069680620169 -0.809778292215127 0.0452902158830873 0.0911067363112108 0.0645595956741407 -0.729289949360415 0.171102713165071 -0.621862887059599 -0.170612918266051 -0.491620124210679 1.00089780447385 0.297968333757494 2.29868176594405 3.16540764974913 -1.13011212658992 0.198338137762601 1.91316278681936 4.01944925977559 -0.227820191141044 -0.8825404740643 -0.274501116005128 -0.11267828068275 -0.294994340268273 -0.0207580477518546 -0.556946679561343 0.0174464685920759 -0.321668750446034 0.852656300359314 0.181285047750841 -0.430778598895976 -0.189436726109597 -0.263453605652848 -1.80349295239038 -0.0909483564383518 0.388497086376843 -0.197423596840914 -1.02026797145672 -0.219261250252078 1.32274576071758 -1.49333862438934 -0.476458593816813 0.542623071254567 -0.150498160192594 0.566413476507232 0.410117481683192 0.517777485809998 -0.956714447929494 0.433663632261805 -0.307289863449868 -1.05593840983491 -0.382440598901086 -0.379515456346676 -1.28961171429679 0.0417148416753325 -0.706074699587597 0.925502814348581 1.14513456037467 0.830825331812913 -0.745856072685171 -0.838188453239756 0.439799823894357 0.328210661947696 -0.138688318147089 -0.395785902960737 -0.317804641502531 -0.532598345211107 -0.483023388124781 -0.938919852149348
-0.0654296565341322 0.226546724403591 -0.2499581492462 1.00928448154006 -0.898795751177552 -1.01533479837142 1.73674817726912 1.21910747407659 0.0304665282699633 -0.238479208006489 0.644224788134334 -1.50675077709663 -0.222301835278751 1.26514099549934 -0.332299228081143 0.196397212989529 -0.505245164149665 0.079238530254116 -0.0872637104027316 0.774209412359309 1.085824126201 -0.235963641973937 0.717444883219809 -1.54803907297801 0.346119414649188 -0.795158235867108 -0.423706526196529 0.23940120512349 1.75676034837947 1.32955686658107 -0.242507867467248 1.11606568306065 0.493457947800283 -0.422225828651408 -0.0986115254490041 0.576274166253802 -0.225260145046795 1.06879828986866 0.1809104382139 0.785770628857648 -0.472376198327763 -0.316794455592689 -1.00645884062656 -0.249364481833162 0.30519081591412 0.573599706128024 -0.749824568363057 0.0639620716083546 -0.642519890509451 0.611356593642982 -0.361119994068362 -0.0610927219637017 -0.133622219097067 0.710499308730503 -0.37825690199985 -1.6342910548098 0.359502771015955 -0.00173755061815093 -0.475464862958697 -0.335280420655493 -0.147977451956378 -0.483905790273567 1.53043756694546 -0.0325612049325966 -1.0655476458223 2.05466569014208 -0.879557481718667 -0.125708624767966 -0.518363954137906 -0.369046186796441 -0.895077423707931 -0.721528821369958 0.371319040816041 -0.816661388929912 -1.47081088724644
-0.0790300138955305 0.117787574243551 -0.00429811093276547 -1.16751085961966 0.393817210287878 0.971952340047774 -0.544138735784606 -0.60207285914754 -0.898390031308443 -1.05272350410402 -1.17125926898072 2.25667227599876 -0.859919920145254 -0.0989691657138529 1.2317611517434 -0.42124083953952 0.00929453312313643 -0.275982070660433 -1.45234471966774 0.233313864425748 2.24219645846352 -0.800680191271965 0.68412237503472 0.224022673734993 2.05770524672802 -0.844679456925142 -1.89623542368719 -0.356427990334915 -0.655926386792707 -1.2591732110368 -0.381865186311056 -0.283082425480032 0.748439258695908 0.372335654480463 -0.49736807946658 -0.0637723242931437 0.0377144643347272 0.219305216093408 0.82959660224734 -2.0116742964071 0.173148281782711 0.657442051322746 0.852848618776357 0.317208145877478 -0.0969084275954037 0.758924726187685 -0.456953443987754 -0.336823338864952 0.475534282708164 -0.210458054689061 0.181347782635545 0.947862401431667 -0.118699286953223 -0.00950099260025616 0.440331270643058 0.241210232372574 -0.0234322507674491 0.86644614792574 0.0567519307405229 0.0409124007935259 0.136543504998729 -0.420973444948979 -0.232458458846199 1.19438838684216 1.79395005083026 -2.36907184924291 0.973520712165371 -0.419906180578463 -0.185185923450543 0.0370038117883275 0.601971043514988 0.699632803947205 -0.0236027148189191 0.938467595337077 -2.43274312923405
-0.177042986838016 -0.709344884007879 -0.623088017082607 0.0552516928214772 0.542825674078939 -0.0951883604697112 -1.15471834245392 1.00191698924011 1.74886757997521 -0.64495035307136 -0.748187033606176 1.12330719137083 -1.86609054025643 0.362486791802321 1.54819359619812 0.704870395489429 -0.59363193183267 -0.146900674509083 -0.132314813815431 -0.0115779286602478 -1.41803645104021 2.08455449183037 -1.00696689034858 -3.21219373267815 -1.70693110932195 0.862726277795019 -2.09894109213203 -0.940756904408402 0.188773896057275 -1.47263277000468 0.0523016105792956 -0.0149039059902863 0.147567618324337 -0.680797169035231 -0.879973228884922 -0.304485562681568 1.2769531515365 -0.0291030729683868 0.18519929318007 -0.10787160580759 0.0912540604461916 0.891784613591527 0.548811713364495 0.600520427861302 0.0770404952978312 0.399650269014423 -0.479954778088139 0.383945979023796 2.88421035613241 0.831092726403454 0.601250363671443 -0.451815354086433 -0.0972313579855187 1.0881980245226 0.0038324843909674 -0.739954365539708 0.533487432224656 -1.62787435596737 1.69845058703887 1.48673089268078 0.734997281207369 -0.680136652974558 0.459082573414938 -0.734157816459179 0.354452098576926 0.782505072420665 -0.0181954305557743 0.0405455045620815 -0.728932309095566 1.29805624115422 -0.422582440475524 -0.676970083958111 0.200027094556125 -0.161496562499881 -0.279791672245094
-0.200389362804272 -0.0665552849162371 0.216136333085312 1.30295367592406 -0.612464224312262 -0.403877931756988 -0.541425452021163 -0.353595407446462 0.764182629434383 -0.126568915440995 -0.582955431474765 1.25773827910429 0.198443810047902 0.841059602655691 1.45072261152185 1.81507370926265 -0.435310937205648 0.735220452846397 -0.310205492927499 1.50772959556412 -3.90944466788807 2.09745242417123 0.180480292877385 -0.855957852221947 -1.95303337715051 0.691478297376433 0.293581005591154 -0.182536403012537 1.2038513271353 0.0887631769912277 0.117917157775891 0.481813941822949 1.26538653572431 -0.442837323598831 0.974837373413602 -0.371324440129888 0.547843950634883 -0.618083110256191 -0.0117010844380066 0.594049221660024 -0.193990147454293 0.0203050196090339 -0.116547274719734 -0.440287047691545 0.271760064341898 -1.39460934247643 0.27823075632281 0.656062140969443 -0.114152036252925 -0.00223762992449948 -0.273958356408366 -0.099573888864769 -0.0150250048865794 0.722811801184189 -0.525977757993382 -1.00612048362545 -0.574678797566968 0.0534442082334925 1.05312459598983 -1.16209200539827 -0.144416733029066 0.200820022361153 -1.03204413206823 -1.31608866385384 -1.78157533771224 1.49755805960605 0.00739063221644693 -1.92414884783786 -0.10756590179975 0.129746283085137 1.35608549528495 -1.55777249318389 0.604046694024064 -0.737161891839836 1.02018929574066
-0.208750328852163 -0.119978667224889 0.38179988032452 -0.165170409907806 -1.85747323535587 0.522936144525977 1.25508001692005 -0.610650826190063 -0.421710836954433 -0.820891879884493 -0.240340428622766 -0.791098208963997 -0.0161953704405633 -0.992065555460131 0.278750890223449 -0.335164463962864 0.842147435840864 0.0471678915510891 0.0779982307302982 1.3596747534426 2.61063895054978 0.0822734588567578 0.538900630022015 1.57881181947618 0.939906126812152 -0.0420241452257373 -1.89942050463683 0.262447533505937 0.0976972416375 0.444575131327165 0.0523769438629769 0.603955419909023 -0.649915407819379 0.0757801411797229 -0.0705101537544137 0.474982010034623 -0.747224155970045 0.920665029141252 0.291466017224047 -0.0135152538907549 0.656984395196627 -0.0159904536245428 0.0844689227112104 -0.1591835992917 0.0366657118974029 -0.364939880060352 -0.790973253414956 0.191203330178451 0.258893499443389 0.449547642270497 -0.0196082510125277 -0.162090229912919 -0.313460250736787 -0.147780248445854 0.305527373143945 -0.206495729655572 -0.846425235069156 -0.187179812921357 0.573639815316606 -0.770405467198679 -0.174046110542489 -0.668996068735955 1.16287156347377 0.413951765845442 0.0589841613511749 -0.795728506253473 -0.246590520066481 0.732615155359904 -0.0668162517521979 0.291084979932525 -0.703160869881248 -0.253200308656511 -0.658030319421936 -0.0594991530481498 -1.3437694032887