-8.9024001463572 1.30622735785211 -0.21138119068976 1.30622735785211 -13.1760942196617 -0.620593495743013 -0.21138119068976 -0.620593495743013 -0.964765434430186
-2.81652350734389 -0.201756698233803 -1.92072376718581 -0.201756698233803 -9.33729999426041 -0.347021520962141 -1.92072376718581 -0.347021520962141 1.47416894176166
-3.76038586712849 -5.60911740499166 -3.11617633610648 -5.60911740499166 2.16634181827402 1.59704037225457 -3.11617633610648 1.59704037225457 -9.73805105033274
-3.44552145645689 -0.787547761475861 0.142642579246903 -0.787547761475861 6.99551353433406 -0.554497913692188 0.142642579246903 -0.554497913692188 -0.701158593762948
-1.55563788289177 -1.87262573916595 1.59825809886141 -1.87262573916595 -7.48517542966759 -0.916334643347206 1.59825809886141 -0.916334643347206 0.729871198480042
8.39958939188635 0.655324002091443 -1.93736659348462 0.655324002091443 -4.18939272765601 -0.780147621537432 -1.93736659348462 -0.780147621537432 -5.81990125666924
-7.31370655336928 -1.97980611651676 -4.28611698988037 -1.97980611651676 -2.89995588581241 0.682691764316126 -4.28611698988037 0.682691764316126 2.63875208033494
-4.82320052719371 -2.37220933370144 3.13084946502048 -2.37220933370144 6.63518330238264 1.04750695055205 3.13084946502048 1.04750695055205 -5.09456026647321
8.19353218014452 0.780584202617769 -1.98008192730707 0.780584202617769 -4.04342616956005 -0.928895201115145 -1.98008192730707 -0.928895201115145 -6.02871199155124
-5.13613087519096 -0.599649797611127 0.920532632453202 -0.599649797611127 5.60943305658302 -0.14840831111446 0.920532632453202 -0.14840831111446 1.08899612074529
-1.35502825844255 3.80115356836194 1.67882015152421 3.80115356836194 -12.1245098787551 -4.72627326288096 1.67882015152421 -4.72627326288096 -1.98356546265988
-2.03161608154955 -0.299581553537047 -2.72392639434525 -0.299581553537047 -8.25989140466429 5.96645615027564 -2.72392639434525 5.96645615027564 -0.609233075260213
-1.34217330323186 0.276257893014937 -6.50061714625414 0.276257893014937 6.38815818095603 6.52750950752108 -6.50061714625414 6.52750950752108 -4.14142363510888
-3.33344401526296 -0.555574002543827 -2.30058143780649 -0.555574002543827 -8.82352529494606 5.35623845179754 -2.30058143780649 5.35623845179754 -2.5909951209544
-1.85676556390805 5.8157312202867 2.85184251123233 5.8157312202867 -4.32444968260768 4.42582481397047 2.85184251123233 4.42582481397047 1.41925183907914
5.92400255201627 -2.36678899427865 1.5817649219189 -2.36678899427865 1.76220329078965 0.0187468435190388 1.5817649219189 0.0187468435190388 -2.37616241603817
-4.67709191934053 2.73054243646095 -3.004085149237 2.73054243646095 8.79732903052982 2.05401269147018 -3.004085149237 2.05401269147018 3.68794193117713
7.50329428399558 -0.0415120015712065 -0.82505103122773 -0.0415120015712065 -4.56632017283272 0.119347004517219 -0.82505103122773 0.119347004517219 -4.72717917892115
-2.35406292342273 3.44207519895425 -0.228906478748189 3.44207519895425 -7.70651811785569 0.409770857018362 -0.228906478748189 0.409770857018362 4.02705842242184
-2.94639199406298 2.26431721459557 -3.54507832086823 2.26431721459557 4.19935694944825 -1.21020164632776 -3.54507832086823 -1.21020164632776 -4.09672500771021
-5.51079396152427 0.515509257392355 3.12656364608463 0.515509257392355 -1.52075230930745 -1.58519096648149 3.12656364608463 -1.58519096648149 -3.77095021782507
6.35770394915252 -1.42734028172133 5.60089312620183 -1.42734028172133 4.65672848388876 0.313078092881881 5.60089312620183 0.313078092881881 -0.833231459795871
2.43492692612882 -1.04999578146385 -1.27860245793446 -1.04999578146385 -9.42603807866025 0.640630337551359 -1.27860245793446 0.640630337551359 -3.46897340458309
-3.34633485166132 -0.0626246554826772 -0.476491943889936 -0.0626246554826772 -11.9939829304867 -4.89833718318854 -0.476491943889936 -4.89833718318854 0.511888488293188
2.78628860117243 -4.7628631959376 1.25410250150618 -4.7628631959376 -2.32826855714408 -7.35285749252646 1.25410250150618 -7.35285749252646 -0.967839973988466
-3.89560102891997 1.8625432528843 -3.53883218048016 1.8625432528843 -1.24606766918316 -1.37985598734808 -3.53883218048016 -1.37985598734808 -6.35101016229983
-7.29588082178062 5.12999935244093 2.89759818195445 5.12999935244093 -6.31671082089978 4.86125975980787 2.89759818195445 4.86125975980787 5.70472957034925
0.942191517216277 3.50483892699428 3.7460626588117 3.50483892699428 1.48991128475466 1.87586925566253 3.7460626588117 1.87586925566253 -2.68751616507173
-4.80584260258106 0.037957510682957 -2.51995695922965 0.037957510682957 1.89576678355435 -2.04970557687968 -2.51995695922965 -2.04970557687968 -11.6255420219523
-4.05421404261699 -0.68033910010229 -2.02078416721833 -0.68033910010229 -8.93039911695608 5.07851640522453 -2.02078416721833 5.07851640522453 -3.45227833323281
3.27657784556782 2.75979306563103 -2.38099793897579 2.75979306563103 -14.8731200801704 0.427497357225199 -2.38099793897579 0.427497357225199 -1.47459531447933
-2.22505934122291 -1.2864966654368 0.657208647117965 -1.2864966654368 6.50550651019711 0.844062086004445 0.657208647117965 0.844062086004445 -7.48058077748977
-1.7156539684292 3.03803482088608 -0.68822795295154 3.03803482088608 -1.1134545095966 -2.54152751197104 -0.68822795295154 -2.54152751197104 -0.914359994635618
4.03970066026069 -1.76720194337016 2.14951643338822 -1.76720194337016 3.49964802401141 -2.96494244356658 2.14951643338822 -2.96494244356658 0.411723296942519
8.15546607775092 -1.19874994495988 5.072651421503 -1.19874994495988 1.61963457637042 4.44683343553131 5.072651421503 4.44683343553131 -0.623614401514053
4.05340886684345 -4.26457172966882 4.87510783305521 -4.26457172966882 -0.140010159047254 3.69075960242597 4.87510783305521 3.69075960242597 -3.67928335988112
-3.35754355510066 -0.404342890221757 -4.91800759810463 -0.404342890221757 -10.1534992433463 0.946461876370928 -4.91800759810463 0.946461876370928 -1.80606490965718
-8.4149157539623 0.603016434803291 -1.12619097231555 0.603016434803291 1.4602662794017 -2.34693155984417 -1.12619097231555 -2.34693155984417 -10.3080091607838
-4.35055790423378 0.927869448536644 1.95467598524578 0.927869448536644 -8.39360864252601 -0.671167814359359 1.95467598524578 -0.671167814359359 4.0163109847321
1.34488185867055 4.14961559573894 3.35819406459286 4.14961559573894 -0.596239869748573 3.01595772679995 3.35819406459286 3.01595772679995 -1.01066668504467
-2.22676636600688 1.09788364913332 2.26293194503715 1.09788364913332 -2.41792728373833 -0.405571136268074 2.26293194503715 -0.405571136268074 -1.17021480719387
-6.33848583599305 5.49992093118926 2.88306600603968 5.49992093118926 -6.1973939631213 4.92224288565777 2.88306600603968 4.92224288565777 4.82906900734623
-1.20879477166067 -5.77299129410689 4.17100613518077 -5.77299129410689 6.20603205846006 -1.9021913329869 4.17100613518077 -1.9021913329869 5.65344016284375
-7.04215258238276 2.74780913161856 0.52787610524344 2.74780913161856 -12.9458048080513 0.396620425020747 0.52787610524344 0.396620425020747 -2.93327911454193
-7.58454927393233 2.76469054178824 2.17749963025799 2.76469054178824 -13.2607280853914 -2.45206575092723 2.17749963025799 -2.45206575092723 -2.44119184515815
-9.18327237845562 3.42512676383949 2.89634458695504 3.42512676383949 -5.7129732678471 4.17179908396277 2.89634458695504 4.17179908396277 7.96096181882322
-9.48575575544936 2.9584773118417 -1.8579335562353 2.9584773118417 6.79444830855442 0.933868977474472 -1.8579335562353 0.933868977474472 -1.49762190350893
2.2297151078239 2.95037636989092 -2.71467137064343 2.95037636989092 -16.1634025920746 0.0623128158930129 -2.71467137064343 0.0623128158930129 -2.0102656257659
-6.49243859001391 -1.24610063028077 -0.645937877737381 -1.24610063028077 -8.26495316002554 4.25454358053007 -0.645937877737381 4.25454358053007 -5.5387901484725
-0.679818139311099 0.770143626352434 -4.70881025865485 0.770143626352434 0.793913491363311 -0.0974564465445981 -4.70881025865485 -0.0974564465445981 1.95150591739305
3.29981009993777 -3.89252582657584 0.278037559041131 -3.89252582657584 4.87751159775256 -0.54960912833712 0.278037559041131 -0.54960912833712 -4.62318266777695
-2.04309478587044 4.54910055818985 -2.0173775088455 4.54910055818985 1.65447815527131 -0.382901680149145 -2.0173775088455 -0.382901680149145 3.50326462584218
3.56903771142583 2.65244393553692 -2.11168064592695 2.65244393553692 -14.1166256752684 0.548874738954124 -2.11168064592695 0.548874738954124 -1.19238305358999
4.32990398027159 -2.80094038025549 -1.15752046554891 -2.80094038025549 -0.410315090399801 -0.956682026563747 -1.15752046554891 -0.956682026563747 -0.306656541246167
-6.2700327558044 2.90401517110941 -2.50067973067754 2.90401517110941 8.60204493866498 1.71356450753173 -2.50067973067754 1.71356450753173 2.86001494124411
-6.12312066830778 0.294147268772829 -1.89981355244102 0.294147268772829 -11.1047340458733 -0.153820131376617 -1.89981355244102 -0.153820131376617 1.06324792565591
1.21983409951653 -2.13689314807907 0.026201687101787 -2.13689314807907 -7.06863292034875 0.145564928343261 0.026201687101787 0.145564928343261 0.346444529456961
-7.54970640275617 0.366434132028997 1.09930239608699 0.366434132028997 3.21066096634931 -0.706694397484495 1.09930239608699 -0.706694397484495 -4.92650333061208
-5.59605585514233 0.559083077964734 -2.80064046531867 0.559083077964734 0.81772431496711 0.00783761324249627 -2.80064046531867 0.00783761324249627 -6.69854678458681
-2.71076886581417 -0.796338628236211 -0.233270911301516 -0.796338628236211 7.58331557343119 -0.776229066917115 -0.233270911301516 -0.776229066917115 -1.40565833620483
3.83485593356874 -0.708781130904891 3.3207708540544 -0.708781130904891 -1.53350485421089 3.69266218817116 3.3207708540544 3.69266218817116 1.87039465099902
5.14914619780226 -1.47979023487196 0.220004211910168 -1.47979023487196 -2.98839054511311 1.77574828184636 0.220004211910168 1.77574828184636 1.75217640199884
-1.96705650306291 -4.43114872282625 -3.27139871719192 -4.43114872282625 -9.99493641219409 0.337381819820898 -3.27139871719192 0.337381819820898 -12.9259409718881
-1.7048715875882 3.52000850173684 0.551326632802156 3.52000850173684 -6.26533240148501 0.613527586246501 0.551326632802156 0.613527586246501 2.88668970303077
5.12604765621855 -5.20466092654396 5.77576321390796 -5.20466092654396 2.07862735360419 2.22660527421672 5.77576321390796 2.22660527421672 -4.4485862384143
4.21978272446903 -2.26311101468296 2.269920777014 -2.26311101468296 -3.96555159744346 4.02002969609179 2.269920777014 4.02002969609179 -0.095336672634588
3.49130833428774 2.35272091769622 -1.05494710873764 2.35272091769622 -11.6017201216671 0.661028239490336 -1.05494710873764 0.661028239490336 -0.310278561393423
-8.86264578202988 0.874974583576198 0.549104284121133 0.874974583576198 -3.34337795425157 -2.29135572766435 0.549104284121133 -2.29135572766435 -5.6219041425673
0.63007367814164 -1.18175109218271 -1.03947639066685 -1.18175109218271 -6.97436393961392 0.081299829437631 -1.03947639066685 0.081299829437631 2.18638469880486
3.53745610541367 -0.377888486038255 1.27274941478162 -0.377888486038255 1.99703567968828 -0.480233284340283 1.27274941478162 -0.480233284340283 -0.453991028365404
3.48053957997188 -0.525853879629898 -1.5469064799875 -0.525853879629898 0.813540755481233 -0.33249056963146 -1.5469064799875 -0.33249056963146 -0.216944201461662
10.8065743840119 -1.15100926174993 3.03670528631896 -1.15100926174993 -2.68717249309896 3.11462660964825 3.03670528631896 3.11462660964825 -0.569938822065728
-2.34103918706988 -4.02224879631698 -3.36543213894087 -4.02224879631698 -11.5455111516754 0.2922532833279 -3.36543213894087 0.2922532833279 -11.8739194803634
2.61036879174514 -3.06154364463936 1.46778312532471 -3.06154364463936 -6.09671992774593 0.442385732383295 1.46778312532471 0.442385732383295 -3.820337715416
-2.98746433486842 2.4529425298552 -3.61229347680168 2.4529425298552 8.71831912103757 2.40656849197734 -3.61229347680168 2.40656849197734 3.87833400989045
-6.67253326344381 2.48757973737623 1.03554064755455 2.48757973737623 -12.1155403034826 0.610484018117561 1.03554064755455 0.610484018117561 -3.44894942945856
-6.55238333633785 -2.13464363379131 1.45636957749072 -2.13464363379131 -5.08833518462486 3.67803705246777 1.45636957749072 3.67803705246777 -4.48428734580621
-10.9445633748197 3.13930984493367 -1.83884398121408 3.13930984493367 3.05080933246882 0.0270418232531483 -1.83884398121408 0.0270418232531483 -6.76291416085554
6.20674457228979 -1.36516632536297 -1.73556028960874 -1.36516632536297 -4.60611351251344 1.12441024860322 -1.73556028960874 1.12441024860322 -4.29921565642409
0.926585077279889 -3.67908780684662 0.787597315687906 -3.67908780684662 -4.20233585048703 -7.2001111005102 0.787597315687906 -7.2001111005102 0.629532802504866
-3.52542123425797 -0.107662564639016 -3.01666284057164 -0.107662564639016 2.00547914523657 -1.9273710101063 -3.01666284057164 -1.9273710101063 -11.7816622205951
0.883981484695997 -0.72676330117624 -0.631839114900159 -0.72676330117624 0.732696062818494 1.45649298317361 -0.631839114900159 1.45649298317361 -6.07218154084801
4.47722389696226 -2.68797334631535 0.0819504068998583 -2.68797334631535 -8.14313876561592 -5.83213729103992 0.0819504068998583 -5.83213729103992 -12.3417312791187
-8.61163047873629 0.591425202251959 -0.757264025856393 0.591425202251959 -4.63349677034558 -0.293714543010263 -0.757264025856393 -0.293714543010263 -2.29576877495777
-10.3034123307562 0.967690739817341 2.59780070771583 0.967690739817341 -1.60816234287171 0.722276387245108 2.59780070771583 0.722276387245108 9.70683597775539
-0.92675749085553 0.572041685730233 -2.80525245884302 0.572041685730233 -5.11090519215745 7.50648587606703 -2.80525245884302 7.50648587606703 4.23160967522714
-3.49358925778428 -2.06647827912182 4.49445536947383 -2.06647827912182 5.25252377212818 -3.16985897907068 4.49445536947383 -3.16985897907068 0.221215690454294
1.48967403956267 1.91708051735665 -5.40631702613096 1.91708051735665 -2.56693831985044 0.907301470404779 -5.40631702613096 0.907301470404779 -2.55694050750438
4.34646631288555 0.0196672683840975 4.68818510105924 0.0196672683840975 4.09325023244029 -1.27837244496634 4.68818510105924 -1.27837244496634 2.66491486604521
10.7149993866644 -4.5303681123344 2.20987434558376 -4.5303681123344 3.5674763326318 0.0829645658751582 2.20987434558376 0.0829645658751582 2.62972533046714
-10.2579760202677 1.53829788027325 2.02648826973821 1.53829788027325 -5.39201303629458 0.771141553971176 2.02648826973821 0.771141553971176 7.87879510181403
5.85100865828338 -1.52293695846195 1.15136127443859 -1.52293695846195 -2.63504728036286 1.15921146494612 1.15136127443859 1.15921146494612 0.845203844644692
1.14956415696563 5.4212702275377 -1.98585216953879 5.4212702275377 -4.49471620725824 -4.69117751814844 -1.98585216953879 -4.69117751814844 -2.53541286351543
-9.37387526857114 1.63803687728858 1.57626176391152 1.63803687728858 -5.31863798720586 0.785141763566545 1.57626176391152 0.785141763566545 6.0798668036587
-0.0160293230263069 -1.40790887247729 0.689260890131196 -1.40790887247729 -7.41623345350465 -0.852225674231983 0.689260890131196 -0.852225674231983 0.956416273902978
2.37600571308998 -3.04901225743813 1.33138251164525 -3.04901225743813 -6.47549340279326 0.342355502994492 1.33138251164525 0.342355502994492 -3.08705175777085
-8.43811939088807 2.36897621019137 1.62731278658788 2.36897621019137 -13.4586102583579 -1.85551691692742 1.62731278658788 -1.85551691692742 -2.27389115588323
0.212365673723355 3.74046739984736 2.54272500004764 3.74046739984736 -1.68476767820528 1.22039473833021 2.54272500004764 1.22039473833021 0.0028315423163114
2.25926827729679 -1.45787861349125 0.532288337583012 -1.45787861349125 0.14490071411982 1.56433628100785 0.532288337583012 1.56433628100785 -6.67726147923579
1.4780979002287 -0.258720148963991 -5.24650531587635 -0.258720148963991 2.00614148295029 -1.40599556363218 -5.24650531587635 -1.40599556363218 -10.7899026059737
-5.17948587344659 1.6696836781105 0.222431908675621 1.6696836781105 -5.26325892996079 1.06305119990426 0.222431908675621 1.06305119990426 -5.99988408206836
-7.74600646469501 0.909061888428225 -0.887084568048642 0.909061888428225 -4.15770942817393 -0.14185361335913 -0.887084568048642 -0.14185361335913 -2.31960626915422
-6.14147892676578 3.05042138135786 -0.991522402821471 3.05042138135786 -9.89896956259468 -2.69011406011399 -0.991522402821471 -2.69011406011399 -4.50519605435001
-6.84232657634596 1.21264006769109 -1.02285290717931 1.21264006769109 -3.65390227974796 -0.00199775958433459 -1.02285290717931 -0.00199775958433459 -2.27345040697276
-6.8480266329948 -0.250293371088991 1.61789635071924 -0.250293371088991 3.98266812076803 0.188220615058921 1.61789635071924 0.188220615058921 3.29986780443726
9.85374040941691 -4.55678848774773 2.303569870878 -4.55678848774773 3.75116842361553 0.156088887425613 2.303569870878 0.156088887425613 3.24262075813209
-9.00794758882054 1.51307488096384 0.17083103494753 1.51307488096384 -13.3438019520126 -0.816192722527087 0.17083103494753 -0.816192722527087 -1.31783941245237
-10.8061555028528 1.32560291632487 2.5176488470952 1.32560291632487 -3.91501372580758 0.765460932133457 2.5176488470952 0.765460932133457 10.3217622567371
0.365365530741366 -0.626340909842342 -1.61804735042605 -0.626340909842342 -6.84915383818338 0.0318969907790081 -1.61804735042605 0.0318969907790081 3.04471275617805
7.96974240432007 0.145376408678151 -1.22012342997734 0.145376408678151 -4.52224471280963 -0.132396372189031 -1.22012342997734 -0.132396372189031 -5.00250606290709
-7.30846081148858 1.36072573266699 0.104448030652477 1.36072573266699 -1.02707230141602 -0.365568107283669 0.104448030652477 -0.365568107283669 -4.20983590213177
8.43118447306705 0.504207702766649 -1.79071704745475 0.504207702766649 -4.32215159639658 -0.59257400118967 -1.79071704745475 -0.59257400118967 -5.56187878309602
4.30694698300768 -3.3273107453897 -0.599865361360789 -3.3273107453897 1.80391166222165 -0.917060354598329 -0.599865361360789 -0.917060354598329 -2.21820716359313
2.14721868783869 -1.72722481246682 -1.03160995638216 -1.72722481246682 -4.04506601217533 2.33359097003496 -1.03160995638216 2.33359097003496 2.93208224243987
-2.93111525061145 1.59811440122095 -1.94746964241809 1.59811440122095 0.359266028181454 8.82060041604122 -1.94746964241809 8.82060041604122 7.60652901046251
-5.21664274818009 0.130295424792657 -5.0187867327542 0.130295424792657 4.18151798454953 0.694908932227505 -5.0187867327542 0.694908932227505 -0.530833212118233
-0.99753176163685 -3.36858802583521 2.08458560444624 -3.36858802583521 5.53502239021063 1.71626618476494 2.08458560444624 1.71626618476494 0.1355620086327
-7.28120735451441 0.393408198582547 -1.5694252200138 0.393408198582547 1.60729338886131 -2.25315604642731 -1.5694252200138 -2.25315604642731 -10.893409905136
-5.04668552781818 -1.00229395882594 2.95270382464939 -1.00229395882594 -0.850595413706339 -3.28860774598565 2.95270382464939 -3.28860774598565 -1.16211921171981
1.50999320161844 3.01727546391619 -2.76515810709301 3.01727546391619 -16.6668549435371 -0.181632934485521 -2.76515810709301 -0.181632934485521 -2.2392358788812
-5.6433698677898 0.156964655166687 -3.86280206074269 0.156964655166687 5.82486025032628 8.58645715216518 -3.86280206074269 8.58645715216518 2.22203089970341
-3.289971479092 -5.60524767039467 -3.10702867123 -5.60524767039467 1.12764747141166 1.5355199610712 -3.10702867123 1.5355199610712 -10.7336444153786
1.48940707161766 -0.953133679941911 -0.96181826928079 -0.953133679941911 -5.37793194810049 1.00524121597518 -0.96181826928079 1.00524121597518 6.76963738965576
-3.15110196619841 -1.25505846945635 -2.66669343412753 -1.25505846945635 5.32115432956641 1.36025830217882 -2.66669343412753 1.36025830217882 -2.41959615261663
-2.88389406886544 -2.09713587127635 1.72236254066803 -2.09713587127635 -7.50875644658514 -0.858523303450266 1.72236254066803 -0.858523303450266 0.512987608563162
2.75997364216438 -3.95790131198749 0.536481996017901 -3.95790131198749 5.69446552399724 -0.366272848686921 0.536481996017901 -0.366272848686921 -5.28510175193539
-2.18247311076979 -2.04864221246787 2.97001647385417 -2.04864221246787 -2.35233540476838 2.64830758370532 2.97001647385417 2.64830758370532 -1.70891762447068
-5.32369386075615 2.58853334966851 -3.31320989745153 2.58853334966851 -12.0177877301603 -0.673920991907161 -3.31320989745153 -0.673920991907161 11.0308741436854
2.77239701948845 2.19851891924449 -0.304451762101259 2.19851891924449 -9.94183187746588 0.51460430585257 -0.304451762101259 0.51460430585257 0.414916560739768
-8.9195825550521 1.94080995948334 0.931045896647252 1.94080995948334 -13.5042371306708 -1.2974925323539 0.931045896647252 -1.2974925323539 -1.90009366662704
-4.89163766688013 0.621446851722779 3.13302043503393 0.621446851722779 -1.57037814397997 -1.36924596790372 3.13302043503393 -1.36924596790372 -3.40635390508627
7.5844808503899 -2.38457879743142 0.59403320691621 -2.38457879743142 7.53943567830147 1.05293089756712 0.59403320691621 1.05293089756712 -11.8018350871694
-2.13757037141757 2.28397930096672 -3.94816080017537 2.28397930096672 8.59908446218666 2.58899790419411 -3.94816080017537 2.58899790419411 3.73342770350329
-5.42525468974812 -0.940986203785205 -1.36962951494343 -0.940986203785205 -8.8062105108955 4.60601333173567 -1.36962951494343 4.60601333173567 -4.78609424944119
-6.48734152868248 3.02977260876281 -0.758120045088103 3.02977260876281 -9.41422641704048 -2.66966558734596 -0.758120045088103 -2.66966558734596 -4.58933384437262
-1.74747199918697 4.53313112718715 -2.79137916727739 4.53313112718715 0.583444006275191 -0.537683692057529 -2.79137916727739 -0.537683692057529 4.10126816175796
1.71513627656599 -1.19474094612878 -1.51998802765204 -1.19474094612878 -5.39259661165566 0.466187483516674 -1.51998802765204 0.466187483516674 6.50927825821886
-4.90956179030521 2.17560191438789 -0.33900304807144 2.17560191438789 -2.83765492591564 0.777712874987422 -0.33900304807144 0.777712874987422 1.59929673266644
9.74638373402484 -2.97751030571024 4.91289200442189 -2.97751030571024 4.09655792893967 1.32995460321724 4.91289200442189 1.32995460321724 -4.18588323811097
-9.35469040018587 1.12288139593605 2.92267710857113 1.12288139593605 -3.70842862913157 2.77136684954428 2.92267710857113 2.77136684954428 9.19010731141983
3.43214818392137 -3.23732173180142 2.96242961442669 -3.23732173180142 4.6358020182515 -2.68753749705196 2.96242961442669 -2.68753749705196 1.12892588009233
7.43948969798873 -2.64652541371049 0.143283223035281 -2.64652541371049 9.01279567641535 1.0226488859773 0.143283223035281 1.0226488859773 -10.7069090781854
-4.14603198384157 -2.30305730735077 0.349028202721356 -2.30305730735077 -6.83513563662656 0.0740362854257423 0.349028202721356 0.0740362854257423 0.663682415780761
3.33636284402334 -2.21118883324552 4.27096213835852 -2.21118883324552 -2.13548106917926 -1.20871361250611 4.27096213835852 -1.20871361250611 -1.55070385708127
3.02735566817728 -1.63435232346139 -0.823734557892258 -1.63435232346139 -3.74353252901991 2.30068537347615 -0.823734557892258 2.30068537347615 2.7781366140379
-2.35044658941512 0.522896708217901 0.50736512282529 0.522896708217901 -3.80523842118968 0.414175610469624 0.50736512282529 0.414175610469624 1.38748829507324
-6.01164827139388 -1.08956362840219 -1.01337036767476 -1.08956362840219 -8.58444070862328 4.4166693468331 -1.01337036767476 4.4166693468331 -5.23701678733172
-5.97405470017454 -4.1257942639928 -3.80383922027081 -4.1257942639928 1.71709356651723 0.849603587599673 -3.80383922027081 0.849603587599673 -3.30898239380925
3.43373219892137 1.24398905172191 0.268680140760671 1.24398905172191 2.00704065148221 -3.03071198778037 0.268680140760671 -3.03071198778037 0.317042566097592
-5.85821764176875 0.466496794608576 -3.15253623303901 0.466496794608576 5.56358808727912 8.83888663468881 -3.15253623303901 8.83888663468881 4.63059449806197
8.58220595475562 -2.51427948386151 5.57298956462216 -2.51427948386151 4.60291322832914 1.30168406349523 5.57298956462216 1.30168406349523 -3.56849509422076
0.277513072296605 3.94775948923895 0.922322857926951 3.94775948923895 -11.9711521382849 -5.1557575686477 0.922322857926951 -5.1557575686477 -1.81199711911312
-7.41913024880159 5.90618718152001 -4.76719796671745 5.90618718152001 -12.814342318919 -1.08189702358438 -4.76719796671745 -1.08189702358438 2.91170175212683
-5.00375609712554 -2.28633163207121 2.31969000605205 -2.28633163207121 -3.46927089400704 3.32813931178043 2.31969000605205 3.32813931178043 -2.98685748566879
-3.11146729722646 1.56437661332775 0.792271765497478 1.56437661332775 -6.18548174735668 1.15239529526906 0.792271765497478 1.15239529526906 -8.55653506737277
10.902144250038 -1.23056539735023 4.12627424228608 -1.23056539735023 -0.385798881331423 3.5985723241431 4.12627424228608 3.5985723241431 -0.862504395620251
7.43528362600359 -1.14456704722376 5.03609500778455 -1.14456704722376 1.52315460899777 4.50343111273042 5.03609500778455 4.50343111273042 -0.444620276036923
2.66359617073249 1.78227725341179 2.18734026555083 1.78227725341179 1.73563363383214 -2.72496935438992 2.18734026555083 -2.72496935438992 4.94176874809632
1.88614539968202 1.11021495065371 -6.39532612233709 1.11021495065371 7.25177765569852 4.23589704249416 -6.39532612233709 4.23589704249416 -0.93453258483598
-6.32705799572731 3.98370318249497 0.646442707098576 3.98370318249497 -6.17622136407098 -3.5042581747302 0.646442707098576 -3.5042581747302 -4.29884400220553
-8.09523134542047 0.169948873591752 6.02468756882762 0.169948873591752 2.41893896745594 1.27461655193814 6.02468756882762 1.27461655193814 1.9204222715868
-1.43967565052114 -1.93158629318579 2.99782192702434 -1.93158629318579 -2.33078079377751 2.47243045527781 2.99782192702434 2.47243045527781 -1.67404145409435
-1.56422717512169 3.13108772932608 -3.73676491834626 3.13108772932608 -2.91778402362767 -2.78874844857554 -3.73676491834626 -2.78874844857554 -5.33259264246031
5.48640338666962 -1.62426416052719 1.57237794428813 -1.62426416052719 -5.49993892134068 3.50119163491416 1.57237794428813 3.50119163491416 0.911392667851367
-2.25065602742317 1.48508760888792 0.998692636209512 1.48508760888792 -6.28284157015955 1.09366916933607 0.998692636209512 1.09366916933607 -9.55809292464493
-2.08403095136463 1.3512667908729 -2.23058378346298 1.3512667908729 -1.48291594513074 8.48019269125014 -2.23058378346298 8.48019269125014 6.73397843760373
-4.70023539822957 -1.40200712764014 2.79360974969483 -1.40200712764014 -3.27221700662579 -0.795944677287355 2.79360974969483 -0.795944677287355 -1.815586224662
-4.23262073853874 3.50727242649077 3.20575508893358 3.50727242649077 6.25790700590405 0.770860362999999 3.20575508893358 0.770860362999999 0.688369770649446
-4.72191160561466 -5.32000047269695 -3.24463210392141 -5.32000047269695 3.11604299749872 1.49821261204113 -3.24463210392141 1.49821261204113 -7.38938795280167
3.38174595812951 -1.1741804505053 -1.56203191153193 -1.1741804505053 -9.0029356261594 0.696007416362869 -1.56203191153193 0.696007416362869 -3.62083247520073
-3.01307877941044 -5.29877113982663 3.99266121958881 -5.29877113982663 5.25629602046931 -1.66449373981528 3.99266121958881 -1.66449373981528 7.07210737299507
-0.942125538223307 0.177901364930465 -2.9291083887847 0.177901364930465 -6.62745225691662 6.91560235504343 -2.9291083887847 6.91560235504343 2.4680682317818
-8.60900909820591 -0.28309796442637 6.0130007644161 -0.28309796442637 1.34471533102526 1.26827888063014 6.0130007644161 1.26827888063014 2.55354363912586
-2.00473541162785 2.14991326891293 -4.74603495212854 2.14991326891293 3.3753851818782 -1.60336133560438 -4.74603495212854 -1.60336133560438 -4.40657496230019
6.84719850931431 -5.91621976462684 1.69268862670449 -5.91621976462684 -2.07217849623986 -6.6369775024494 1.69268862670449 -6.6369775024494 -7.86281168533701
-10.6232279039882 2.9755840581543 -1.81432064271949 2.9755840581543 5.02559452726225 0.510661290508328 -1.81432064271949 0.510661290508328 -4.51984344147034
-6.19725762890123 2.29010486700768 1.49441463301622 2.29010486700768 -11.0740687404618 0.818505724571861 1.49441463301622 0.818505724571861 -3.8643737170553
2.74302803345463 -0.310272440220593 -3.53930243756057 -0.310272440220593 10.9638748123967 -2.47394220034296 -3.53930243756057 -2.47394220034296 4.61839154381449
-3.6587433998213 -0.0834591945507435 -2.01648182962925 -0.0834591945507435 -9.75934129827243 -0.279992136557333 -2.01648182962925 -0.279992136557333 1.45111309235002
3.05272847288073 -2.46396695448522 1.37475814545352 -2.46396695448522 -3.31472734856674 1.05977073311192 1.37475814545352 1.05977073311192 -5.99947987245028
-8.75474268966439 -0.324249729246829 0.910718804754138 -0.324249729246829 -8.67297536663693 -0.214286777589209 0.910718804754138 -0.214286777589209 11.2782514520636
5.89732301378992 -1.4226695680167 -1.98431937885384 -1.4226695680167 -6.34240399596274 0.996133626767749 -1.98431937885384 0.996133626767749 -4.05871467076647
-2.46040698405128 -2.03482307329646 1.74223413465253 -2.03482307329646 -7.51953572314916 -0.891066313142896 1.74223413465253 -0.891066313142896 0.585177877287872
5.61430960059107 -1.00783189258731 -0.649022632399156 -1.00783189258731 -0.870640116633014 1.05004474672709 -0.649022632399156 1.05004474672709 -4.25822166135056
3.77071846709598 -0.435890853438672 1.15799919497864 -0.435890853438672 2.15844747907584 -0.283591639586606 1.15799919497864 -0.283591639586606 -0.89016264648018
-0.809431011390277 3.52511160335114 -3.66221392449868 3.52511160335114 -3.33527762022378 -3.20608504837321 -3.66221392449868 -3.20608504837321 -4.89877139792552
1.61769757662913 -0.765362294319156 -0.165248677182545 -0.765362294319156 -4.98137788717382 1.57203675793395 -0.165248677182545 1.57203675793395 6.2511835118397
7.28513457715535 -1.92064883125275 5.73972819108309 -1.92064883125275 4.74484197129535 0.829483299872653 5.73972819108309 0.829483299872653 -2.10580135354575