10.248574 0.000000 0.000000 0.000000 6.365868 0.000000 0.000000 0.000000 4.938515
10.034509 0.000000 0.000000 0.000000 6.071224 0.000000 0.000000 0.000000 4.830290
10.023104 0.000000 0.000000 0.000000 5.940493 0.000000 0.000000 0.000000 4.792133
9.879953 0.000000 0.000000 0.000000 5.922060 0.000000 0.000000 0.000000 4.691534
9.867849 0.000000 0.000000 0.000000 5.910726 0.000000 0.000000 0.000000 4.797524
10.027571 0.000000 0.000000 0.000000 6.232636 0.000000 0.000000 0.000000 5.019874
10.609811 0.000000 0.000000 0.000000 6.340973 0.000000 0.000000 0.000000 5.011041
10.352438 0.000000 0.000000 0.000000 6.181956 0.000000 0.000000 0.000000 4.968533
10.276282 0.000000 0.000000 0.000000 6.589981 0.000000 0.000000 0.000000 5.026030
10.257295 0.000000 0.000000 0.000000 6.303006 0.000000 0.000000 0.000000 4.948482
10.070472 0.000000 0.000000 0.000000 6.507785 0.000000 0.000000 0.000000 4.994038
10.170513 0.000000 0.000000 0.000000 6.412885 0.000000 0.000000 0.000000 4.989235
9.974757 0.000000 0.000000 0.000000 6.087114 0.000000 0.000000 0.000000 4.744124
9.879884 0.000000 0.000000 0.000000 5.916609 0.000000 0.000000 0.000000 4.841075
10.134480 0.000000 0.000000 0.000000 6.029473 0.000000 0.000000 0.000000 4.983336
10.165127 0.000000 0.000000 0.000000 6.436987 0.000000 0.000000 0.000000 4.956771
10.116214 0.000000 0.000000 0.000000 6.347754 0.000000 0.000000 0.000000 5.020225
10.201344 0.000000 0.000000 0.000000 6.194610 0.000000 0.000000 0.000000 5.007887
10.173046 0.000000 0.000000 0.000000 6.267897 0.000000 0.000000 0.000000 4.954829
10.211904 0.000000 0.000000 0.000000 6.346985 0.000000 0.000000 0.000000 4.913739
9.946805 0.000000 0.000000 0.000000 6.408920 0.000000 0.000000 0.000000 5.077763
10.096358 0.000000 0.000000 0.000000 6.229542 0.000000 0.000000 0.000000 5.110311
9.951692 0.000000 0.000000 0.000000 6.240631 0.000000 0.000000 0.000000 5.055429
10.189228 0.000000 0.000000 0.000000 6.325257 0.000000 0.000000 0.000000 5.141263
10.316926 0.000000 0.000000 0.000000 6.356633 0.000000 0.000000 0.000000 4.873400
10.093854 0.000000 0.000000 0.000000 6.529542 0.000000 0.000000 0.000000 5.046876
10.444445 0.000000 0.000000 0.000000 6.466414 0.000000 0.000000 0.000000 4.980027
10.101411 0.000000 0.000000 0.000000 6.095850 0.000000 0.000000 0.000000 4.886790
10.074204 0.000000 0.000000 0.000000 5.960641 0.000000 0.000000 0.000000 4.908956
9.997143 0.000000 0.000000 0.000000 6.143638 0.000000 0.000000 0.000000 4.728390
10.083646 0.000000 0.000000 0.000000 5.996805 0.000000 0.000000 0.000000 4.924814
10.117946 0.000000 0.000000 0.000000 6.237036 0.000000 0.000000 0.000000 5.016514
10.188333 0.000000 0.000000 0.000000 6.310276 0.000000 0.000000 0.000000 5.044597
10.376063 0.000000 0.000000 0.000000 6.225730 0.000000 0.000000 0.000000 4.930155
10.319450 0.000000 0.000000 0.000000 6.165702 0.000000 0.000000 0.000000 5.057811
9.927850 0.000000 0.000000 0.000000 6.630046 0.000000 0.000000 0.000000 4.899779
9.751904 0.000000 0.000000 0.000000 6.585805 0.000000 0.000000 0.000000 5.059809
10.283923 0.000000 0.000000 0.000000 6.312418 0.000000 0.000000 0.000000 5.030565
10.357627 0.000000 0.000000 0.000000 6.159174 0.000000 0.000000 0.000000 5.004984
10.250945 0.000000 0.000000 0.000000 6.785771 0.000000 0.000000 0.000000 5.017338
10.178754 0.000000 0.000000 0.000000 6.467461 0.000000 0.000000 0.000000 5.113232
10.113364 0.000000 0.000000 0.000000 6.763197 0.000000 0.000000 0.000000 5.043327
9.897637 0.000000 0.000000 0.000000 6.794186 0.000000 0.000000 0.000000 5.085449
10.080389 0.000000 0.000000 0.000000 6.016125 0.000000 0.000000 0.000000 4.899206
10.114940 0.000000 0.000000 0.000000 5.973039 0.000000 0.000000 0.000000 4.961467
9.989298 0.000000 0.000000 0.000000 6.171392 0.000000 0.000000 0.000000 4.787304
9.907468 0.000000 0.000000 0.000000 6.049900 0.000000 0.000000 0.000000 4.779276
10.092191 0.000000 0.000000 0.000000 6.329293 0.000000 0.000000 0.000000 5.092461
10.233798 0.000000 0.000000 0.000000 6.371357 0.000000 0.000000 0.000000 4.981607
10.446062 0.000000 0.000000 0.000000 6.125979 0.000000 0.000000 0.000000 4.928324
10.382508 0.000000 0.000000 0.000000 6.307990 0.000000 0.000000 0.000000 5.079035
10.136082 0.000000 0.000000 0.000000 6.247701 0.000000 0.000000 0.000000 5.077908
10.417476 0.000000 0.000000 0.000000 6.402060 0.000000 0.000000 0.000000 5.068541
10.212286 0.000000 0.000000 0.000000 6.280876 0.000000 0.000000 0.000000 4.926239
9.857839 0.000000 0.000000 0.000000 7.137166 0.000000 0.000000 0.000000 4.986105
10.144252 0.000000 0.000000 0.000000 6.449574 0.000000 0.000000 0.000000 5.096758
10.275459 0.000000 0.000000 0.000000 6.560700 0.000000 0.000000 0.000000 5.085337
10.356800 0.000000 0.000000 0.000000 6.746390 0.000000 0.000000 0.000000 5.009948
10.255946 0.000000 0.000000 0.000000 6.122308 0.000000 0.000000 0.000000 4.924123
10.295362 0.000000 0.000000 0.000000 6.015652 0.000000 0.000000 0.000000 5.091473
10.028581 0.000000 0.000000 0.000000 6.025844 0.000000 0.000000 0.000000 4.850765
9.927215 0.000000 0.000000 0.000000 6.046894 0.000000 0.000000 0.000000 4.770618
10.298794 0.000000 0.000000 0.000000 6.340016 0.000000 0.000000 0.000000 5.039908
10.040259 0.000000 0.000000 0.000000 6.340701 0.000000 0.000000 0.000000 5.072366
10.305722 0.000000 0.000000 0.000000 6.459614 0.000000 0.000000 0.000000 5.077854
10.208872 0.000000 0.000000 0.000000 6.323624 0.000000 0.000000 0.000000 4.900274
10.345056 0.000000 0.000000 0.000000 6.399877 0.000000 0.000000 0.000000 5.061865
9.954772 0.000000 0.000000 0.000000 6.701503 0.000000 0.000000 0.000000 5.161370
9.882982 0.000000 0.000000 0.000000 7.309642 0.000000 0.000000 0.000000 5.174842
9.658009 0.000000 0.000000 0.000000 8.244626 0.000000 0.000000 0.000000 5.097451
10.478794 0.000000 0.000000 0.000000 6.547440 0.000000 0.000000 0.000000 5.058017
9.894863 0.000000 0.000000 0.000000 6.830587 0.000000 0.000000 0.000000 5.085275
9.813091 0.000000 0.000000 0.000000 7.263569 0.000000 0.000000 0.000000 5.222908
9.396820 0.000000 0.000000 0.000000 7.918623 0.000000 0.000000 0.000000 5.433143
10.088503 0.000000 0.000000 0.000000 6.238391 0.000000 0.000000 0.000000 4.873789
10.232411 0.000000 0.000000 0.000000 5.887869 0.000000 0.000000 0.000000 4.921741
9.873482 0.000000 0.000000 0.000000 6.118722 0.000000 0.000000 0.000000 4.866078
10.230978 0.000000 0.000000 0.000000 6.025313 0.000000 0.000000 0.000000 4.998393
10.200356 0.000000 0.000000 0.000000 6.301785 0.000000 0.000000 0.000000 5.042508
8.756230 0.000000 0.000000 0.000000 9.598859 0.000000 0.000000 0.000000 5.404392
10.438585 0.000000 0.000000 0.000000 6.336921 0.000000 0.000000 0.000000 5.087691
9.984430 0.000000 0.000000 0.000000 6.557885 0.000000 0.000000 0.000000 5.202300
9.880148 0.000000 0.000000 0.000000 7.007241 0.000000 0.000000 0.000000 5.297917
9.992052 0.000000 0.000000 0.000000 7.956104 0.000000 0.000000 0.000000 5.208820
10.349558 0.000000 0.000000 0.000000 6.307171 0.000000 0.000000 0.000000 5.066443
10.072589 0.000000 0.000000 0.000000 6.525679 0.000000 0.000000 0.000000 5.179784
10.076335 0.000000 0.000000 0.000000 6.781625 0.000000 0.000000 0.000000 5.153270
10.364707 0.000000 0.000000 0.000000 7.569025 0.000000 0.000000 0.000000 4.983850
10.019933 0.000000 0.000000 0.000000 6.014677 0.000000 0.000000 0.000000 4.910158
10.006754 0.000000 0.000000 0.000000 6.030431 0.000000 0.000000 0.000000 4.856973
10.221666 0.000000 0.000000 0.000000 6.036042 0.000000 0.000000 0.000000 5.001186
10.033792 0.000000 0.000000 0.000000 6.099640 0.000000 0.000000 0.000000 4.806566
10.227633 0.000000 0.000000 0.000000 6.290166 0.000000 0.000000 0.000000 4.994741
10.005600 0.000000 0.000000 0.000000 6.612125 0.000000 0.000000 0.000000 5.101082
10.132438 0.000000 0.000000 0.000000 7.037153 0.000000 0.000000 0.000000 4.990538
10.245364 0.000000 0.000000 0.000000 7.785729 0.000000 0.000000 0.000000 4.998833
10.399021 0.000000 0.000000 0.000000 6.384467 0.000000 0.000000 0.000000 5.083407
10.079688 0.000000 0.000000 0.000000 6.448189 0.000000 0.000000 0.000000 5.116255
10.264727 0.000000 0.000000 0.000000 6.639017 0.000000 0.000000 0.000000 5.120127
10.142248 0.000000 0.000000 0.000000 6.727105 0.000000 0.000000 0.000000 4.907988
10.406300 0.000000 0.000000 0.000000 6.218700 0.000000 0.000000 0.000000 4.946900
10.406300 0.000000 0.000000 0.000000 6.218700 0.000000 0.000000 0.000000 4.946900
10.406300 0.000000 0.000000 0.000000 6.218700 0.000000 0.000000 0.000000 4.946900
10.406300 0.000000 0.000000 0.000000 6.218700 0.000000 0.000000 0.000000 4.946900
10.406300 0.000000 0.000000 0.000000 6.218700 0.000000 0.000000 0.000000 4.946900
10.406300 0.000000 0.000000 0.000000 6.218700 0.000000 0.000000 0.000000 4.946900
10.406300 0.000000 0.000000 0.000000 6.218700 0.000000 0.000000 0.000000 4.946900
10.406300 0.000000 0.000000 0.000000 6.218700 0.000000 0.000000 0.000000 4.946900
10.406300 0.000000 0.000000 0.000000 6.218700 0.000000 0.000000 0.000000 4.946900
10.406300 0.000000 0.000000 0.000000 6.218700 0.000000 0.000000 0.000000 4.946900
10.406300 0.000000 0.000000 0.000000 6.218700 0.000000 0.000000 0.000000 4.946900
10.406300 0.000000 0.000000 0.000000 6.218700 0.000000 0.000000 0.000000 4.946900
10.406300 0.000000 0.000000 0.000000 6.218700 0.000000 0.000000 0.000000 4.946900
10.406300 0.000000 0.000000 0.000000 6.218700 0.000000 0.000000 0.000000 4.946900
10.406300 0.000000 0.000000 0.000000 6.218700 0.000000 0.000000 0.000000 4.946900
10.406300 0.000000 0.000000 0.000000 6.218700 0.000000 0.000000 0.000000 4.946900
10.406300 0.000000 0.000000 0.000000 6.218700 0.000000 0.000000 0.000000 4.946900
10.406300 0.000000 0.000000 0.000000 6.218700 0.000000 0.000000 0.000000 4.946900
10.406300 0.000000 0.000000 0.000000 6.218700 0.000000 0.000000 0.000000 4.946900
10.406300 0.000000 0.000000 0.000000 6.218700 0.000000 0.000000 0.000000 4.946900
10.406300 0.000000 0.000000 0.000000 6.218700 0.000000 0.000000 0.000000 4.946900
10.406300 0.000000 0.000000 0.000000 6.218700 0.000000 0.000000 0.000000 4.946900
10.406300 0.000000 0.000000 0.000000 6.218700 0.000000 0.000000 0.000000 4.946900
10.406300 0.000000 0.000000 0.000000 6.218700 0.000000 0.000000 0.000000 4.946900
10.406300 0.000000 0.000000 0.000000 6.218700 0.000000 0.000000 0.000000 4.946900