5.12237 6.18881 2.44571 10.3779 2.89616 4.99713 2.96087 4.60549 0.0778564 2.41193 1.72075 2.52515 7.41654 1.4147 5.03995 8.03938 4.63525 2.49502 1.16729 4.75916 2.13412 4.14295 1.5737 4.61921 9.22971 1.57909 2.79238 6.31484 4.65863 0.220765 1.25662 4.70669 3.61802 4.06134 1.56148 1.19132 8.95207 1.59669 1.25316 6.40846 4.76315 3.63305 4.87646 4.49562 0.712936 0.504286 1.68697 2.98415 5.60766 1.60867 4.1783 9.95298 4.81355 1.58751 2.02937 5.90176 1.45506 3.35888 0.384331 3.87659 8.53897 2.86972 3.53203 7.20078 3.48571 0.936863 8.52065 0.374405 3.42925 6.83919 5.92812 0.977147 1.86577 3.43719 1.42615 3.3779 2.76003 3.95029
5.17552 0.0459729 2.41944 10.199 3.089 4.80417 2.91443 4.89669 4.71798 2.49692 1.89109 2.35241 7.47231 1.38855 0.190863 7.9283 4.37616 2.68532 1.19453 4.73694 2.0109 4.21117 1.75464 4.46657 9.28923 1.38677 2.85015 6.17645 4.49171 0.520852 1.45643 4.63626 3.47213 4.03968 1.53854 1.18137 9.08228 1.45257 1.3326 6.29942 4.52621 3.84467 4.64379 4.71691 0.907741 0.7081 1.61852 3.20269 5.71655 1.619 4.12281 9.74835 4.48428 1.62933 1.83814 5.99059 1.32962 3.44111 0.552094 3.79192 8.42124 2.56365 3.54584 6.90529 3.20178 1.19887 8.5503 0.167643 3.59203 7.06132 5.6078 1.16642 1.94824 3.58212 1.29421 3.60008 3.01983 3.77966
5.17615 0.148793 2.4601 10.1234 3.18709 -0.0306574 2.97571 4.62697 4.9245 2.4534 1.61936 2.44279 7.46488 1.62447 0.0425803 7.93605 4.61219 2.47852 1.21099 4.58672 2.21324 4.21932 1.7155 4.59581 9.18369 1.5533 2.68686 6.23532 4.50186 0.376943 1.38055 4.54368 3.74701 4.13398 1.64576 1.31314 9.19382 1.47943 1.1421 6.31061 4.52028 3.61655 4.81997 4.43385 0.921894 0.585429 1.55997 3.12723 5.70591 1.63835 4.18174 9.75532 4.61907 1.82481 2.02297 5.82493 1.62445 3.45096 0.497374 3.96117 8.39793 2.76741 3.32571 7.06503 3.3544 1.00988 8.32656 0.413876 3.33153 7.00294 5.77652 0.96453 1.89267 3.35784 1.54736 3.49464 2.92324 3.88645
5.12692 0.0955104 2.55732 10.1784 3.10072 0.157128 3.02919 4.65748 4.69523 2.53271 1.64776 2.29879 7.42935 1.59868 0.155942 7.93156 4.61241 2.58383 1.18151 4.71534 2.13833 4.27387 1.76737 4.44959 9.22029 1.51406 2.78943 6.1244 4.42841 0.52783 1.3954 4.60204 3.64406 4.19933 1.66033 1.27931 9.1448 1.52776 1.30008 6.19043 4.45111 3.70728 4.6744 4.54515 1.03393 0.748666 1.58029 3.32274 5.69632 1.58646 3.98768 9.63428 4.63754 1.60075 1.90863 5.90319 1.45922 3.41545 0.573779 3.73945 8.37245 2.69685 3.48399 6.8298 3.20969 1.13484 8.53211 0.270498 3.55427 6.85946 5.65643 1.288 2.00125 3.50146 1.40727 3.59333 2.92053 3.72844
5.18306 0.105355 2.44246 10.3084 2.97259 0.115004 2.95371 4.64929 4.83788 2.52784 1.65233 2.49785 7.44496 1.58552 -0.00520937 7.8745 4.52393 2.47307 1.24967 4.61033 2.23623 4.19725 1.68436 4.60213 9.14053 1.59732 2.7241 6.24358 4.5801 0.298055 1.31209 4.55861 3.72747 4.15818 1.65711 1.34338 9.08347 1.74056 1.22183 6.24479 4.54707 3.60285 4.80322 4.60903 0.860942 0.692804 1.54213 3.26621 5.61136 1.71027 4.10579 9.70441 4.58883 1.66253 1.9121 5.85095 1.54527 3.46403 0.448562 4.01015 8.34795 2.78937 3.39314 6.90498 3.27974 1.03045 8.42566 0.341455 3.33152 7.1125 5.6973 0.892494 2.12008 3.48059 1.63477 3.38707 2.93668 4.02849
5.31271 6.04299 2.59722 0.259182 3.38699 4.94514 3.18129 4.78648 4.76316 2.31799 1.54529 2.43032 7.37817 1.39477 -0.00351506 7.96157 4.50093 2.49455 1.23057 4.79091 2.20635 4.17724 1.61161 4.7332 9.11707 1.58874 2.74439 6.26705 4.5899 0.352332 1.42051 4.75647 3.72283 3.81151 1.52477 1.17969 9.01448 1.58461 1.22979 6.38254 4.65544 3.84858 4.84413 4.57882 0.94064 0.561828 1.68001 3.25825 5.66448 1.52212 4.33851 9.74979 4.85902 1.80669 1.98317 5.93822 1.40868 3.5862 0.344971 3.89199 8.46984 2.81994 3.48254 7.01093 3.3438 0.947825 8.34334 0.383879 3.4297 7.05063 5.76578 1.03031 1.73421 3.45363 1.51662 3.42365 2.81335 4.05647
5.44486 0.0794509 2.41628 -0.07778 2.83256 4.88631 2.85374 4.58644 5.00331 2.21858 1.4445 2.43942 7.34565 1.64182 0.0231044 8.30203 4.73607 2.55833 1.05714 4.67213 2.12649 4.02396 1.62693 4.78884 9.27611 1.49187 2.70537 6.37257 4.76394 0.204843 1.26258 4.57117 3.64878 3.84159 1.46641 1.2679 8.97221 1.59861 1.21021 6.57398 4.75021 3.7028 4.87815 4.91371 0.474761 0.183181 1.5562 2.8847 5.55374 1.59247 4.4806 10.1001 4.36356 1.91513 1.66392 5.92008 1.38473 3.35202 0.487163 3.95689 8.60027 2.63575 3.61679 7.10971 3.61445 0.921191 8.58664 0.234282 3.39555 7.08506 5.97026 0.941726 1.92645 3.47246 1.38293 3.34873 2.84698 4.14148
5.27994 6.11795 2.34382 0.0380319 3.24275 4.94767 2.95814 4.53614 4.8804 2.19079 1.79813 2.46156 7.47165 1.43838 0.0382652 7.99992 4.73224 2.47201 1.20833 4.94151 2.12169 4.10101 1.50561 4.76415 9.21 1.5453 2.71072 6.2933 4.49234 0.306689 1.24598 4.68784 3.7193 3.9568 1.65794 1.31537 9.09439 1.56636 1.13099 6.48207 4.3846 3.7505 4.79605 4.48157 0.747613 0.371438 1.44709 3.17712 5.67592 1.54533 4.40396 10.0748 4.97967 1.70278 2.05544 6.09517 1.6038 3.57796 0.166101 4.15893 8.56184 2.80724 3.41809 7.00611 3.34667 1.04518 8.37706 0.385675 3.30823 7.05008 5.71729 0.872128 1.84146 3.60169 1.40053 3.32088 2.65049 4.008
5.13245 -0.372457 2.46596 0.190635 3.10816 4.87344 2.93582 4.99366 0.035016 2.29785 1.68912 2.35102 7.53771 1.33688 -0.0528938 7.99509 4.75142 2.46636 1.14976 4.86613 2.31947 4.1003 1.30348 4.715 9.25445 1.51478 2.69775 6.32645 4.57588 0.255904 1.3029 4.78095 3.82138 3.87108 1.49528 1.28542 8.97121 1.54214 1.15204 6.48746 4.71003 3.59069 4.86971 4.52735 0.570594 0.430737 1.58484 3.00889 5.69066 1.23208 4.36407 9.84248 4.88861 1.98451 1.90123 6.07286 1.69088 3.60088 0.016755 4.13786 8.63426 2.85263 3.4864 7.06649 3.28792 0.746715 8.53123 0.336692 3.31433 7.13466 5.76095 0.997051 1.8517 3.6487 1.58197 3.26894 2.46066 4.01926
5.1118 -0.0425362 2.51965 10.1563 3.29199 4.88612 2.95157 4.52882 4.92011 2.26198 1.51049 2.55285 7.37589 1.61127 -0.0109883 8.16446 4.63264 2.5065 1.23185 4.59846 2.19576 4.11098 1.4359 4.72195 9.21219 1.58414 2.63851 6.37219 4.83761 0.229285 1.43381 4.47944 3.77421 3.80557 1.48766 1.30978 9.06403 1.64663 1.13304 6.58075 4.79158 3.71574 4.83501 4.82815 0.650462 0.438298 1.89881 3.04471 5.61749 1.44555 4.43097 10.0165 4.50681 1.83716 1.91282 5.93226 1.62769 3.32228 0.219537 3.95156 8.42342 2.64211 3.40096 7.17628 3.60579 0.931459 8.71253 0.276583 3.27996 6.99631 6.10721 0.965522 1.90957 3.38151 1.42849 3.53069 2.74049 4.01341
5.41524 0.172756 2.43299 10.1782 3.15954 5.04891 3.03669 4.56584 -0.0048277 2.3171 1.4472 2.4631 7.27849 1.42908 -0.0755452 8.1534 4.80681 2.67069 1.34864 4.71582 2.19263 3.95472 1.40156 4.72051 9.09691 1.49535 2.74211 6.36922 4.80472 0.165975 1.56047 4.58992 3.76454 3.88971 1.41968 1.26404 8.91221 1.57502 1.29406 6.41402 4.78136 3.51568 4.86388 4.77991 0.469803 0.530145 1.27586 3.12812 5.51275 1.57226 4.28387 9.86774 4.97341 1.91636 2.20734 5.84721 1.44244 3.47444 0.109976 4.02934 8.59812 2.87604 3.46082 7.02142 3.60395 0.83742 8.3339 0.366341 3.51105 7.05559 6.03439 0.719371 1.93365 3.43607 1.45154 3.1897 2.67711 3.98471
5.1634 6.01143 2.39535 0.0761327 3.11171 0.162984 2.87163 4.98748 0.0264291 2.41631 1.58417 2.42929 7.39378 1.36234 5.01413 8.05131 4.49712 2.57616 1.18875 4.76957 2.25512 4.07259 1.56929 4.71986 9.23966 1.47671 2.68246 6.31359 4.73768 0.153012 1.36517 4.59095 3.77822 3.99196 1.33189 1.20854 9.06434 1.62555 1.16821 6.48362 4.67417 3.54653 4.87649 4.71913 0.548733 0.595113 1.67474 3.12596 5.57291 1.43672 4.29819 9.8983 4.73123 1.77889 1.82087 6.01512 1.69254 3.38802 0.280189 3.97604 8.45598 2.68346 3.45127 7.16054 3.61967 0.779895 8.57384 0.200359 3.36087 7.1508 6.00649 0.650128 2.07335 3.67741 1.57443 3.32717 2.71465 4.06286
5.13686 6.04739 2.50147 0.268786 3.10763 4.77229 2.91389 4.69082 4.68228 2.41896 1.65007 2.23631 7.39345 1.5704 0.290891 8.03675 4.4529 2.62303 1.20123 4.79581 2.06894 4.20807 1.71722 4.50536 9.19959 1.41993 2.92231 6.21743 4.60758 0.43616 1.22362 4.71326 3.6046 4.1806 1.6063 1.36047 9.02176 1.467 1.35891 6.43546 4.65609 3.68529 4.75604 4.64892 0.912222 0.67686 1.55583 3.33927 5.66825 1.54206 4.03796 9.73043 4.73065 1.57472 1.89615 5.99147 1.33829 3.34517 0.57653 3.82608 8.46827 2.66713 3.51229 6.94578 3.44139 1.21779 8.42581 0.214417 3.61283 6.90017 5.804 1.19515 1.92016 3.55768 1.52221 3.52337 2.92291 3.81618
4.98141 5.90353 2.50037 10.155 3.09486 0.0658242 2.90772 4.44402 4.87975 2.61883 1.5473 2.37522 7.42119 1.68674 0.0430316 7.91023 4.73033 2.49329 1.18524 4.58961 2.23835 4.3007 1.62628 4.5839 9.14653 1.73387 2.79752 6.1929 4.52305 0.356092 1.26321 4.58522 3.73409 4.40332 1.65601 1.3109 8.95457 1.68037 1.26946 6.31158 4.5896 3.68929 4.7547 4.44516 0.760034 0.697969 1.5855 3.24034 5.60456 1.83102 3.87645 9.67757 4.82769 1.72777 2.13957 5.64486 1.59294 3.52986 0.347275 4.07972 8.52933 3.00706 3.46953 6.96528 3.35792 1.01166 8.25781 0.589012 3.46239 6.76827 5.91193 1.05973 1.8392 3.39136 1.58957 3.37683 2.7212 3.98147
5.05966 6.01991 2.41987 0.156248 3.1939 4.87846 2.89302 4.65096 4.96943 2.32149 1.698 2.42776 7.46556 1.51961 0.0694177 8.03977 4.39055 2.50628 1.15653 4.70567 2.15905 4.17068 1.67415 4.73879 9.20517 1.58951 2.77711 6.26288 4.63276 0.24455 1.36774 4.567 3.66783 4.19214 1.66096 1.32411 8.99777 1.63936 1.27297 6.37886 4.49935 3.66761 4.78063 4.80966 0.455665 0.557307 1.62147 3.19354 5.67708 1.67303 4.24567 9.81923 4.63505 1.71773 2.01955 5.9078 1.58429 3.30336 0.476784 4.04805 8.49718 2.84015 3.54358 6.98791 3.3243 0.923982 8.44544 0.344735 3.49964 7.03119 5.82771 0.963319 1.93902 3.4436 1.36976 3.48754 2.94509 4.11563
5.26775 -0.156509 2.60282 10.1854 3.26914 -0.0803439 2.98221 4.86261 4.84451 2.32281 1.56478 2.49009 7.47476 1.48187 0.0435166 8.11929 4.5213 2.50259 1.23433 4.69289 2.19679 4.0287 1.67322 4.71308 9.18484 1.36185 2.6833 6.29478 4.69442 0.24379 1.47625 4.69814 3.72299 3.97784 1.61379 1.34196 9.04884 1.52697 1.18395 6.42109 4.6336 3.64279 4.79527 4.57375 0.638216 0.531372 1.15156 3.05742 5.59488 1.61967 4.46702 9.88254 4.88118 1.86275 2.08724 5.83291 1.44311 3.34018 0.412093 3.94735 8.63283 2.65555 3.49427 7.14344 3.55169 0.857126 8.16227 0.246221 3.1971 7.00349 5.93098 0.914926 1.74246 3.35369 1.58395 3.32559 2.74926 3.97417
5.35123 -0.0722167 2.41079 10.2786 3.23236 4.84894 2.97573 4.67282 4.94306 2.35167 1.69046 2.4862 7.47544 1.57629 -6.24204e-05 8.03053 4.72383 2.44703 1.18389 4.60665 2.16472 4.00559 1.49982 4.78643 9.22233 1.45912 2.79663 6.2873 4.6197 0.130774 1.28353 4.70539 3.67012 3.78473 1.39159 1.29399 9.04244 1.78799 1.28231 6.41041 4.6098 3.6398 4.77124 4.69064 0.701016 0.627334 1.48834 3.09833 5.59911 1.66999 4.52584 9.87066 4.41324 1.73738 1.92021 5.7342 1.41918 3.5195 0.149747 4.04178 8.48191 2.66837 3.62347 7.25541 3.49562 0.864222 8.323 0.283308 3.35985 6.98619 5.89342 0.861901 1.99816 3.39431 1.45955 3.31617 2.70016 4.04237
5.16582 0.0483529 2.32529 -0.188578 3.10461 0.131415 2.97603 4.68512 4.94987 2.31296 1.51208 2.35029 7.49386 1.54887 0.129252 8.10659 4.5506 2.55383 1.18298 4.65109 2.2485 4.14693 1.69693 4.56961 9.17181 1.56046 2.84483 6.38794 4.59471 0.112043 1.28644 4.51407 3.7923 3.89795 1.8184 1.12926 9.02167 1.49831 1.31867 6.43542 4.62552 3.61704 4.82447 4.64841 0.460924 0.541151 1.46011 3.13663 5.67345 1.75188 4.25672 9.85419 4.69014 1.74298 1.92325 5.90243 1.5708 3.4205 0.337077 3.8632 8.58862 2.78955 3.59175 7.19498 3.4657 0.844332 8.44916 0.287259 3.46171 6.9796 5.88096 0.840367 1.83831 3.4101 1.59916 3.40602 2.78614 3.91977
5.24479 6.1044 2.51338 0.197455 2.9221 0.0483047 2.92217 4.79059 0.071014 2.31469 1.59296 2.43719 7.46725 1.52783 4.90447 8.00822 4.69574 2.40303 1.2572 4.77769 2.34666 4.06258 1.54282 4.59658 9.22055 1.51628 2.79714 6.37701 4.62135 0.166306 1.33859 4.55308 3.78869 3.89078 1.53576 1.23191 9.10035 1.42 1.29268 6.4615 4.62727 3.47115 4.89297 4.59638 0.550877 0.5103 1.45685 3.29407 5.48356 1.39064 4.12234 9.92251 4.78624 1.8588 2.06841 5.88801 1.63793 3.19847 0.407521 3.88412 8.51521 2.70908 3.46913 7.18059 3.44094 0.790359 8.49499 0.289912 3.45784 6.86715 5.90239 0.845684 1.9635 3.45694 1.64749 3.36298 2.92026 4.02313
5.29398 0.103142 2.58175 0.190291 2.94555 0.0564069 2.87346 4.75097 4.90455 2.33703 1.43786 2.40424 7.47817 1.65171 0.0490527 8.03518 4.72591 2.42615 1.22305 4.63921 2.19619 4.11459 1.66884 4.61371 9.14527 1.3437 2.84062 6.33285 4.64813 0.300717 1.40564 4.64494 3.71856 3.84411 1.58055 1.2618 8.90483 1.5256 1.35735 6.5227 4.67291 3.6115 4.83166 4.50024 0.583878 0.431444 1.50046 3.07892 5.64212 1.61117 4.41231 10.0213 4.64902 1.76715 2.00148 5.88593 1.60815 3.46099 0.326911 3.91818 8.39695 2.48735 3.57213 7.22648 3.53187 0.907491 8.47372 0.0672664 3.36016 6.77214 5.95223 0.947402 1.96416 3.48863 1.45631 3.38825 2.7371 3.76478
5.52328 0.1491 2.52387 10.0318 3.24203 -0.101272 2.99918 4.67212 4.99338 2.47902 1.31445 2.64677 7.5315 1.5991 4.90535 7.92792 4.61787 2.48268 1.23194 4.73849 2.18741 4.09601 1.49289 4.8891 9.09498 1.46928 2.64814 6.21253 4.61684 0.0750262 1.38329 4.74032 3.73678 4.11415 1.501 1.4045 9.20048 1.57018 1.13648 6.40312 4.81716 3.63513 4.77765 4.59721 0.651789 0.60927 1.63363 3.2072 5.56821 1.63849 4.40046 9.76214 4.60362 1.73498 1.75431 6.12533 1.50995 3.4668 0.207031 4.16528 8.22201 2.66265 3.4064 7.12667 3.47587 0.714734 8.34079 0.150758 3.117 6.88289 5.94337 0.728569 2.12423 3.60288 1.46344 3.16723 2.58483 4.20746
5.59205 0.52098 2.55953 0.18914 3.16351 4.96296 2.96 4.69274 4.892 2.43354 1.52661 2.51579 7.54987 1.36263 4.99393 7.72896 4.47697 2.57131 1.19435 4.75011 2.25189 4.17471 1.58941 4.79248 9.22462 1.43285 2.64076 6.19626 4.58961 0.261324 1.31415 4.71063 3.78922 4.00886 1.58243 1.19875 9.08774 1.58499 1.02525 6.23721 4.60272 3.77018 4.78145 4.5613 0.778996 0.604956 1.62111 3.03123 5.65462 1.57595 4.37161 9.80585 4.73939 1.7647 2.00265 6.04892 1.63452 3.47023 0.479566 4.02647 8.39594 2.71636 3.35494 7.0571 3.312 0.727941 8.40679 0.277288 3.35119 6.99275 5.82219 0.880119 1.9296 3.59641 1.45889 3.42418 2.76026 4.06765
5.23348 6.16206 2.58751 0.30233 3.09857 0.0532589 3.1146 4.57948 4.83424 2.4283 1.59677 2.43344 7.34946 1.48922 -0.0497968 7.9176 4.70158 2.57868 1.23497 4.76185 2.14647 4.05016 1.54288 4.65743 9.07462 1.61274 2.68252 6.33239 4.55535 0.346831 1.38481 4.5757 3.67436 4.05638 1.63762 1.17395 8.9572 1.56689 1.16037 6.44575 4.67215 3.84461 4.86503 4.45391 0.845982 0.59683 1.90377 3.01371 5.61957 1.30408 4.23605 9.74413 4.53356 1.67185 1.8481 6.1067 1.62882 3.41178 0.170219 4.11932 8.25435 2.72056 3.4662 7.2047 3.33477 0.89148 8.604 0.261162 3.40929 6.90968 5.92533 1.02269 2.06522 3.72952 1.34059 3.37215 2.75175 3.8969
5.15637 6.08783 2.41948 9.98726 3.25573 -0.171176 3.04237 4.57372 5.01801 2.31101 1.52595 2.31303 7.52312 1.2689 -0.141082 8.16436 4.58114 2.62982 1.18541 4.88121 2.20384 4.11209 1.57574 4.65981 9.09262 1.66775 2.82165 6.35168 4.77876 0.290926 1.17634 4.70921 3.76562 3.72654 1.59491 1.00395 8.93019 1.77593 1.32845 6.60931 4.68254 3.92309 4.88128 4.66766 0.596815 0.461177 1.77356 3.08601 5.57322 1.37494 4.31737 9.92794 4.76346 1.66293 2.05385 5.96345 1.6514 3.35196 0.396072 3.95874 8.37319 2.81128 3.73385 7.02839 3.58627 1.0367 8.58713 0.256255 3.48021 7.16327 6.02083 1.06652 1.82956 3.69881 1.36249 3.42506 2.72357 3.81981
5.51022 -0.0362478 2.59711 0.227475 2.9663 4.88679 2.91885 4.86472 0.188009 2.18251 1.52918 2.63722 7.40352 1.64357 0.0941053 8.24233 4.72249 2.27532 1.18236 4.67982 2.33459 3.95621 1.4959 4.69661 9.21933 1.437 2.55173 6.39125 4.69151 0.142246 1.32696 4.61657 3.88052 3.9085 1.54507 1.35075 9.01632 1.38898 1.09274 6.63328 4.63025 3.45841 4.85864 4.72659 0.635343 0.368067 1.56338 3.00667 5.50351 1.5951 4.35168 9.94404 4.48209 1.89857 1.95329 5.97765 1.72257 3.32099 0.280346 4.02385 8.40169 2.61859 3.26007 7.03023 3.49316 0.795308 8.6693 0.174083 3.17394 7.08053 5.89022 0.825213 1.85169 3.57236 1.53599 3.02475 2.68144 4.07708
5.14787 -0.115913 2.4379 10.1347 3.10832 4.79337 2.99993 4.80057 0.014783 2.30707 1.35173 2.48901 7.33594 1.56953 4.90546 8.19101 4.81875 2.37951 1.4195 4.74785 2.2588 4.07776 1.52229 4.91333 9.03781 1.37739 2.66714 6.40928 4.71748 0.235064 1.52116 4.79979 3.82491 3.93643 1.35542 1.32874 8.75923 1.49268 1.10868 6.54734 4.86487 3.76604 4.88999 4.72258 0.4824 0.46491 1.41969 2.91445 5.53354 1.46574 4.4185 9.96194 4.86949 1.71987 2.32688 5.89715 1.6735 3.17507 0.36722 4.25585 8.3235 2.57311 3.47985 7.07215 3.49747 0.854961 8.33114 0.0918024 3.25402 6.9442 5.95262 0.97984 1.95933 3.49982 1.5259 3.41349 2.80601 4.28559
5.27554 6.2434 2.50732 -0.0700723 3.36567 0.125568 2.99117 4.43951 4.64546 2.30856 1.42969 2.45389 7.40402 1.74061 0.0358361 8.27516 4.94975 2.61785 1.19633 4.97651 2.12422 4.02388 1.38437 4.68667 9.28195 1.52948 2.83708 6.33749 4.66028 0.214293 1.27891 4.65611 3.70976 3.80578 1.42745 1.21904 8.89862 1.38797 1.27577 6.52655 4.7502 3.63864 4.81413 4.84765 0.681347 0.361704 1.65138 3.143 5.50263 1.19094 4.24394 10.1284 4.69129 1.93015 1.73765 6.2339 1.61246 3.16329 0.119925 4.0407 8.54555 2.59988 3.60463 6.66249 3.32752 0.93625 8.65598 0.253535 3.51804 7.21371 5.62012 0.980828 1.96553 3.78858 1.44102 3.31997 2.53091 3.83724
5.25219 -0.0502666 2.6565 0.210857 3.10438 -0.0343905 2.99545 4.78117 4.97945 2.40081 1.53833 2.52739 7.38608 1.44419 4.95078 8.00539 4.57092 2.31436 1.28661 4.77712 2.25259 4.11602 1.75652 4.7787 9.18626 1.55774 2.63446 6.20453 4.52183 0.210075 1.4339 4.68386 3.7786 3.97033 1.71086 1.40382 9.14635 1.38525 1.07413 6.32785 4.62939 3.63096 4.82429 4.57608 0.807316 0.515069 1.59931 3.04231 5.63676 1.59602 4.38115 9.96005 4.77611 1.84671 2.1396 5.86458 1.58085 3.426 0.461223 4.00488 8.38734 2.70473 3.25431 6.9656 3.24361 0.733564 8.41021 0.302972 3.36419 7.04858 5.73069 0.857565 1.91497 3.46955 1.50372 3.41453 2.95848 4.15324
5.15895 6.1211 2.4561 0.331272 3.17479 5.0717 2.92328 4.56168 4.89519 2.4888 1.36366 2.43226 7.40389 1.72948 -0.0206326 8.00428 4.6695 2.44115 1.28113 4.49062 2.26011 4.17487 1.64743 4.65451 9.17122 1.56631 2.82406 6.27177 4.61093 0.249711 1.26152 4.71729 3.82407 4.20618 1.6287 1.19539 9.04077 1.65477 1.23119 6.38929 4.73315 3.60282 4.81474 4.46788 0.778014 0.480633 1.44255 3.30353 5.58615 1.83223 3.98433 9.91388 4.68676 1.72607 2.17198 5.60723 1.51427 3.52348 0.300318 4.04648 8.61007 2.95144 3.51858 7.14885 3.53218 0.902549 8.19683 0.527299 3.41498 6.81055 5.95123 0.82783 1.87941 3.20271 1.72814 3.14889 2.76819 4.06865
5.12147 0.0369433 2.37753 10.1791 3.27155 4.94598 2.93117 4.79113 4.56541 2.48763 1.90651 2.39178 7.51478 1.14387 0.214339 7.97511 4.27309 2.5285 1.11672 4.89442 2.15286 4.24514 1.70671 4.38967 9.25627 1.49966 2.91579 6.22056 4.36298 0.495207 1.23003 4.99224 3.70827 4.04543 1.58868 1.17535 9.09277 1.50485 1.407 6.41555 4.43041 3.74706 4.70893 4.76151 0.848927 0.673061 1.89802 3.31402 5.71017 1.70338 3.93445 9.71406 4.49186 1.85905 1.68058 0.0384331 1.56191 3.51272 0.581515 3.69574 8.3842 2.5808 3.57062 6.83336 3.13603 1.30338 8.60187 0.155775 3.47742 7.12836 5.54621 1.18256 2.12267 3.80817 1.46528 3.459 2.98666 3.81644
5.14227 6.13251 2.33278 0.304366 3.02062 0.078582 2.90284 4.58489 4.9151 2.46672 1.45981 2.5432 7.40495 1.60019 4.9102 8.01255 4.57098 2.45537 1.20723 4.64505 2.16178 4.13698 1.59011 4.7416 9.22081 1.55145 2.76964 6.31324 4.66415 0.213601 1.28945 4.60438 3.64066 3.99283 1.61094 1.42268 9.00046 1.76989 1.29989 6.33155 4.51603 3.59323 4.84732 4.60755 0.706021 0.630745 1.67716 3.14977 5.58658 1.69423 4.28962 9.85762 4.79977 1.68425 1.93341 5.86134 1.4181 3.50896 0.379849 3.9168 8.51774 2.87091 3.51938 7.1778 3.57736 0.845359 8.50536 0.264741 3.48166 6.92628 5.91722 0.832968 2.03233 3.46654 1.50358 3.25693 2.73195 4.31916
5.01876 6.15317 2.48697 10.1824 3.17973 0.0493106 3.02046 4.68685 4.7905 2.37073 1.52579 2.49386 7.42307 1.64639 4.93863 8.03017 4.68905 2.52043 1.29797 4.70083 2.24815 4.04885 1.5394 4.72881 9.16471 1.50136 2.7802 6.29014 4.71203 0.269572 1.40125 4.83942 3.77117 3.98358 1.59811 1.19081 9.07441 1.5082 1.24824 6.43448 4.74044 3.64914 4.81472 4.67574 0.597008 0.63176 1.56574 3.23189 5.61592 1.23296 4.28373 9.92057 4.68365 1.78395 2.12536 5.81673 1.50763 3.33677 0.400168 3.85109 8.57315 2.76959 3.56333 7.10353 3.4927 0.914546 8.39703 0.381003 3.56642 6.99031 5.94104 0.991083 1.9792 3.43704 1.6056 3.25725 2.74273 4.11896
5.0806 6.26021 2.51017 10.147 3.13418 5.01251 3.08962 4.73355 -0.0957115 2.27966 1.63033 2.47083 7.40271 1.31363 -0.0588644 8.2017 4.71748 2.51313 1.239 4.80099 2.27949 4.10174 1.52745 4.7959 9.09364 1.64218 2.74066 6.35663 4.50601 0.161298 1.32738 4.52121 3.78401 4.15821 1.67834 1.21582 9.04329 1.63319 1.21267 6.63039 4.73145 3.67665 4.87425 4.8107 0.516783 0.271469 1.41344 3.19083 5.49203 1.51093 4.19378 9.94794 4.97739 1.77964 2.16597 6.09327 1.99976 3.45162 0.227131 4.11169 8.53527 2.97013 3.37786 7.00211 3.23501 0.618968 8.24445 0.448997 3.36338 7.11453 5.67295 0.925742 1.83687 3.58645 1.32027 3.12617 2.77451 4.23311
5.38819 0.037777 2.56661 -0.00885937 3.00679 0.100881 2.93213 4.81533 4.6962 2.25474 1.51867 2.31339 7.30837 1.68644 0.168353 8.23614 4.47616 2.69068 1.13828 4.56075 2.21246 3.96388 1.71415 4.69227 9.30878 1.42933 2.723 6.3288 4.72902 0.283182 1.27708 4.69068 3.73405 3.83275 1.82963 1.24571 9.12103 1.53038 1.20829 6.51575 4.58 3.67176 4.69567 4.78067 0.446863 0.547603 1.6099 3.24667 5.47437 1.7762 4.28284 10.0546 4.59203 1.86399 2.02801 5.67115 1.53138 3.45596 0.414138 3.92418 8.4807 2.5635 3.56041 7.38863 3.76442 0.971955 8.83591 0.116439 3.32674 6.77779 6.04069 0.97627 1.83794 3.30636 1.51646 3.22154 2.85914 3.96816
5.14648 -0.229097 2.54609 0.137285 3.05683 4.97781 3.02382 4.53632 0.0861043 2.37193 1.71418 2.45509 7.53087 1.50994 -0.127753 8.17309 4.69718 2.41597 1.10716 4.74593 2.24273 4.15088 1.54438 4.81605 9.18606 1.71941 2.66953 6.2309 4.61238 0.172653 1.1779 4.56744 3.72282 4.03815 1.5543 1.31077 9.02962 1.48813 1.1825 6.23533 4.66345 3.75079 4.80244 4.52137 0.752796 0.330717 1.73693 2.98132 5.63829 1.45779 4.31192 10.0238 4.75457 1.55398 1.84464 6.05369 1.78148 3.27247 0.352718 4.15958 8.45565 2.99025 3.24974 7.12089 3.43999 0.704889 8.44021 0.43586 3.40239 6.83684 5.82408 1.03794 1.88342 3.57626 1.54796 3.43211 2.829 4.17977
5.7247 -0.0152332 2.49956 0.350331 2.98343 5.03541 3.02115 4.84257 0.0657754 2.39257 1.35708 2.27395 7.39464 1.53514 4.97693 7.98024 4.33887 2.51939 1.29053 4.79478 2.34208 4.08134 1.61953 4.57612 9.07141 1.31597 2.73806 6.32316 4.91838 0.331232 1.37619 4.88861 3.83136 4.02611 1.5424 1.2744 8.99 1.3918 1.22097 6.37327 4.70717 3.6006 4.79815 5.03854 0.753493 0.626144 1.4517 3.14623 5.56061 1.44805 4.01563 9.63393 4.52878 1.92826 1.89203 5.957 1.52731 3.18686 0.406626 3.96001 8.22476 2.47551 3.49334 6.94191 3.53478 0.931699 8.43855 0.134863 3.45114 7.11162 6.13255 0.777538 2.07983 3.5007 1.67503 3.41159 2.9367 4.08061
5.17402 6.34369 2.54934 9.97087 3.07497 -0.0270652 2.95646 4.69079 0.122522 2.5684 1.28945 2.52458 7.3655 1.23723 4.99611 7.89343 4.67349 2.28609 1.37963 4.80148 2.33716 4.22825 1.51383 4.87318 8.92647 1.52225 2.70488 6.30751 4.89367 0.0943719 1.50128 4.48319 3.9016 4.18334 1.51548 1.30273 9.00817 1.51933 1.12011 6.3714 4.89961 3.62265 4.74618 4.50848 0.523194 0.664246 1.40625 3.21552 5.66084 1.98589 4.41851 9.6788 5.07172 1.79233 2.41288 5.95797 1.63279 3.73357 0.109631 4.23156 8.31713 2.82817 3.22791 7.30093 3.84075 0.44179 8.05292 0.403234 3.39391 6.73969 6.13629 0.932101 2.01287 3.56434 1.58223 3.26175 2.55256 4.01646
5.28076 0.0470561 2.39011 0.376165 2.77745 0.00744437 2.99817 4.84208 0.0624894 2.29585 1.55918 2.4668 7.37751 1.45288 4.90884 8.10004 4.60448 2.48877 1.04392 4.73402 2.21908 4.01299 1.50093 4.63595 9.13172 1.53719 2.76035 6.35331 4.56614 0.313471 1.44093 4.71338 3.70759 3.96131 1.57572 1.19425 9.01166 1.57131 1.22677 6.62123 4.57993 3.82263 4.8303 4.7833 0.64798 0.409949 1.59579 2.96633 5.69882 1.57044 4.18523 9.83557 4.81958 1.74575 1.9918 6.00726 1.58303 3.47627 0.236703 4.02868 8.61612 2.83034 3.49171 6.95088 3.33754 1.0539 8.38365 0.362374 3.54106 7.19067 5.77643 1.03895 1.84201 3.39936 1.52357 3.25503 2.62938 3.96127
5.52188 0.376727 2.40585 0.0844256 3.04701 5.07535 2.91036 4.61966 4.93478 2.20455 1.65488 2.32905 7.53248 1.52204 -0.00942688 7.89931 4.64249 2.49951 1.08449 4.70244 2.07168 4.16314 1.55232 4.76884 9.3518 1.52582 2.90331 6.28366 4.47457 0.311503 1.28233 4.51542 3.63262 3.96605 1.58132 1.25132 9.13941 1.66847 1.42665 6.44559 4.47258 3.78491 4.83011 4.67247 0.786057 0.515369 1.58683 3.21803 5.6725 1.60871 4.30545 9.98622 4.58121 1.72913 1.87636 6.00853 1.43068 3.50174 0.210416 4.05887 8.65276 2.73722 3.64278 7.09015 3.34879 1.06183 8.4452 0.379548 3.43262 7.0732 5.80364 0.837012 1.82066 3.47742 1.2722 3.364 2.62467 4.11151
5.00486 6.17785 2.21282 10.0611 3.41707 4.82518 3.00175 5.13082 4.96993 2.36872 1.61156 2.53288 7.41577 1.28643 0.022874 8.08754 5.08472 2.46761 1.15679 4.73482 2.23272 4.06745 1.317 4.73729 9.26408 1.11085 2.80817 6.40078 4.93127 0.169023 1.37143 4.89737 3.72228 3.75494 1.1248 1.25052 8.91854 1.08904 1.29382 6.58372 5.05685 3.69157 4.95555 4.62938 0.476593 0.466608 1.49175 2.92536 5.55977 1.46658 4.38086 9.93558 4.45244 1.80001 1.76675 5.97892 1.48411 3.44661 0.0646478 3.91295 8.51822 2.24241 3.72108 7.3065 3.818 0.76199 8.71287 -0.153475 3.42083 6.86753 6.21868 0.821599 1.99264 3.49728 1.54323 3.22756 2.42273 4.25701
4.96612 6.03983 2.44549 0.0649299 3.18752 4.96712 2.873 4.85434 5.03195 2.39137 1.67013 2.60417 7.68239 1.48828 4.83518 7.9935 4.7831 2.30634 1.11955 4.66374 2.38602 4.17248 1.53403 4.74327 9.16476 1.4821 2.65335 6.32472 4.66428 0.103757 1.24383 4.78141 3.95473 3.64665 1.4276 1.1228 9.13594 1.73637 1.09864 6.65711 4.45387 3.68927 4.82404 4.79582 0.512444 0.417899 1.28704 3.27499 5.71858 1.52826 4.51939 9.89223 4.82442 1.79629 2.14062 5.61738 1.69654 3.47904 0.320995 3.95473 8.48319 2.66688 3.51133 7.08303 3.54646 0.978308 8.34909 0.258003 3.27581 6.90765 5.94581 0.696023 1.72539 3.27608 1.97248 3.39938 2.74464 4.2014
5.11411 -0.277298 2.4879 10.246 3.22611 0.0190094 2.93532 4.75927 4.97781 2.34009 1.91877 2.3038 7.41711 0.920661 -0.0184038 8.08915 4.79764 2.42957 1.27315 5.04704 2.22483 4.09738 1.20638 4.55484 9.16204 1.4622 2.78844 6.3417 4.72846 0.417218 1.57349 4.76494 3.75922 3.90851 1.45473 1.05864 8.94477 1.31643 1.27911 6.6322 4.77776 4.02131 4.7781 4.65658 0.527575 0.519906 1.47056 3.2234 5.57237 1.35948 4.07524 9.91534 5.26571 1.99941 2.07809 6.05539 1.40427 3.45946 -0.123392 4.01023 8.49332 2.83941 3.23129 7.24319 3.72834 1.24151 8.3082 0.336724 3.5472 6.83168 6.04964 1.0549 1.77213 3.57472 1.43784 3.18495 2.41073 3.84912
5.39182 6.59697 2.39969 0.533284 3.07032 0.0374508 2.91191 5.13805 -0.0479447 2.54102 1.7007 2.60067 7.34361 1.46743 4.97905 7.8358 4.45886 2.26155 1.41126 4.81904 2.27885 3.97982 1.43779 4.89775 8.99621 1.19719 2.79646 6.34 4.79295 -0.0760761 1.44776 4.91955 3.85485 3.88355 1.25318 1.32466 8.75554 1.38692 1.29107 6.51505 4.83517 3.39943 4.79849 5.10652 0.193743 0.662885 1.34717 2.92953 5.44416 1.28447 4.35542 9.88457 4.87209 1.78287 2.27496 5.91318 1.69547 3.32431 0.260095 4.10262 8.34864 2.4141 3.53105 6.82509 3.47116 0.621761 8.41976 -0.00237152 3.55754 7.10538 5.8959 0.755979 2.13418 3.44178 1.82583 3.38108 2.72098 4.38629
5.32027 0.0787964 2.227 9.98802 3.355 0.0801322 2.76044 4.74618 4.89826 2.47138 1.94321 2.36541 7.38566 1.28666 0.246208 8.04226 4.55391 2.51839 1.19277 4.76436 2.06223 4.16043 1.63407 4.53441 9.27947 1.46784 2.87263 6.25175 4.40387 0.334399 1.29997 4.71957 3.63965 4.07845 1.59755 1.12921 9.06675 1.43179 1.38597 6.44989 4.50942 3.79039 4.72622 4.64759 0.753773 0.711367 1.54904 3.22231 5.78011 1.59282 4.23263 9.83654 4.71488 1.63925 1.82979 5.93266 1.34083 3.43259 0.473053 3.88245 8.55098 2.77707 3.52906 6.98775 3.28649 1.17793 8.55197 0.264549 3.62722 7.06195 5.53231 1.07053 2.01476 3.62014 1.33062 3.54332 2.87573 3.95547
5.29162 0.244623 2.40249 0.359145 2.95064 5.01313 2.91246 4.53874 0.0681428 2.46249 1.54493 2.48303 7.44312 1.81273 -0.0768282 7.98643 4.61815 2.5226 1.0934 4.55798 2.18042 4.13826 1.61733 4.68816 9.20983 1.52424 2.67134 6.24918 4.61571 0.377277 1.17962 4.80329 3.73071 4.00227 1.81941 1.22326 9.07539 1.49762 1.15566 6.30373 4.54191 3.83501 4.74471 4.53614 0.680203 0.525042 1.49204 3.03342 5.63219 1.69031 4.20414 9.78543 4.54543 1.70117 2.05348 5.63655 1.64727 3.61273 0.368476 3.96746 8.74897 2.83157 3.41153 7.16845 3.45497 0.919656 8.26248 0.446538 3.33377 6.88914 5.9702 1.00949 1.87584 3.37209 1.59238 3.30053 2.85759 4.03215
5.24991 6.16427 2.56305 10.0684 3.19103 0.0898582 2.97097 4.90587 4.80895 2.48852 1.81877 2.29756 7.43629 1.29716 0.191001 7.97392 4.50941 2.56904 1.20827 4.79354 2.13142 4.20866 1.68921 4.47847 9.2609 1.38897 2.87247 6.17942 4.45428 0.40139 1.54631 4.72778 3.60011 4.11361 1.8129 1.26726 9.20725 1.3316 1.26441 6.37183 4.50626 3.67103 4.74149 4.7482 0.829714 0.645344 1.65235 3.33766 5.69483 1.57832 4.02429 9.66784 4.68161 1.75117 1.93867 6.07386 1.49536 3.41854 0.452025 3.89619 8.26117 2.55759 3.48119 6.87365 3.3096 1.20826 8.48139 0.109258 3.52718 6.92563 5.65663 1.10919 1.7816 3.56365 1.3755 3.4924 2.90047 3.85827
5.48573 0.206898 2.44896 0.381672 2.85523 4.85335 2.93832 4.64016 0.0912457 2.51181 1.63932 2.49526 7.33502 1.69259 0.11221 8.00655 4.53709 2.30354 1.30753 4.57899 2.2313 4.10445 1.53459 4.69484 9.1013 1.66787 2.77277 6.25717 4.61035 0.313863 1.34168 4.48699 3.78951 4.06577 1.44758 1.41091 9.04017 1.61748 1.241 6.46482 4.68929 3.53851 4.77775 4.42763 0.695115 0.613961 1.4996 3.2235 5.55844 1.83322 4.15054 9.79642 4.88444 1.65565 2.26822 5.72277 1.80799 3.41421 0.320089 3.93333 8.45563 2.94092 3.40048 7.04685 3.43379 1.07511 8.2104 0.558348 3.42507 6.779 5.99799 0.931795 1.81151 3.24264 1.5752 3.24159 2.76929 4.08215