-30088.6650374857
-30088.4220911097
-30088.4125176056
-30087.2599506444
-30087.6633827413
-30088.6408544691
-30088.5267173304
-30088.629241881
-30087.7859280573
-30088.5334639814
-30088.028852392
-30088.239156825
-30088.0051945549
-30087.366292542
-30088.4180737591
-30088.6225421696
-30088.1611834609
-30088.2746056208
-30088.1402766932
-30088.2911660524
-30088.1895470962
-30088.0894390514
-30088.3283113411
-30087.2227248101
-30087.6853696642
-30088.0321208857
-30087.4163077202
-30087.8868226467
-30087.7025622159
-30087.1383848017
-30087.7902533045
-30088.4051089019
-30087.5367380324
-30087.5731422195
-30088.224256287
-30087.5615977958
-30086.9229272156
-30087.7048600801
-30088.1443583987
-30087.4094870543
-30087.5088463783
-30086.8513568228
-30087.5804185398
-30087.1619129767
-30087.4886326842
-30087.9075201589
-30086.9803218452
-30087.0762993401
-30087.2666593356
-30087.7075084266
-30087.4505823454
-30086.8744437654
-30087.022225314
-30087.6078405257
-30085.8772277396
-30086.1954194039
-30086.502989518
-30086.8140550687
-30086.6952070977
-30086.8334058902
-30086.5885670995
-30085.9012415015
-30086.1945289118
-30086.2681334905
-30085.3175231943
-30086.1745409361
-30086.7217417208
-30086.136047324
-30085.6901128361
-30087.0296625896
-30086.7569562267
-30085.8676130102
-30085.4859813024
-30086.5165215963
-30085.2484359751
-30085.7122680614
-30085.6894645252
-30086.0701758085
-30086.5449121709
-30082.4954238568
-30086.4359933566
-30085.1053300202
-30084.807546067
-30086.3136325337
-30088.0965927845
-30086.4083682378
-30086.9544800235
-30086.7622678861
-30086.8014197412
-30086.5767138268
-30086.9396634326
-30086.9782067054
-30087.3930768295
-30086.8578615647
-30086.2083804515
-30087.5420551341
-30087.0617679244
-30086.4346136041
-30086.1611133495
-30087.194759141
-30088.529250709
-30088.8920948707
-30088.4637666833
-30088.4829127392
-30088.0737346895
-30088.1760567875
-30087.8480627714
-30087.8037234768
-30087.814811974
-30087.4159175092
-30087.9833762064
-30086.7059819838
-30087.5816255001
-30087.8145493843
-30086.9021297016
-30086.3520545798
-30086.9177327011
-30086.4946768527
-30086.2817153655
-30085.3420892109
-30085.7507514691
-30086.3284243623
-30086.9812398207
-30086.3995294406
-30086.7931209537