-0.291402511008793 0.205566790563624 -0.0576477026188357 0.0238153449404359 0.482204749301432 -0.0282165570566696 -0.0465094323718815 0.467609889751368 -0.551863097018863 0.0104456154133794 -0.579512469011365 -1.00102867355711 -0.179255162854377 0.368413952855921 -0.405976722182553 0.964769452859362 -0.182568027565072 -0.62336749585176 -0.30408884166887 0.121348807391229 -2.46404398004854 -0.513288342011106 -0.807597226530935 -0.47809895678571 -1.07943570947871 1.4808921775302 -1.12957682318847 0.99785413412498 -1.44969905588248 1.54662291008888 0.671183562174728 -0.319891347749485 2.39250230023907 -0.749563601527097 -0.227698063804018 1.27828009719206 0.307716666354001 -0.235913762598394 0.582720432767309 0.347697299843564 -0.14496206372766 0.120766452826253 -1.76672336797896 0.101396800063746 -0.331335579114462 0.0577163510377535 -0.366120787131848 0.651976917268378 1.2301529275474 -0.420897083224565 -0.199052132741383 -0.252469344405638 -0.321973683123324 0.800144887870517 0.00262380941968485 -0.417354362010078 0.138970368018073 0.737082959013589 -0.050990091534728 0.66381606987477 0.78251509971781 -1.34949473284848 -0.945130605735032 -0.982897520547135 1.38105835027021 -0.979029297840701 -0.412263580382468 -0.691727180033783 0.769931356020834 0.946521057605846 0.67874028756953 -0.158888693911555 0.0121492274873462 0.838157600017771 0.35550882142993 -0.514345321974293 1.44101078857136 0.0520159611657463
0.238818850558513 0.410189472534492 0.75290680523941 0.147252401239718 0.130199825448324 0.234586302722467 0.540208806634201 -0.23833599763444 0.441821224154775 -0.204090978111984 -0.467014422567047 -0.458668883130149 -0.261010030471595 0.100919603563704 -0.0282700359747779 0.57772658167877 0.051132787686411 -0.296346482721789 -1.11543370623031 0.611257863332628 -1.91929717868063 0.694114705195095 -0.431868746072797 1.45145100467089 -2.60421402418148 -0.244977410777005 0.0503640282386052 -0.651694096066844 -1.62617948563963 0.791048329588454 -0.29405126011625 0.137676332465964 2.35058357018845 -0.106032753777253 1.17792562181106 -1.00061858281488 0.11283357523341 -0.179077242607594 0.0511494998483198 0.211365653635802 0.0210974331936952 -1.1861372068425 1.81514852832596 -0.799593129417342 -0.534217368034797 0.889841117716623 -0.13839469831786 0.394919698753494 -0.248944363793793 -0.316888300809561 -0.0443918729029423 -0.330770965152127 0.61554286164605 0.857220777441887 -0.0688337953598674 0.100121790665195 0.0854801370617857 -0.119379343387821 0.206177684358938 -0.456260274933813 0.527963677048516 0.130238391975806 -0.240202103344197 -1.01129379762187 1.25021754913513 -0.568684273645365 0.831085784428507 0.411945535085834 -0.860229737916025 -0.371506474139603 0.938915481276233 0.363641216524945 1.06098753961284 -1.39648264727132 -0.616137300389637 -0.260091375786976 -0.454746410175057 0.384288964008202
0.294851129896224 -0.204970552048754 0.192727479344535 -0.111799735186713 -0.23892580839473 0.533425211560319 0.390027663297507 0.198511944246453 -0.41656143420505 -0.147007889455483 0.473448862012126 0.261052710762008 0.683962195390578 -0.52327655840855 0.496785982011787 -0.14826490114121 -0.46335240222755 0.248782641488552 0.404682943740627 1.3102432638385 1.33621807720774 0.00219083587115478 0.532947243729727 -0.492307636840589 -1.2796409813918 -0.383346655186727 -1.71313749203452 0.809934872316704 0.66355356037771 -1.47942073595168 -0.127840839517348 0.429349323387497 -0.58042521016177 -0.421546800657543 0.384330101637516 0.621563096585973 -0.886188867564088 0.545979644696408 0.267907782466823 -0.30506277504288 0.00373246852969769 1.02064103833257 -0.905073096300688 0.521167483575657 0.0259383037232225 1.63177857409945 0.192410719598817 1.50616070922616 -1.10673695428315 -0.0105556585717944 -0.788799643926076 0.609296112634716 -0.136031855734136 -0.66689085055581 -0.348478400580164 -1.49332962553293 -0.484174470415024 0.0889467536620415 -0.349954470141988 -0.252205549357662 0.375740050416382 0.310734368574367 0.0542227378682603 0.458074444386561 -0.234609442638956 0.140245377416625 0.212768961015776 -0.1265596594744 0.323002895186724 -0.672707197120446 -0.713059869045118 0.245094395910367 0.278192189795328 0.0348548848770364 -0.777615093846144 0.219901711718461 -0.723291568786064 0.377768906872113
0.263035287384761 -0.297785014196863 -0.406655235956051 -0.279502680399163 -0.219406774615777 -0.459226555117537 0.138710429622845 0.296417188022172 0.227043461277558 -1.04874883778174 1.00390085141377 0.145611781160639 -0.152165262620545 -1.02838005484727 0.809430165027057 -0.234652122929369 -1.09708220979333 0.619937131787337 1.74337750623307 -1.21578329651783 -0.880051133270436 -1.19146838649142 -1.66890219923315 0.153265179984329 -1.21576015660134 -0.545270277700925 2.23626981163029 0.000575412590029857 1.03703181251237 0.538691085222697 -0.890336826149857 0.249818795526899 -0.641266735476473 -0.113519288092039 0.316533231646545 -0.570299182706124 -0.716567623274687 -0.0496001538842805 -1.13991573787582 0.502247773633773 0.361759169983829 -0.237535356523916 -0.374317459772666 -0.169443066932434 -0.424657833874416 1.39418382512321 0.394407021048168 -0.110386914729959 1.24558185253181 -0.12545922789025 -0.294231237244498 -0.292774708056599 -0.192830066307637 0.594595837909534 0.36992241830083 0.365289807019705 -0.236298142322297 0.552997467147197 -0.27363131225532 1.49696027843008 0.730819497840347 0.302355661923834 -0.994950074605593 0.659109925081246 -0.18093923455442 0.719499193583678 -0.0885441191151305 1.00119785205766 -0.664354458598417 0.0737479422916103 0.00184579400528344 -1.60634806298807 -0.424869949775566 0.156178752580494 1.09476333305093 -0.651081659610432 1.57777643676839 0.0301091451152978
0.0838726841963403 0.338011959241944 0.265171615897074 0.12450689177163 0.326409862224475 -0.176505369444918 0.282193595576666 0.218165703761409 0.985066244942533 -0.464738740335432 0.227618616757405 -0.556772358857125 -0.0575921668192618 0.26075034918655 0.916838715394681 0.858109864455437 -0.482384212209315 -0.36117501564757 -0.409591434248339 1.49474398865078 -1.41116132474111 -0.905278527337075 1.84434236118902 1.75123376499132 -0.0369942987115487 -0.705597760197738 -0.144549144773421 -1.12618014055805 -3.43312722756184 2.19899757681069 -0.163508963903886 0.482704057277231 1.40518994073599 -0.34963051131114 0.110871824535498 -0.289816655398738 -0.534562152790485 -0.933534165141593 -0.295954389692389 0.186385085345046 -0.0760951011541584 -1.31834609126245 0.124053606518626 0.370230179190135 -0.409516615185024 0.808897432727441 0.550918988426106 0.168043101984841 1.16855318430241 -0.425688588598915 -1.02479825288493 -0.682890560146948 -0.680485037272811 0.0410193586297423 1.03863592294543 0.333311213762268 -0.0130961642921183 -0.358406710304919 0.175718869394471 -1.02949077083874 0.427547495223543 -0.151093113156548 0.386995820017064 -0.0897941888259103 1.53872602792169 -0.901034666652968 -0.70387409352948 0.613838478241533 0.149299512518457 0.0766831121431657 1.2467092806852 0.637654594512519 0.184408936476874 -1.2097877441555 -0.732904404316018 0.51919493425005 -2.03527855388712 -0.240389022447393
-0.250085675897074 0.750826012526671 -0.355344013802491 -0.745713119423304 -0.57673259371047 -0.070674961381853 -0.752093308619726 -0.312018376829331 0.763639098507072 -0.399870355331253 0.446219093838627 -0.0272480229965077 1.98353487240539 0.142239266887439 0.604188104624831 0.427846257256436 0.393313788549148 0.278055407177859 0.0806477511683044 -0.895319621500517 -1.80265837273568 -1.74404727826034 -0.289005215660519 -1.5862978395706 0.266634572839554 -0.829005248825951 1.26831784892312 0.640242665616737 -1.12806372976027 -0.028721264346316 0.460234684145913 0.555244353038292 0.0896286098679214 1.29656345943049 -0.106603795494169 0.475751026592612 -0.197710788915563 0.128205164646961 -0.671816567445797 -0.106859105906099 -0.176420523084458 -0.233698758370017 -1.02227368799597 0.344915367661203 -0.984215467346283 0.355581069391413 -0.731745865830462 -0.364177291256944 -0.574769557461642 0.330420009752042 0.0442784873121456 -0.24126114018885 -0.0106392193813385 0.260378567861625 -0.0801885523810866 -0.409161546022008 0.935563021597324 -0.363834563382721 0.55094572788516 0.724284271203448 -0.650469737374386 0.388113735093673 -0.0609430838370719 0.332622415581441 -0.0328931341791241 0.263941600780585 -0.0286873258021319 0.331499101190985 0.0128570518217306 -0.0585411605054996 0.832590393220668 0.117462586971971 0.989845923248456 0.345552229585021 0.457278945479701 0.382651686361504 -0.0424758878176419 -0.109828985632388
-0.474552378918475 0.0479893585864534 0.412155079885152 0.165028742196856 0.271265127239214 0.367310178839389 0.873795642512873 0.56216370228891 -0.604664786904507 -0.30783108038553 -0.0240426303423959 0.071285598066983 1.16453815168136 0.0539409451074593 0.401805366570111 -0.926645412002778 -0.0696295513769105 -0.119166970376487 -0.652916912098203 -1.43485582789543 0.110385114958677 0.514195940957846 -0.599108892955465 -1.41353188063033 -1.31765857863254 -0.341794564257368 0.909520074029534 0.413809326803942 0.829127376162977 0.196969026036994 0.493593959087202 0.461534376122053 0.224520696159876 -0.321461005417998 -0.0587576472797646 1.53206070353208 -0.245522227255233 0.0932374083994938 -0.386596013682169 0.699359238712266 -0.0132486306307634 -1.20924806988093 -1.76668094479873 -0.299672460051827 0.578938084862068 1.49896368097767 -0.0747229041063526 0.524458751030962 -0.162755116846707 0.0132823120647643 -0.436769780385196 1.82498350705421 0.792976655962549 -0.658311083742004 -0.274507286649525 -0.364180633689325 0.575735006199605 -0.578644722143023 -1.14374462272422 -0.466571935941738 0.0474309152685156 0.110175827269542 -0.851116467472053 0.298144968453361 -1.62752982832186 0.428320625544463 0.509713224913534 0.112703734590888 -0.608148886997221 0.355619378808711 0.806708139517385 -0.1018156325522 -1.47178996282411 0.809802974792716 0.810064970069409 -0.358211049455495 1.08638076974765 -0.287587767220467
-0.549094791676212 0.395567102194823 0.683706370758282 -0.462441203738244 -0.145337701705334 -0.0782358005395867 0.239652915992855 0.350272515438622 -0.279390066138916 0.444724512343612 -0.0920318187504098 -0.383501692627205 0.00734075284090368 0.605215516916948 -0.155293522219693 0.920322301267029 -1.0776593352229 0.236850414995837 -1.86925530950159 -2.04408612032325 2.56004892246013 1.90078653104024 -0.333962216746162 0.152774613754759 1.26299823923245 1.02880402953938 -0.896135946332218 -1.35808786939181 -1.75351870318953 -1.34315645261192 1.0364785113981 0.299621295125368 -1.84683504441527 -0.171278833640572 -0.11950892692016 0.0327797485883273 0.29897800544697 0.185146071372145 1.44370350352015 -0.381693950929037 1.00538334873018 -0.347760034728268 0.476388402736796 0.475523741190652 -0.298825024887958 -0.946132821229195 0.56552978880753 -0.502541907683368 -1.87318806686401 -0.16474977764807 -0.205427693954506 -0.296313315508154 -0.35841956581408 -0.032011503360888 0.379632441480038 0.190055076100223 -0.244327179123661 -0.250819211249779 0.352084113789538 -0.388583989618768 0.569680832715498 -0.211244811849692 -0.425413737813061 1.0103345195283 -0.75649940582944 0.536844776997047 -0.642356111322745 -0.833406460942184 0.533967971157081 0.498462597516516 1.6354719618813 0.969952022822379 0.0273328693569678 0.751548492141498 0.517656901134072 -0.272451947844923 0.0502020488231813 -0.240846164353145
0.0948343197474274 0.179734673346069 -0.0898522957273164 -0.17979637979004 0.0125063535318285 0.412747718857457 -0.424279881905093 -0.663324989424834 0.545183117348815 -0.2003996472116 0.222296435964903 0.278521290829841 -0.461301434296063 0.662946523235145 -0.665996878448779 1.20426990251357 -0.752230605457561 0.581535926153249 -1.94017709665933 -0.0626911759727346 -1.45913859914895 1.91718219031353 3.51217421072946 1.88673211709529 -3.10188395100315 2.94996062906501 -0.715819689751722 3.18678199061014 -0.939376736944917 -3.31753640272366 0.768364526564337 -0.0420902225428229 1.7349044401453 0.803022465041032 -0.89523580358079 -2.04943684034609 1.04245015251339 0.001515150309672 0.794504147561015 -0.52243940765201 0.239772472228049 3.38351447527858 -2.53973284711322 0.733083610113717 0.624784944291811 3.21403644136123 -0.157037757702608 0.29312052125302 -1.89050803724595 0.421571997455498 0.561503957558786 2.42690364275292 -0.262000933117696 -0.247933920773767 0.417060999291033 0.415807844258054 -0.634159952902293 -1.39210200396974 -2.36282741422322 -0.813713106459013 0.133120082909253 -2.08402073109002 -1.2914325686143 -0.261466658156981 1.01526177907939 0.215901848598222 -1.34223394127455 -1.2822370229117 1.42998076171154 -1.27603501107225 -0.066015867751857 -1.12238699402511 -0.219972417018845 -0.147059054381942 -0.319223118383315 0.544302514971312 -0.650483107103913 -0.0163043851582455
0.25924651172494 -0.218408415774362 -0.327232614810755 -0.0137831627016624 -0.291506126412628 0.0194627266488294 0.900193145023313 0.143016768081473 0.334039092690943 -0.0474813088644253 -0.129416153609892 -0.286358266324345 1.77598241989682 0.163251339500307 0.66867956610042 -0.0574335298362196 0.452028498428316 -0.272891606258217 1.66649101993499 1.03077092244096 1.0933533408062 -2.51439232456597 0.95517435793205 0.647053771480223 1.74269256470499 -1.72335402227466 0.205530280917608 -0.665488571616568 -0.634796300605744 4.31390289732857 -0.541588974097686 0.483722470712936 -1.92349013154846 0.978257453070697 -0.413744792147956 -1.31837848714553 -0.249673271163201 0.0468357051943784 -1.09838884374441 0.0277825550674067 0.128054498079598 -2.83348380253548 1.03429770282409 -0.234782992012625 -0.509934853891464 0.217266846560898 -0.819979652954455 0.0514132948962959 -0.869927162696255 -0.449104898535005 -0.843389278025781 -1.40611090941226 0.351756812526308 0.019817795811846 -0.650752044355553 -1.77204426322055 0.390817248670153 1.17430705309252 1.68776405938382 0.937243750864985 -1.72234769301756 2.37041499284001 0.984480033724809 -0.758903386042479 1.05265588412583 -0.499692612633006 -0.423682100729124 -0.998269881291235 0.205143330091873 -0.00266906081193027 -1.11761528613487 -0.138266400336437 0.435836727530318 1.05902604602511 0.133997085744191 -0.288120499520084 -1.12144931318694 0.046572938587135
-0.0345954607021749 -0.441480296051835 -0.0199430084710705 -0.0979679786604229 -0.0930636019156421 -0.103167775005715 0.598212606856786 0.43355924552742 -0.152852261030089 -0.031302907695954 -0.0333831861883273 0.0734540653521983 0.715700647736895 0.717572666980866 0.554817035913793 -1.0458041548534 -0.623612778966544 -0.228107640325875 0.13172166062276 1.28712005951128 0.843686754507758 1.62915476467976 2.06868359444102 -1.41509459632389 1.00962283854117 1.43249401375244 3.75455043778291 -1.10581598560688 -1.94961689703598 -3.15985998332595 -1.05281040734595 0.552694848461555 -2.17461993189956 -0.144648132193958 0.250098531406234 -0.271740266857791 -0.81949988535258 -0.0418092011125715 -3.78112123255683 0.683453631448184 0.330877922988344 1.98709970509563 -0.928654728084584 0.206704246014157 0.698574795543285 0.173259610492042 0.494374288493252 -0.118902661108145 -1.46964155013319 -0.183579756136013 0.469506591572927 2.17258001970596 -0.757492622467191 -0.265689692916248 -1.15594501513803 -0.819575475746444 1.324583327197 -0.636631810203699 0.492239759752221 -0.464068968308163 0.202144911135247 -1.64852287478117 -0.361070371803002 1.05870697228774 -1.02979827461787 0.238436270605893 -0.623751875575662 -0.0584732834171314 -0.443407336875013 0.508502235950603 1.97420845761954 1.22769264020424 -0.793093898206093 0.0280355514876879 0.389782123072539 1.05710389029541 -2.58825468088911 1.39746172284899
-0.369275271969684 0.728728420720278 0.355780586893586 0.325323571700401 0.24137478288983 -0.801638183814615 -0.238888013197797 -0.412251239093674 -0.148924902981516 -0.28831307504731 0.00938349324652799 0.520460173461639 0.499975176724356 1.02749996669013 -1.01767912902196 1.25538880625009 0.162836877884968 -1.06906285624718 -0.214548163483608 -1.11737848765613 1.31204072112934 1.1704432012592 -2.37615574901078 -2.50904391853478 0.0281489370784847 -0.00119273413992337 2.2614838359674 3.27795223313661 0.433705284111485 -2.2088469537092 -0.324128780679012 0.555343340458829 0.613681641029774 -0.668546125915333 0.424119702260952 2.42278319495676 -0.243177382384334 -0.582842302994152 0.0477674724983409 -1.14940207519563 0.153024267742659 1.72080066104517 -2.10397068153603 0.278398135052082 0.46446003289683 -1.32463963432713 -0.27587305594275 -0.598903204808895 0.0389154260005134 0.570561435093001 -0.0933785618900775 -0.798341517045463 -0.736289002767829 0.366298193158265 1.6652993142358 2.73603210112294 -1.38182505283655 0.0250214488098863 0.402006683843567 0.22472432742498 0.498825379985029 -0.911624777989313 -0.403000671811867 0.204895732985439 -1.27490758291886 0.880653028209336 0.34054218055494 1.16085401986611 -0.620674523792791 -1.36238340922274 -0.897664980591783 0.866911517357354 0.141623487998644 -1.39556116437468 -0.971494683921655 -0.386740766715317 1.09787230938634 -0.23337248554752
-0.0549519023478513 0.226981240613221 0.422683998997893 -0.174430490266392 0.10591165488096 0.720560801530163 0.966759485677428 0.4469516007506 -0.0722294495495566 -0.218821077618418 0.31013915850023 0.803236123603282 -0.245865212239638 -0.569314193594236 0.136130328934307 0.447521871136965 0.73133114710494 -0.664987978089853 -1.27528476355763 0.620463436332373 1.06742737837177 0.155640106746664 -0.7903461616781 1.44299233675338 -1.23607083263441 -1.38068682605546 -1.78192552178178 0.192527704732179 0.313935647465548 2.01715639973356 0.577199505803184 0.565009140686524 -0.151532257349476 -0.432719780779231 0.692687486568082 -2.69943092388153 0.470206188381449 0.206524011775725 1.24431635621004 -0.802152661291224 -0.627835042395262 0.151498061695108 -1.04389459752268 -0.403914698513188 -1.24221576601319 1.12013162349797 -0.43298537559849 -0.499636819723248 0.261828669294944 0.352523257982465 0.373214199976501 -1.08880711854663 -0.208755985276194 0.22781427760683 0.427463163083449 -0.0627737083415458 0.637981381555382 0.1992647628629 -1.10025520656435 0.350669750671685 -0.817541219976866 0.856838711709633 0.600333508758107 0.171597393157572 -1.12704197389218 -1.07040137186099 0.857459889912275 0.986331227043939 -0.836886961492334 0.549320791527256 0.791557664861398 -0.44710612397071 1.39747740657017 -1.63145127283622 -1.19630488614783 -0.403859162713614 1.12817454424923 0.466643155462488
0.54251122832487 -0.542417383107997 -0.138576989437758 -0.0586761433516862 -0.154287192962599 0.413390751425672 0.57806750978171 0.758856334878951 0.0326167407321705 -0.756864502289602 0.384467655585534 0.096185690870393 -1.01050575491032 -0.540802731157422 0.324665112521194 -0.403871246892225 -0.00530315463894362 0.279022912797288 1.13896880107105 2.10812738186803 0.406268542240499 -1.0149200796459 -0.113781540478915 2.16823742871149 -1.02212250720824 -1.21174769508213 -1.0631598635508 0.762133718384362 1.84848209224893 0.1666040562894 0.278132540232823 0.134590753157229 1.41040104992935 -1.29921246564813 0.219242738318887 -1.51577174498483 0.593783626840765 0.165679488070567 0.633031753418356 0.558384182595684 0.124466782583049 -0.803337167905285 -1.79349882245873 -0.14517649362046 0.893366869659018 1.17994239408818 -0.159792693315731 0.161854716985096 2.22096481375419 -0.655922015919593 0.0385019928259075 -1.57362153620767 -0.186389970438527 -0.930385079617605 0.651855561261902 1.83537024423563 -0.0389141404495973 -0.177768037554675 -0.0592767527396709 -0.368022374046888 -0.413248569494356 -0.0271958296293155 -0.145866834462385 0.643519792011965 0.644406050813499 0.415864665608544 0.430316057676376 0.0846481285089096 -0.30660337926069 0.0876501470081002 -2.2230628328492 -0.694220377480396 1.19437424578208 -3.27334096200069 -1.20836618195252 -1.33629546737289 0.990158826341426 -0.226787636645262
0.233146742806659 -0.0879417099558633 0.613570312320442 -0.199138007542576 -0.271249443518038 0.420641001482085 0.568260298953248 0.383777314743608 -0.506050176133304 1.43690782426765 0.139036702445342 0.00120250432688545 -0.746059961060458 0.194147755996602 -0.857530852322842 -1.409465940193 1.34370358308179 -0.0920367038438908 1.90202580212332 -0.788894774693865 -0.395330560826268 0.818348031731787 0.0755304871918235 0.273441050719742 -1.46800015872356 -1.43026358291307 1.93188812146274 1.80922985190841 -1.83122100009895 -1.63970630948863 -0.57274301499756 0.214531708431882 -0.22119574727057 -1.19371938614544 0.10415019301577 -1.19685638749082 0.84591975644896 0.180617332605038 -0.056065189441162 0.839716459058589 0.705008463657814 0.644596312349076 -0.645920944012988 0.0312784822285488 1.79840114232204 -0.544389161103055 0.0850062829941248 0.0926781937510063 -1.36385407947072 -0.893096903966644 -0.101146888965664 0.727746774040772 0.24055203030355 -0.223778419060941 -0.951462201106826 -1.00966577594177 -0.28117826746316 0.938600778411981 1.30351931832713 0.30918759371216 0.881751402912021 -1.80256658440027 -0.345925039350679 -0.682157796124792 2.31948300820669 0.0969896744132989 0.877872638688075 1.5961718990467 -0.862086330549003 -0.464266943149237 -1.29098905354826 -0.036801208963956 -1.2070798597059 1.41904972227225 1.10332047416862 -0.431269422235729 -0.929675712622121 -0.470228556967388
-0.0372370107245014 0.34743684722797 -0.325664242693158 0.318635878724858 -0.0448410443930148 0.486205126642038 0.920304303554204 0.322901593774538 0.533373789523676 0.483754095265472 -0.170507245980751 -0.376475899760736 -1.01183938543065 -0.261631980004786 -0.496128551273312 -1.32564982023697 0.396532550932787 -0.00452796743655755 0.741885263015635 1.16824979428622 -0.856705528634729 3.1403777163032 -3.36078284976039 2.47016037419698 -0.666409283182652 -0.718078145601062 1.91444139576048 0.37340060485933 0.0821641870288924 -0.937172788454418 -0.913532792658934 0.0678225810092921 -0.33391645113355 -1.16547737518063 -0.23221600394343 -1.374650393174 0.213922871518035 0.443353343736539 -1.27570925247012 0.293569692743092 0.178839158577939 0.338141799884467 -0.0577533749041361 0.690990302248696 -0.00446857498423544 -1.2832096707348 0.324987528690942 0.244298897003507 -0.774706663453643 -0.245138875972063 -0.699914082487639 0.75570622091423 -0.41406283744459 -0.0407655908789115 -0.66944626866676 -0.91377499045152 0.856657706140652 0.766982559329569 -0.251835310693836 0.943518267776106 0.155495096603332 -0.509263796313279 -0.938603606623997 0.746167176006858 -1.21982224038592 0.906031603063705 1.38929718898107 0.942056853494725 0.550238160660959 -0.653075291971062 0.326283364014334 -0.338132543917871 -0.208342037881221 -0.0662040724059687 -0.324337811257964 -1.53281994990311 3.11654077410737 -0.915894092581558
-0.492931900365429 0.322325924074325 0.234998450346157 -0.141779553879854 -0.313820462103468 0.459719178228572 -0.414475499288646 0.467969329787499 0.255454393632737 0.620888439465223 -0.364087045582636 -0.318361285049187 -0.181327470931071 -0.00249088345496392 0.520527022109274 0.115114656778873 -0.500166209590483 -0.550449248121376 2.25979590761461 -0.16084504529562 -1.09868580600602 2.50901872173682 -1.27816285494851 -0.686033989246906 -2.0372207642111 1.78699110661143 -0.787854249782403 0.507252937570373 0.0903492897114664 3.67688130808712 0.75159425775411 -0.240689584251568 1.21117356804301 0.704237133108176 0.123106155493488 -0.846747137018538 0.0877578761748663 -1.65505424476532 0.500888432095127 -0.201819666753484 0.129375015980578 -0.496264819670415 2.21153452645432 -0.784117924599958 -1.04293300543747 -1.5758388544277 -0.505873541437437 1.07680521519426 -1.98565783118818 -0.526062604353842 -0.0190798895860258 -2.28735323416152 0.515208183749155 -0.16707945301816 0.182535631681987 1.27040532650062 -0.370490374695546 0.211406277044749 1.86236347104058 0.328912572747866 1.0483924830678 -0.766153636098891 -0.866546678007376 -2.18658635404665 1.22617209058072 -0.942748736997751 1.20635609454016 -0.153319430232987 -0.446091824297937 -0.0695429052451678 -0.21432344918348 -0.534738273265986 -0.520516223481579 -0.0114128639226252 0.477582165317453 -0.320834685011692 -0.317685856597887 0.431162721509695
0.0907568093518584 -0.0415639179977867 0.0183322131732434 1.21509141301481 0.448087770650216 0.0996286533337932 -0.19034689615817 -0.0227915321908832 -0.460852519916173 0.349398855036065 0.445439535763126 0.364420260380079 -0.859744828110486 -0.861160733889438 -0.722132001859775 -0.100684347746064 0.863642875598172 -0.495428183134241 -1.26849371228844 0.782714874330166 0.218144877836569 0.941122515088931 -3.27465968013039 2.63709378863108 2.37522680991883 -3.25192728328164 0.144583854648154 -2.07804651887289 1.34006804509117 2.24734663254345 -0.00244511784235207 0.753345435211971 -0.364425659693927 0.458142578585112 -1.52119882673208 -0.965279559462856 -0.145998217766007 0.707555654242902 -0.16054731170346 0.70690567969974 -0.125209316792167 -1.50920540801576 1.26367495323467 -0.217660482251397 0.549957653451074 -1.85741332868319 0.59741582239901 0.371470992934319 -0.501369485247918 -0.799430121561185 -0.0431667428799342 1.47299555247319 -0.0956676138512195 0.836906501866258 -0.00968328372015391 -1.40577923727592 0.035673009480019 1.09243160079938 1.67538266140103 0.987019768114583 -0.662539260704936 0.0498935166033261 -0.553774711231048 -0.28230749538783 0.0524787594955291 0.0360303926346845 0.0223585586423532 1.39121960182095 0.206332721799415 -0.0732645751471706 -0.430968860431553 -0.039465127572222 0.277602636145222 -0.0553661068530069 -1.2205868860708 -2.23337089431457 2.99613941774128 -2.21807669506616
-0.756788140565188 0.383422759800958 -0.60760458473936 0.123828635108315 0.397875180309523 0.354286519618937 0.704231733794329 -0.945976498237802 -0.199646057264604 0.204218761873041 0.725681407939025 0.0381060431437601 -0.188624515040828 -0.472759035390567 0.238984686626685 1.57114016582948 0.110367374356035 0.0137494812676616 -1.77511390169792 -2.55545102105374 -4.30446901048613 -2.52321300362144 2.81260234189568 1.63574527000605 0.304789466918125 -2.10026135292282 0.0995551198213944 -1.60814629160946 -0.755378405430633 -2.97803680396165 0.231249783874917 0.635454759784952 3.84854837810434 0.595576456148307 -0.503657508768327 -1.85827619045805 -0.197024304726385 0.671684669921809 -1.38487617938073 -0.0313602432668104 -0.315930308266911 3.38401378325438 -1.13048750745741 -0.109622783265451 -0.00323753142701338 0.807734266258587 0.345914754943351 -0.466981512463596 1.89516584532503 0.16612865956064 0.170166317877811 0.77015992697371 -0.240265352449267 0.141881369512407 0.0485591147524526 0.587683430633862 -0.204961810302525 0.593749688296581 -0.11476627248062 0.913898146229279 -0.496271504535178 1.27982892893573 0.319943284006494 0.0942568502759318 0.00475885238108249 -0.10664956110678 -0.930575598263366 -0.127200892271332 0.367444390355026 1.87363595280317 1.32239814774988 0.516098042093253 -0.827354344339542 1.23650380618294 -0.367069780818086 0.646663221111923 -2.43903538674781 0.439388190491034
0.00425877307473393 -0.278566028001719 -0.313051445545479 -0.154746905970183 0.041032214138903 -0.0219731504777174 1.66181675680418 0.28719181753832 0.348921658536022 -0.30741327633781 -0.0191541944289742 0.523116121654225 -1.04841742275557 -1.01453955657475 1.71809097682429 0.328889175721194 -0.349663935634957 -0.0199437798016202 2.66814498545767 1.38554697984873 0.227435554306957 -0.968755174919524 -1.99970787426002 1.0227678537681 0.311850740989876 -0.298854078338661 -1.09685389595063 -1.54556824411734 -0.364226399301937 -3.3267082942894 -0.791318038170644 -0.401405560235216 0.345602108960564 0.778001530451512 0.155155968271674 -1.95144649309972 0.0980970479723956 -0.0922297935914835 -1.92692538070637 -0.288133355029245 -0.16399824458254 1.70943973337956 -0.825556372828336 -0.202815197382883 0.138510397900306 1.21200146283296 -0.0237436111993196 0.7035475635968 -0.412362567803005 0.174329703074573 -0.633401734971999 -3.6560782660532 -0.318961894437171 -0.440991529593548 0.0252119674556469 0.126070121685563 -0.388536424234874 0.364121241237003 0.757314445110224 0.667000893714225 0.587682145082946 1.78822060750755 -0.241837324109429 0.137632880845001 -0.0896103550449133 0.453037913007609 0.242625366820976 0.0156914344814666 0.823870244246828 1.62557939047201 1.3037280917959 0.931917713419736 0.0989591384167076 -1.03466074240278 -0.112009279986031 -0.146522979649944 0.617855824854231 0.860420256561785
-0.0257539557218591 0.11644777307883 -0.098622324076699 0.442120500408034 0.0509270995398409 -0.178926318930048 -0.846463030266088 -0.217871826821997 -0.00788325532748232 -0.491547362028829 0.115357368791826 -0.61253852915521 -1.023771097703 -1.04330478676239 1.18206226754876 0.223771734196178 0.208581407461792 -1.118443438035 3.62844226379023 1.42236721496625 -0.300009531502019 0.326432487920597 0.504761282784859 0.747659700620407 0.665921802275281 -0.651433129230883 1.13954292811016 2.23934587786224 2.12818891813356 2.05054781344775 0.257848346548629 -0.178110508318714 -0.356909557708072 -0.985139264234566 -0.344534844590049 -1.698794600464 -1.44110694777988 0.189744744109086 -1.19956092950803 -1.00422763845664 -1.07882558701395 0.0189271661371975 0.0807968750745677 -0.429268333679785 -0.702134486029864 -0.936123521796728 -0.0224323492649352 0.235592631979561 -0.242132743709941 -0.144807540507549 -0.0790444120657904 -2.71268289694467 -0.790335620160588 -0.293634741619445 0.583280161636163 -1.39277743242104 1.02544565632626 0.327742207193882 -0.107261483342826 0.259856119969337 1.23805546613863 -0.857197894635581 -1.35126982155338 -0.522668492825252 0.371045218470919 -0.236854271648586 0.498534845477999 1.79904263222916 0.410054746798488 -0.0511718684342593 -0.802688478913039 0.089292052638096 -0.910581939086202 1.0843935651416 0.543758984044001 0.681078447575666 0.0699925909556067 0.531886150003608