5.7535938606 1.8904588396 2.236671053 2.8851966561 4.6566432061 4.905506828 2.1903312802 1.5443546574 2.4267182596 7.5915798279 1.5090661531 0.0080841273 8.1326043945 4.6692070915 2.5408398874 1.0968038724 4.6552793184 2.1961263686 4.0299955471 1.5316975308 4.6608881626 9.28249866 1.5517218418 2.7546218599 6.2900765923 4.6634629812 0.3162141517 1.3681474624 4.6488245689 3.714711043 3.7757454886 1.5476807353 1.236712636 9.0671876084 1.5489761116 1.2297370068 6.5734796708 4.6446907517 3.7469706091 4.7677887077 4.6483792978 0.5936524966 0.3752510276 1.5571822381 3.1023214285 5.5773364745 1.5372263597 4.4360454959 9.9755551122 4.6544353241 1.9336801597 1.8125453987 5.8729276958 1.4861239277 3.332450412 0.3209201196 3.9465637587 8.4962400129 2.7429398369 3.4409875661 7.008165205 3.4478691256 1.0449220262 8.5174872711 0.3431236918 3.4429274613 7.008513127 5.8839044359 1.034067455 1.8179674896 3.4447735494 1.4787544579 3.3529588403 2.7458373237 3.9227767735