0.0298715753060093 0.101316067466218 -0.00287372051776752 -0.0712966538048612 -0.00702399309518572 -0.037962061441161 -0.0076099472027273 -0.0044739742980829 0.00136602640340868 0.0894002960252286 -0.020232514537368 0.0587656176954442 0.0187646725014071 -0.0126117687069457 0.00378183368487451 0.00221397578764392 -0.00413613151734151 -0.0402601122587154 0.0765267891517724 -0.0092186856190887 -0.0135980433697494 -0.102197955394637 -0.0116288364765239 0.00188847429569674 0.0204487442014498 0.0163817753233925 0.0421236468666406 0.0218898467783565 -0.00742225676898208 0.0173567371381347 -0.0239287305312327 -0.00662161565845797 0.0493294168613576 -0.00334037550029844 -0.0106055379473376 -0.00226771181593536 -0.00681059164311925 0.00385973807038794 -0.0155741922379216 -0.0278548030288895 -0.0176143615417138 0.0237425827585867 0.0831592034379253 0.00341082369049869 -0.0362245108230101 -0.0889174431011552 -0.00199080414861536 -0.0210038450870058 -0.0132463166391145 -0.0040808528279508 -0.00608194138389466 0.0151386475875594 -0.041252300455733 0.00875794417077167 -0.0104201615052413 -0.0262902875640406 0.0108222818317858 0.00507766900826615 0.00200134566612708 -0.0466325881496404 -0.00161439484039208 0.0456296013249279 0.0247972487301249 0.0235988581661709 -0.0306773586201977 -0.0487298359141058 -0.0413993674805306 -0.00163624920596515 0.0204063210212197 0.0181602064606742 0.0401521259817661 0.00390756056446549 -0.00561374374026447 0.00476682279676208 0.00416287097639562