-8.89157516975279 0.165842862716737 -0.66337145086695 0.165842862716737 -5.99831655271862 -0.361657327129271 -0.66337145086695 -0.361657327129271 -0.0719318440699102