10.809167 0.000000 0.000000 0.000000 6.779341 0.000000 0.000000 0.000000 5.316344
10.526202 0.000000 0.000000 0.000000 6.422010 0.000000 0.000000 0.000000 5.012162
9.875897 0.000000 0.000000 0.000000 6.284203 0.000000 0.000000 0.000000 5.012700
10.364992 0.000000 0.000000 0.000000 6.387724 0.000000 0.000000 0.000000 5.048031
10.250401 0.000000 0.000000 0.000000 6.363256 0.000000 0.000000 0.000000 5.018338
10.342368 0.000000 0.000000 0.000000 7.499911 0.000000 0.000000 0.000000 5.194380
10.120572 0.000000 0.000000 0.000000 7.035294 0.000000 0.000000 0.000000 5.171137
10.870924 0.000000 0.000000 0.000000 6.529559 0.000000 0.000000 0.000000 5.199420
10.940655 0.000000 0.000000 0.000000 6.551789 0.000000 0.000000 0.000000 5.234229
10.885004 0.000000 0.000000 0.000000 6.526467 0.000000 0.000000 0.000000 5.258842
9.184788 0.000000 0.000000 0.000000 7.287084 0.000000 0.000000 0.000000 5.181612
10.753922 0.000000 0.000000 0.000000 6.521236 0.000000 0.000000 0.000000 5.234634
10.920097 0.000000 0.000000 0.000000 6.520444 0.000000 0.000000 0.000000 5.219464
10.808928 0.000000 0.000000 0.000000 6.570377 0.000000 0.000000 0.000000 5.244836
10.266047 0.000000 0.000000 0.000000 6.207986 0.000000 0.000000 0.000000 4.928404
10.406300 0.000000 0.000000 0.000000 6.218700 0.000000 0.000000 0.000000 4.946900
10.825306 0.000000 0.000000 0.000000 6.538683 0.000000 0.000000 0.000000 5.193849
10.834164 0.000000 0.000000 0.000000 6.553517 0.000000 0.000000 0.000000 5.262947
10.406300 0.000000 0.000000 0.000000 6.218700 0.000000 0.000000 0.000000 4.946900
11.289639 0.000000 0.000000 0.000000 6.837819 0.000000 0.000000 0.000000 5.524325
10.153594 0.000000 0.000000 0.000000 6.523587 0.000000 0.000000 0.000000 4.902200
10.712828 0.000000 0.000000 0.000000 7.227866 0.000000 0.000000 0.000000 5.357735
10.911268 0.000000 0.000000 0.000000 6.536363 0.000000 0.000000 0.000000 5.213146
10.900100 0.000000 0.000000 0.000000 6.470939 0.000000 0.000000 0.000000 5.267955
10.406300 0.000000 0.000000 0.000000 6.218700 0.000000 0.000000 0.000000 4.946900
10.243330 0.000000 0.000000 0.000000 6.386199 0.000000 0.000000 0.000000 5.130412
10.878153 0.000000 0.000000 0.000000 6.534619 0.000000 0.000000 0.000000 5.207641
10.961942 0.000000 0.000000 0.000000 6.609498 0.000000 0.000000 0.000000 5.187800
10.856192 0.000000 0.000000 0.000000 6.518847 0.000000 0.000000 0.000000 5.224986
10.406300 0.000000 0.000000 0.000000 6.218700 0.000000 0.000000 0.000000 4.946900
10.456019 0.000000 0.000000 0.000000 6.416213 0.000000 0.000000 0.000000 5.102154
10.839950 0.000000 0.000000 0.000000 6.502676 0.000000 0.000000 0.000000 5.206587
11.435331 0.000000 0.000000 0.000000 6.982096 0.000000 0.000000 0.000000 5.653697
10.878943 0.000000 0.000000 0.000000 6.526948 0.000000 0.000000 0.000000 5.237603
10.470862 0.000000 0.000000 0.000000 6.205370 0.000000 0.000000 0.000000 5.273357
10.767918 0.000000 0.000000 0.000000 6.504592 0.000000 0.000000 0.000000 5.194849
10.406300 0.000000 0.000000 0.000000 6.218700 0.000000 0.000000 0.000000 4.946900
10.820234 0.000000 0.000000 0.000000 6.581441 0.000000 0.000000 0.000000 5.186110
10.406300 0.000000 0.000000 0.000000 6.218700 0.000000 0.000000 0.000000 4.946900
10.406300 0.000000 0.000000 0.000000 6.218700 0.000000 0.000000 0.000000 4.946900
10.406300 0.000000 0.000000 0.000000 6.218700 0.000000 0.000000 0.000000 4.946900
10.406300 0.000000 0.000000 0.000000 6.218700 0.000000 0.000000 0.000000 4.946900
10.406300 0.000000 0.000000 0.000000 6.218700 0.000000 0.000000 0.000000 4.946900
10.406300 0.000000 0.000000 0.000000 6.218700 0.000000 0.000000 0.000000 4.946900
10.406300 0.000000 0.000000 0.000000 6.218700 0.000000 0.000000 0.000000 4.946900
10.406300 0.000000 0.000000 0.000000 6.218700 0.000000 0.000000 0.000000 4.946900
10.406300 0.000000 0.000000 0.000000 6.218700 0.000000 0.000000 0.000000 4.946900
10.406300 0.000000 0.000000 0.000000 6.218700 0.000000 0.000000 0.000000 4.946900
10.406300 0.000000 0.000000 0.000000 6.218700 0.000000 0.000000 0.000000 4.946900
10.406300 0.000000 0.000000 0.000000 6.218700 0.000000 0.000000 0.000000 4.946900
10.406300 0.000000 0.000000 0.000000 6.218700 0.000000 0.000000 0.000000 4.946900
10.406300 0.000000 0.000000 0.000000 6.218700 0.000000 0.000000 0.000000 4.946900
10.406300 0.000000 0.000000 0.000000 6.218700 0.000000 0.000000 0.000000 4.946900
10.406300 0.000000 0.000000 0.000000 6.218700 0.000000 0.000000 0.000000 4.946900