9.60861 6.19783 5.03628 5.45163 0.338718 2.73306 0.871218 2.11352 5.15143 4.58289 3.34454 2.09367 3.25682 5.4871 0.0725686 1.96279 0.614941 2.61378 7.48173 1.98224 -0.129292 8.2011 4.78446 2.27686 0.993851 4.33547 2.29445 4.01189 1.73936 5.12573 9.2696 1.19684 2.62665 6.48543 4.95266 -0.160014 1.19069 4.41061 3.71434 3.97485 1.37446 1.38415 9.45482 1.3448 0.972716 6.02462 4.62166 3.79713 5.29896 5.19052 0.957541 -0.167049 1.10317 3.20552 5.34039 1.76076 4.30242 10.4099 4.48533 1.65887 1.88888 5.58853 1.42344 3.00826 0.796189 4.28316 8.16611 2.21146 3.22334 7.81894 4.01961 0.430614 8.64507 -0.214293 2.86741 7.11823 6.43517 0.125799 1.73672 2.75848 1.95186 3.20991 3.14907 4.90434
10.3169 6.15874 4.86045 5.30012 -0.0557544 2.42132 -0.00852974 2.91672 0.144329 5.51744 2.98975 2.82452 3.03146 4.68599 4.99024 2.11588 1.36084 2.19766 7.50044 1.47269 0.0476294 8.19629 4.58395 2.51293 1.00264 4.55641 2.11299 3.97928 1.69654 4.68447 9.15387 1.57248 2.77055 6.45224 4.83706 0.370705 1.04476 4.77476 3.64699 3.66128 1.73871 1.19205 9.02307 1.48812 1.23038 6.60779 4.61469 3.87727 4.93918 5.18511 0.846809 0.142492 1.47626 3.20498 5.56476 1.5892 4.57283 10.0315 4.74579 1.67988 1.8698 5.68831 1.24251 3.23831 0.509953 3.94475 8.63233 2.93157 3.3877 7.04275 3.53624 1.20804 8.26012 0.448935 3.3851 7.55538 5.90747 0.72141 1.68878 3.14568 1.60314 3.68945 3.03691 4.21889
9.64001 6.09587 4.94291 5.68544 0.384066 2.64582 0.770561 2.79428 0.0235064 5.00255 3.42924 2.64541 2.92438 4.73926 4.78206 2.3169 1.35368 2.65951 7.397 1.64744 4.79408 8.10257 4.49982 2.2658 1.48577 4.63549 2.26471 4.14146 1.64833 -0.0731785 8.83004 1.49348 2.6853 6.30491 4.72832 0.251077 1.13194 4.58021 3.75233 4.28921 1.51318 1.47233 8.91177 1.57428 1.15071 6.53133 4.70316 3.79273 4.76002 4.63832 0.510766 0.376005 1.14227 3.24369 5.43911 1.74379 4.24369 9.93105 4.56953 1.4419 2.25946 5.90074 1.97643 3.49824 0.347684 4.48232 8.22954 2.74864 3.44848 7.08911 3.61276 1.00095 8.11428 0.3026 3.18401 6.92955 5.99309 0.871392 2.26515 3.41167 1.79511 3.30671 2.87091 4.10155
0.371375 0.369255 -0.0117185 4.74621 6.14061 2.39631 10.1908 3.36912 0.215338 5.23044 3.0843 2.35064 2.72511 4.80891 0.0328307 2.18393 1.67823 2.28719 7.12083 1.26876 0.38858 8.37745 4.93812 2.49837 1.28534 4.70402 2.34005 4.04775 1.43588 4.47708 9.34346 1.40716 2.78243 6.42968 4.60573 0.0300064 1.14967 4.77396 3.91576 4.02613 1.72143 0.956542 9.18783 1.26426 1.33141 6.83856 4.66886 3.68496 4.87281 4.57986 0.397388 0.461544 1.35499 3.2904 5.6667 1.10013 4.07639 10.0851 4.7367 1.87334 2.04523 5.88074 1.90429 3.22546 0.305982 4.04085 8.70892 2.67438 3.32939 6.94078 3.23736 0.530713 8.82091 0.141824 3.58177 7.04359 5.71931 1.10839 1.70946 3.50499 1.39958 3.57602 2.70927 3.73755
9.9871 6.20534 4.83807 5.03908 -0.0555129 2.56286 0.302751 3.07725 4.87651 4.94647 3.23232 2.597 3.17386 4.77083 0.27755 2.18362 1.38316 2.15386 7.45844 1.51552 0.0101154 7.91374 4.63502 2.42385 1.16504 4.43876 2.24947 4.21667 1.59562 4.86396 9.17234 1.52151 2.63914 6.40377 4.77913 0.201999 1.34853 4.75811 3.68683 4.05656 1.4372 1.36221 9.30113 1.74473 1.0587 6.09763 4.78129 3.48371 5.03781 4.63387 1.07767 0.285354 1.33224 3.24666 5.62211 1.57245 4.46107 9.91504 4.66374 1.61458 2.07686 5.69272 1.70257 3.40105 0.525801 3.99225 8.67327 2.82305 3.24196 7.31261 3.57995 0.50517 8.23931 0.398591 3.40551 7.07752 6.02734 0.716377 1.9205 3.19767 1.92816 3.53558 2.93707 4.54401
0.364901 -0.412236 4.72066 4.99746 6.28157 2.18154 9.87014 3.35961 0.477915 5.72836 2.3183 2.29937 2.99412 5.60172 -0.0346395 2.19972 1.61611 2.70621 7.19411 0.968819 4.94354 8.31642 5.48948 2.46507 1.26428 4.95651 2.43314 4.1038 1.20411 4.92467 9.1328 1.15595 2.67802 6.52209 4.6941 4.95609 1.43712 5.3166 3.88539 4.21858 1.28308 1.31637 8.89828 1.63132 1.33581 6.86066 4.8314 3.50029 4.84494 5.23292 5.24618 0.394574 0.825251 2.75785 5.5929 0.618854 4.4089 10.0008 4.81548 2.19785 1.7148 5.93992 1.50989 2.99865 0.0299908 4.50897 8.79007 2.0948 3.91363 6.46366 3.26587 0.38995 8.23371 -0.332475 2.9888 7.40271 5.71517 0.576456 1.7497 3.53546 2.0042 3.42141 2.47958 4.17471
0.15606 6.48276 -0.0582108 5.08905 6.53446 2.41458 10.2223 2.84164 -0.102353 5.45199 2.7634 2.5511 3.01236 5.20483 4.88146 2.36592 1.64868 2.48873 7.26668 1.47061 0.0536818 8.0926 5.10258 2.66944 1.1393 4.50703 2.04243 4.18566 1.23171 4.71645 9.20499 1.35764 2.91163 6.29514 4.87787 -0.00994731 1.32041 4.73754 3.52198 4.06625 1.11134 1.12506 9.33433 1.44876 1.25974 6.23243 5.06532 3.70646 4.86606 4.87832 0.615144 0.430467 1.16713 3.5527 5.69507 0.847696 4.11089 9.821 4.40766 1.65043 1.73761 5.90778 1.26426 3.21262 0.191189 4.17911 8.37916 2.46248 3.68281 6.92963 3.57238 0.874605 8.49844 -0.00620163 3.3154 6.86459 6.1791 0.800331 2.16181 3.59578 1.4745 3.7992 2.61637 4.17988
10.4265 5.88213 0.10313 5.63953 0.0518828 2.49224 0.23481 2.7361 -0.141711 4.90626 3.17536 2.11671 3.22625 4.7781 4.80022 1.76434 1.50636 2.35816 7.38037 1.64207 -0.0115925 8.20962 4.63587 2.43242 0.914202 4.53862 2.37072 4.18686 1.47687 4.87479 9.31966 1.47865 2.8421 6.44737 4.9818 0.0612506 0.969276 4.77868 3.87817 3.9323 1.49224 1.207 9.3582 1.70803 1.40362 6.34266 4.8775 3.76914 4.91492 5.15116 0.605214 -0.0727356 1.23865 3.45837 5.67079 1.47041 4.38353 10.2845 4.38141 1.91238 1.61385 5.76678 1.3229 3.73788 0.170274 4.07564 8.53696 2.48986 3.62915 7.15877 3.7541 0.666233 8.61483 0.0779189 3.30504 7.252 6.29038 0.705324 1.83773 3.35639 1.67616 3.24951 2.86969 4.46182
10.5415 6.31935 0.0339327 5.15127 -0.000198659 2.73495 0.260258 2.78507 5.04922 4.59021 3.52967 2.40887 3.06429 4.89537 0.135777 2.07868 1.21347 2.28794 7.40456 1.25032 5.01131 8.38253 4.73504 2.14939 0.96347 4.64261 2.24334 4.12006 1.74123 4.96172 9.32164 1.39508 2.69419 6.26582 4.77681 0.0300577 1.10015 4.6676 3.73282 3.79538 1.53718 1.41977 9.53339 1.28919 1.17758 6.45449 4.88774 3.74833 5.02138 4.99473 0.813743 -0.168806 1.3793 3.55246 5.55896 1.75624 4.30983 10.5122 4.78191 1.51455 1.9118 5.79761 1.61258 3.26933 0.571575 4.27663 8.45527 2.74734 2.98687 7.00237 3.46316 0.555893 8.40165 0.127429 3.4928 7.24018 5.95174 0.719639 1.565 3.21615 1.62239 3.44536 3.07932 4.71479
0.050688 0.239545 0.124949 5.12138 6.04256 2.27405 9.81893 3.26416 0.235224 4.98524 3.03678 2.15826 2.91148 4.68164 5.0443 2.06626 1.3863 2.61197 7.30235 1.36831 -0.0847014 8.74606 5.08183 2.46147 1.07827 4.87789 2.33772 3.8403 1.49072 4.93334 9.57711 1.56927 2.7595 6.52789 4.54556 5.01215 0.939587 4.77622 3.88804 4.03739 1.14304 1.28444 9.46617 1.33626 1.19251 6.36609 4.94725 3.51454 5.07983 4.42063 0.413713 0.202888 1.2578 3.2052 5.238 1.39859 4.11803 10.5689 5.12895 1.75495 2.01806 6.04968 1.62538 3.04018 0.179638 4.318 9.19141 2.92873 3.19678 7.38963 3.27078 0.137831 8.61537 0.314485 3.49108 7.14235 5.78531 0.52864 1.60009 3.5743 1.85097 2.85823 2.74285 4.50239
9.29344 6.53211 4.5609 5.35075 -0.673741 2.54764 0.975173 2.9056 4.79162 4.90751 3.39644 2.57063 3.35745 5.61312 0.379495 2.34181 1.26288 2.67049 7.01947 1.74126 4.9079 8.02361 3.96876 2.46003 1.86417 4.78995 2.65993 3.96083 1.53146 5.04641 8.54255 0.901631 2.38737 6.52472 5.14047 4.83693 2.14288 5.55642 3.94051 3.1032 0.950422 1.01829 8.78309 1.4841 1.00527 6.46428 4.7708 3.25227 5.17153 4.90081 0.463523 9.72669 1.12629 3.57211 5.1096 2.36971 0.214821 0.745393 3.99213 2.9175 1.42933 5.79389 1.55046 4.27813 0.370739 4.23823 7.43467 1.98738 2.95931 7.74791 4.15517 0.286433 8.21027 6.69511 2.28473 7.10667 6.60172 -0.339526 3.00889 4.08283 2.11712 3.01566 2.64374 4.26317
9.55696 5.60683 -0.003399 5.7629 0.493319 2.28674 0.357226 2.26339 -0.00421419 4.45212 3.91772 2.42464 2.72887 4.92701 0.1265 2.23954 1.30055 2.40524 7.46667 1.78021 4.8184 8.28515 4.46669 2.71135 1.13847 4.43395 2.46652 4.11465 1.87703 4.82017 9.47311 1.12357 2.65843 6.2329 4.97368 -0.156171 0.939183 5.01328 4.02772 3.98111 1.49122 1.10817 9.38325 1.18507 1.06674 6.27665 5.06047 3.45563 4.64803 4.80224 0.375049 0.302492 1.15652 3.20685 5.64093 2.19024 4.16589 10.468 4.09805 1.95466 1.85955 5.74333 1.88425 3.53871 0.631682 3.99374 8.56425 2.33392 3.33539 7.39304 3.92113 0.379076 9.26693 6.21194 3.15667 6.7883 -0.184756 0.327887 2.03778 3.15904 1.9621 3.03919 3.01065 4.6246
-0.0453836 6.28731 -0.041906 5.5167 6.10837 2.59947 10.4583 3.52418 4.99233 5.4362 2.79038 2.27848 2.97725 4.89031 4.93944 1.9907 1.52242 2.49016 7.65375 1.59052 5.0136 8.3149 4.87834 2.5464 1.07724 4.60344 2.37306 3.88475 1.6308 4.79431 9.30966 1.47299 2.61081 6.37812 4.67968 0.154209 1.0901 4.90447 3.96112 4.01132 1.47502 1.16392 9.3076 1.39477 1.02504 6.60305 4.44701 3.88015 4.92596 4.47927 0.660715 -0.142994 1.18622 3.19992 5.20545 1.58852 4.05639 10.5224 4.64198 1.83055 1.73129 5.79213 1.62577 2.90854 0.463821 4.05943 8.70179 2.5999 3.47428 7.40525 3.48538 0.985173 8.33048 0.170652 3.1494 6.82004 6.00916 0.928142 1.98883 3.2777 1.82577 3.17479 2.92945 4.19893
10.2312 6.10436 -0.11534 5.64724 0.0939748 2.50082 0.244069 2.94355 4.91208 4.5989 3.44527 2.32977 2.99304 5.14012 5.05664 1.88812 1.1401 2.51681 7.37085 1.63482 5.04757 8.43979 4.43806 2.6644 1.19546 4.708 2.28325 4.00764 1.57114 4.89264 9.33306 1.16377 2.58119 6.43886 5.03604 -0.0409145 1.21676 4.90763 3.80447 3.93151 1.56536 1.38862 9.40585 1.45014 1.07785 6.53738 4.79543 3.642 4.99554 5.26697 0.612746 -0.11949 1.01529 3.41585 5.47436 1.47489 4.40573 10.5303 4.92363 1.99083 2.12783 5.69714 1.56475 3.15072 0.568988 4.19713 8.43608 2.19267 3.4632 6.93608 3.78217 0.53093 8.43633 -0.133963 3.07131 7.23747 6.17499 0.687921 1.74798 3.29649 1.78864 3.57661 3.04971 4.64462
9.43901 5.70589 0.227454 5.59337 0.257746 2.44696 0.279296 2.66221 4.71395 5.04606 3.10533 2.4557 3.14949 4.79338 4.71407 2.04346 1.32831 2.45259 7.48275 1.84941 0.16547 8.22782 4.47226 2.57199 1.2569 4.54493 2.16734 4.04049 1.57689 4.81 9.14194 1.52692 2.72827 6.47681 4.86087 0.0518772 1.34607 4.84465 3.67925 3.6971 1.4116 1.43549 9.25381 1.84786 1.20068 6.44746 4.44312 3.53661 5.00424 4.89393 0.652889 0.277637 1.02566 3.33849 5.52264 1.94149 4.60307 10.0167 4.65278 1.91586 1.88821 5.6623 1.47759 3.48892 0.464103 3.8119 8.76307 2.84083 3.47402 7.08777 3.69907 0.82903 8.1706 0.331304 3.12516 7.1764 6.11298 0.720273 1.75736 3.11734 1.78498 3.52687 2.93001 4.2655
0.00646385 6.21053 0.0157201 5.16578 0.00752543 2.51284 0.0216683 3.11041 4.90452 5.17331 3.05985 2.45232 2.94262 4.69972 4.82449 2.25664 1.52038 2.35366 7.46011 1.57087 0.137823 8.22023 4.62329 2.56039 1.11732 4.61586 2.17954 4.05423 1.53395 4.70571 9.26957 1.54142 2.74512 6.3224 4.69229 0.257233 1.14015 4.65471 3.71897 4.08385 1.5848 1.23221 9.28457 1.57771 1.24895 6.42051 4.61719 3.67548 4.87797 4.64142 0.809282 0.368485 1.54403 3.28982 5.51042 1.52707 4.1684 10.1134 4.70561 1.71204 1.88323 5.94626 1.53986 3.30048 0.298311 4.0466 8.54579 2.76477 3.4011 7.10735 3.45365 0.882464 8.55572 0.275696 3.42229 7.03735 5.93073 0.900516 1.85339 3.42831 1.51622 3.3229 2.77029 4.06221
-0.0848392 0.119868 0.0522938 4.87202 5.97221 2.66426 10.5821 3.03727 4.79213 5.53611 2.80922 2.58291 2.88281 4.72999 0.0750615 1.95597 1.68227 2.54672 7.50995 1.3071 0.0185967 8.68341 4.94835 2.66024 0.976589 4.94364 2.19287 3.83121 1.42704 4.95206 9.46452 1.34549 2.63365 6.5286 4.68371 5.00252 0.822511 4.79365 3.6714 3.83632 1.54605 1.25779 9.3182 1.36502 1.07832 6.97974 4.54093 3.48432 4.98821 4.99236 -0.00734535 0.142384 1.21045 3.06831 5.19317 1.38498 4.28282 10.1556 5.14365 1.47813 1.60752 6.17357 1.54873 3.01901 0.150507 4.18911 8.76536 2.5011 3.2311 6.84066 3.20667 0.288406 8.78779 0.254561 3.52913 7.28888 5.58815 0.730034 1.68967 3.65984 1.62318 3.18577 2.92437 4.29894
9.92313 5.81661 -0.0890669 5.80349 0.601276 2.01918 0.317368 2.91905 -0.10528 4.74249 3.69649 2.95576 2.73895 5.27525 4.84956 2.01203 0.993043 2.48598 7.65206 1.89714 5.05376 8.19529 4.03415 2.84448 1.11874 4.53858 2.22793 3.96724 1.8112 5.04874 9.52293 0.960511 2.64542 5.99681 5.70997 4.87016 1.11195 4.61503 3.84569 3.77423 1.51117 1.2938 9.53741 1.38376 1.09556 6.42375 4.96452 3.62444 4.83964 5.09504 0.353313 0.179378 0.875249 3.19249 5.43907 1.58286 4.4796 10.6081 4.47173 1.59491 2.1055 5.57852 1.66333 2.98538 0.742486 4.19586 8.92365 2.21676 3.38845 7.65546 3.17307 1.264 8.49371 -0.0889865 2.86468 7.16384 6.284 0.281697 1.63319 3.00876 1.88167 3.39658 3.26985 4.57793
0.0125955 0.0471037 4.89825 5.16748 6.19727 2.43277 0.0298491 3.10456 0.0118285 5.21466 3.12945 2.50469 3.00689 4.68037 4.82206 2.19919 1.5053 2.40375 7.42911 1.58305 0.112348 8.18347 4.66968 2.52528 1.12178 4.67788 2.19305 4.06872 1.59168 4.69055 9.32834 1.5986 2.7439 6.28914 4.62782 0.302648 1.12826 4.67399 3.68747 4.04783 1.55843 1.21538 9.19567 1.55705 1.18792 6.40234 4.71322 3.69016 4.89807 4.6348 0.76776 0.37731 1.57871 3.28322 5.54619 1.59578 4.17427 10.0499 4.64192 1.6539 1.90875 5.88463 1.56235 3.36839 0.325209 4.01803 8.51291 2.83549 3.38473 7.0953 3.40919 0.883776 8.55525 0.352249 3.43943 7.07964 5.93472 0.934857 1.86727 3.44081 1.56234 3.30893 2.7606 4.0583
0.390894 0.594799 5.01756 3.62375 6.39966 2.91197 10.2357 3.81447 5.25393 5.274 2.72373 3.11974 2.86961 4.36692 5.17585 1.97232 1.79091 2.01017 7.38026 0.885398 4.26285 8.60531 5.12613 2.12519 1.00671 5.16832 2.39678 3.8777 1.00027 -0.277107 10.7272 2.67781 2.42244 5.54565 4.67463 0.487992 1.12179 4.96383 3.90197 4.06284 1.20196 1.26327 -0.0814705 2.19006 1.08586 5.25501 4.69692 4.50301 4.26809 4.87885 1.24985 0.27259 2.33682 3.64361 5.27013 0.886143 4.52881 10.7847 5.10306 1.69603 1.34167 -0.0988209 2.36497 3.07592 6.40993 4.80944 9.4019 3.29163 2.73086 7.69976 1.14415 0.519234 8.95706 -0.522102 3.65659 6.86216 4.71458 1.23396 1.85179 4.15322 1.423 3.08981 2.01836 4.65706
0.16242 0.515428 0.3593 5.00101 3.34604 2.3621 10.3307 3.65345 4.89752 5.62165 0.138915 2.28729 3.12387 4.77432 4.92148 2.13605 1.59484 2.26984 7.1129 1.89767 0.177541 8.4344 4.85654 2.78103 1.38472 5.0747 2.2012 4.09571 1.49723 4.62766 9.05015 1.63047 2.70092 6.34196 4.91686 0.190992 1.42521 5.11638 3.70587 4.12542 1.60252 1.43301 9.22355 2.06224 1.28468 6.41671 4.85273 3.54018 4.84824 4.70004 0.627544 0.275826 1.3433 3.27856 5.39222 1.96349 4.12057 9.97342 5.34077 1.79416 2.13422 6.14128 1.31503 3.69271 0.15324 4.09727 8.29059 2.86546 3.59843 7.2203 4.0139 1.13417 8.03383 0.391879 2.99419 6.77538 -0.116269 0.421084 1.90921 3.7656 1.68333 3.09538 2.58636 4.13662
1.01845 0.343098 0.333767 4.67321 6.53912 1.88107 9.91468 3.75807 -0.114687 6.24878 3.44298 2.33555 2.93552 4.21119 0.46209 2.38252 1.51956 2.75896 7.04585 1.23513 5.19168 8.40078 5.35684 1.88872 0.997322 4.90164 2.04926 3.82494 1.01024 5.02714 9.77194 1.93072 3.06479 6.1987 4.44448 4.95886 0.683568 4.55747 3.39158 3.48435 1.28885 1.11556 7.76051 0.415528 2.09422 6.27651 5.32847 3.51998 4.69051 4.11161 -0.107964 0.203396 1.1775 2.30145 5.31645 0.973388 4.68718 10.4632 5.60648 1.52371 2.44506 5.51048 1.88442 3.27089 -0.429599 4.82347 8.80758 3.18554 2.55141 7.17477 3.30071 -0.229191 10.0535 1.72341 4.52812 6.62202 5.5196 0.826597 1.39383 3.49449 1.25531 3.10905 2.34511 4.31961
0.0912023 0.501348 0.0722737 4.71448 6.26766 2.69633 10.3762 3.61957 4.9346 5.90602 2.92479 2.4655 3.09455 4.40725 0.00795574 2.2896 1.46999 2.19573 7.09997 1.01427 0.0365172 8.58434 5.04712 2.19923 1.02777 5.06516 2.3182 3.92722 1.38581 4.81375 9.14999 1.5293 2.7015 6.43757 4.36908 0.0618438 0.881977 5.05451 3.87791 4.02589 1.63357 1.1746 9.03623 1.21951 1.09329 6.42413 4.91482 3.88635 5.04216 4.52929 0.764229 10.5836 1.846 3.09644 5.39747 1.30915 4.07037 -0.260139 5.48056 1.47631 2.27341 6.11641 2.1072 3.47671 -0.0638983 4.71804 8.12875 2.6489 2.88356 7.03912 3.07353 0.398018 8.47907 0.301105 3.37665 7.25025 5.56303 0.897805 1.54119 3.85063 1.48979 3.00578 2.58802 4.30199
-0.151043 0.262371 4.95232 4.91647 -0.0305442 2.90851 10.1533 3.57298 4.89024 4.98506 3.06421 2.67313 3.1593 4.59569 0.184943 1.87869 1.6298 2.25951 7.61608 1.18777 4.98281 8.31447 4.85597 2.24964 0.90021 4.92903 2.14622 4.00316 1.27023 0.0326917 9.38901 1.66535 2.52643 6.55285 4.40096 -0.0617224 0.905185 5.00899 3.67528 3.8936 1.31974 1.64881 9.21517 1.13915 0.946964 6.35303 4.56145 3.63363 5.19837 4.23468 0.538244 0.130895 1.63542 2.84293 5.6398 1.283 4.82961 10.4045 4.44247 1.80741 1.17683 6.23718 1.43533 3.42219 0.00490612 4.83806 8.76139 2.90799 3.22062 7.65921 3.4206 0.518124 8.76478 0.613154 3.55928 7.06271 5.8549 0.587596 2.13 3.91472 1.76577 3.20055 2.49509 4.51141
10.3857 0.0395001 4.90562 5.23508 6.18696 2.52098 0.0450084 3.08681 0.00589259 5.20185 3.11934 2.50914 2.9959 4.67907 4.82179 2.22968 1.50964 2.38592 7.43913 1.59761 0.0705711 8.21366 4.69546 2.53989 1.08124 4.61662 2.22071 4.06886 1.58895 4.66435 9.28555 1.51826 2.77213 6.30476 4.66063 0.325212 1.1346 4.64412 3.68606 4.0585 1.51292 1.29484 9.23711 1.54983 1.24379 6.35597 4.7126 3.71385 4.81527 4.7135 0.779037 0.303216 1.57279 3.30526 5.50503 1.51869 4.14767 10.045 4.69046 1.69633 1.88302 5.91351 1.53412 3.36828 0.33189 4.01011 8.56007 2.82028 3.4332 7.03265 3.47684 0.935782 8.5399 0.354533 3.4245 7.04982 5.89916 0.887026 1.88731 3.45853 1.53346 3.36757 2.74383 4.0475
9.3919 5.93596 5.01601 5.1935 -0.0543251 2.73017 0.479065 2.9895 4.95826 5.65508 3.11387 2.20136 2.31056 5.1399 4.99495 2.26294 1.22565 2.61458 7.15809 1.83015 4.75621 8.5366 4.64039 2.34463 1.39442 4.55326 2.11425 3.90336 1.50725 -0.00566906 9.3751 1.41612 2.5879 6.45817 4.88613 0.173043 0.801232 4.67928 3.55075 4.13846 1.38641 1.5033 9.32721 1.63987 1.09645 6.30961 4.30863 3.76436 4.9953 4.9812 0.822453 0.568175 1.45561 3.55224 5.3049 1.5796 4.76536 0.108942 4.73037 1.36605 2.41544 5.75948 1.63066 3.34963 0.373434 4.20645 8.50514 2.57245 3.11979 7.29471 3.77945 0.909485 8.59989 0.145176 3.1684 7.55364 5.98228 0.610819 2.05606 3.1363 1.99199 3.15714 2.8581 4.65315
0.0657614 0.30759 -0.401304 4.45593 5.68721 2.7085 9.9631 3.45962 4.94372 5.92272 2.85087 2.74751 3.20787 4.66282 5.07433 2.19844 1.69875 2.51254 7.4102 0.964189 0.0797189 8.16313 5.37453 2.2591 1.11142 4.88413 2.09182 4.01545 1.3628 5.01677 9.41594 1.46639 2.62634 6.37267 4.599 0.0936462 0.877517 4.9347 3.68486 4.08651 1.30162 1.52944 9.30006 1.02294 1.24987 6.2881 4.94888 3.78842 4.94265 4.40263 0.786059 -0.0581838 1.70753 3.24344 5.44589 1.40887 4.39246 10.6081 4.98035 1.21128 2.06251 5.85852 1.63965 3.26807 0.159188 4.30036 8.68152 3.0307 2.87083 7.39565 3.47529 0.394726 8.52394 0.297335 3.39953 6.92333 5.91812 0.89096 1.7809 3.47108 1.51637 3.17321 2.4961 4.45989
10.0519 -0.0541557 -0.113096 5.81584 0.0978721 2.69856 10.4484 3.32837 4.86416 4.80533 3.38691 2.54481 2.97693 4.48125 5.02201 1.97085 1.24105 2.93086 7.53423 1.73406 4.87598 8.29881 4.20468 2.58928 1.00253 4.80817 2.34869 4.12866 1.40168 4.69027 9.45103 1.37359 2.57317 6.41593 5.0506 0.199168 1.18096 4.9279 3.84345 3.99301 1.43977 1.00171 9.36565 1.60303 1.04596 6.90902 5.00222 3.86397 4.87606 4.75273 -0.0909631 0.121416 1.73452 2.92727 5.67682 1.46277 4.13897 10.5591 4.55493 1.93875 1.57204 6.20259 1.76219 3.60225 0.0574847 3.74417 8.79472 2.56928 3.41681 6.65336 3.83685 1.10578 8.82038 0.148791 3.16623 6.97999 6.40098 0.756045 1.81344 3.53264 1.56351 3.46362 2.61043 3.95733
10.1813 5.70367 -0.0860722 5.8987 0.0194844 2.53537 0.797868 2.28528 4.91997 4.59331 3.40812 2.75966 2.87581 4.97087 0.235597 1.80052 1.17158 2.30065 7.4582 2.01643 4.47867 8.66578 4.64907 2.79009 0.966615 4.74385 2.41377 3.92763 1.62173 -0.145889 9.42775 1.30359 2.38536 6.44286 4.68828 -0.0353035 1.24671 5.1265 3.86042 4.06503 1.63377 1.46978 9.41353 1.27388 0.762079 6.50553 4.66763 3.59782 4.84301 4.78049 0.52588 0.039306 1.12754 2.8634 5.33983 1.54346 4.27447 10.3064 4.94731 1.99352 1.83541 5.86101 1.44586 2.84545 0.442705 4.83115 8.70836 2.67282 2.83156 7.02725 3.2581 0.488359 8.51342 0.229934 3.24663 6.97167 6.04657 0.410574 1.7258 3.56155 1.91156 3.19011 3.03344 4.74866
10.4045 6.18994 0.00104488 5.2291 0.0305054 2.43774 0.0337528 3.11338 0.0326474 5.17185 3.1273 2.47229 3.01618 4.65922 4.83146 2.23075 1.55454 2.39222 7.4336 1.51791 0.0917932 8.18484 4.68547 2.53379 1.17542 4.6528 2.20409 4.04928 1.50955 4.62119 9.28594 1.51444 2.71935 6.34832 4.61571 0.325376 1.14017 4.62946 3.77712 4.07378 1.56391 1.21983 9.27498 1.55098 1.26335 6.33172 4.69744 3.72227 4.82105 4.6825 0.849743 0.343338 1.59856 3.3091 5.57948 1.5521 4.179 10.0494 4.62711 1.63043 1.89975 5.85482 1.54761 3.33676 0.346512 4.05097 8.55684 2.83038 3.43833 7.08614 3.46754 0.901354 8.53839 0.330762 3.40071 7.05977 5.9477 0.924333 1.82186 3.39011 1.51647 3.37694 2.78574 3.98506
0.176021 0.0488194 0.134764 4.67182 5.97157 2.37774 9.77392 3.71361 -0.00979863 5.82186 2.70535 2.45906 2.95282 4.72938 4.87024 1.76173 1.48976 2.32985 7.54321 1.51289 4.99412 7.87943 4.50465 2.48766 1.16057 4.56176 2.18271 4.09196 1.54826 0.106047 9.36547 1.41322 2.76132 6.73069 4.95877 -0.00520395 1.04849 4.81519 3.97101 3.88817 1.18699 1.51717 9.56969 1.52888 1.28 6.44974 4.91853 3.58693 5.31608 4.85399 0.561937 0.318839 1.70606 3.19486 5.62768 1.66255 4.50866 10.1097 4.46389 1.76596 1.81872 5.89567 1.62374 3.62798 0.375961 4.21719 8.31108 2.49566 3.15736 7.5014 3.64054 0.285013 8.8511 0.175778 3.38026 7.47718 6.12939 0.649486 2.20427 3.56387 1.47074 3.33396 2.73024 4.69888
-0.0942708 0.248471 4.73141 5.05403 -0.149286 2.47819 10.2 3.29063 4.50492 5.27616 3.43796 2.60484 2.86695 4.44955 4.82991 2.26571 1.58295 2.67936 7.59605 1.23698 -0.106613 8.66008 4.51802 2.17196 1.21435 4.6861 2.36023 3.97753 1.32534 5.03312 9.16121 1.72352 2.72457 6.39819 4.70753 0.141178 1.08147 4.58025 3.94045 3.92794 1.32496 1.33356 9.00694 1.51494 1.21091 6.4668 5.10022 3.8146 4.86815 4.96722 0.694213 10.5882 1.86372 3.10214 5.21926 0.854714 4.33037 10.5892 4.89358 1.72252 2.03786 5.89849 2.07831 2.72591 0.514036 4.54103 8.36732 3.14007 3.18436 6.64806 3.12636 0.464524 8.41401 0.559444 3.36606 7.22904 5.70849 0.962799 1.82578 3.36788 1.74438 3.88629 2.91258 4.41607
9.45999 6.32053 5.23796 5.42881 -0.170903 2.58058 1.53452 2.14979 1.09253 4.89224 2.96988 2.66909 2.76426 6.01036 5.02052 0.851355 0.112745 3.49664 7.46392 1.06498 4.91368 8.50481 4.43452 2.81022 1.34809 5.11423 1.55443 4.12102 1.82417 5.07065 9.39731 0.926326 2.44812 6.56094 5.09788 -0.0326175 1.07482 5.24878 3.24764 4.08005 1.43876 0.909867 9.17496 1.25343 0.882116 7.78638 4.49643 4.76448 5.09744 5.34422 4.87191 -0.431103 1.19832 2.78375 5.63681 1.7062 4.32408 -0.112011 4.83873 1.15092 1.50823 -0.317631 1.20048 3.25787 0.713153 4.27565 8.60737 1.9288 3.20668 6.35316 4.586 1.46069 9.07324 6.51885 2.70205 6.91436 -0.428227 0.306269 2.62454 4.47972 0.992996 3.53573 3.41247 4.77857
10.2501 -0.161234 0.0943866 4.53293 6.13591 2.13754 -0.278166 2.98529 5.14645 5.38473 2.88478 2.83953 3.24491 4.64304 -0.000945256 1.97187 1.32278 2.55793 7.53599 1.40773 4.93465 8.48037 4.80865 2.61344 0.921646 4.69856 2.32163 3.8797 1.67119 4.87928 9.37234 1.58075 2.45649 6.68576 4.71621 0.0701563 0.607191 4.98705 3.74307 3.65949 1.7779 1.13498 9.20486 1.67291 0.973887 6.50342 4.55864 3.7171 5.26716 4.5676 0.739238 0.0395789 1.34226 2.78365 5.16537 1.11197 4.41642 10.247 5.25813 1.77844 2.35765 5.43156 1.96796 2.80624 0.786802 4.12412 8.90748 2.8314 3.20289 7.55598 3.42419 0.457617 8.53336 0.538809 3.45895 7.42121 5.92256 0.475501 1.02782 3.33862 1.84399 3.60282 3.16524 4.11011
0.872648 0.408067 4.53559 4.06563 5.16476 2.89858 9.34137 4.85528 4.80722 5.80871 2.26677 2.65126 2.60269 4.29228 4.93081 2.57258 1.80178 2.19662 7.65609 1.38617 4.99928 8.13947 5.16545 2.55591 0.868823 4.91559 2.05582 4.26891 0.698426 0.0581599 9.85932 2.57368 2.30424 6.16545 4.03953 0.347504 0.879149 5.0218 3.65854 4.5286 0.943293 1.53458 9.55995 1.57467 1.34203 5.7345 4.00788 4.03989 4.93806 4.21578 1.12 0.368485 2.44683 3.53927 5.41965 1.26921 4.63917 9.86562 4.77229 1.80628 1.52036 0.0512372 1.70965 3.35452 5.74569 4.78265 8.57561 3.49315 3.22643 7.19142 2.95585 0.84932 8.68207 0.489308 3.75545 7.07374 5.34064 0.577557 1.77991 3.69935 1.48019 3.64328 2.83762 3.39094
0.392261 0.516658 -0.117759 4.46888 6.04171 2.54624 9.74942 3.62583 -0.0439826 6.22956 2.6349 2.32483 2.7787 4.72265 -0.0100597 2.1154 1.65133 2.79651 7.39203 0.827907 5.10251 8.39832 5.03356 2.30667 1.1654 4.8979 2.28181 3.98238 1.27131 4.90702 9.4527 1.68099 2.64998 6.38876 4.33292 -0.167247 1.35238 5.0825 3.85976 4.10164 1.31448 1.27268 9.32459 1.42518 1.05398 6.4786 4.64245 3.65787 4.93873 5.13311 0.212069 0.0103266 1.73341 3.35993 5.30542 1.18222 4.24984 10.5109 5.15419 2.03704 1.94538 6.16949 1.4865 3.14853 0.0204748 4.35077 9.18066 3.25999 3.00902 6.69397 2.85426 0.311542 8.23963 0.978879 3.25975 7.36109 5.33117 0.566614 1.7141 3.48348 1.91716 2.94205 2.57241 4.47511
0.0414596 6.18343 0.0408512 5.17309 0.0409954 2.44234 0.00685122 3.07906 4.93994 5.17223 3.12508 2.47652 2.99687 4.65147 4.87123 2.24915 1.51106 2.3563 7.43924 1.5202 0.059136 8.16692 4.70105 2.57912 1.11416 4.64458 2.19388 4.04959 1.60299 4.65033 9.28893 1.5135 2.72774 6.3719 4.68457 0.298605 1.13129 4.61837 3.75859 4.07738 1.54266 1.20674 9.19779 1.53089 1.25695 6.32348 4.67621 3.73528 4.85047 4.64409 0.854595 0.37168 1.55784 3.27226 5.55183 1.50766 4.17762 10.0515 4.67144 1.66158 1.82741 5.86956 1.56878 3.38042 0.296476 3.99862 8.5651 2.77106 3.45013 7.09917 3.42698 0.93914 8.58524 0.337514 3.39609 7.09212 5.92554 0.929901 1.83151 3.42379 1.54819 3.35212 2.77266 3.99609
0.0774387 5.81162 4.81395 4.06442 6.34795 2.09298 10.0919 3.12663 0.461383 5.05041 2.94173 2.52853 2.85318 4.70344 0.0119914 2.13262 1.36935 2.36253 7.33546 1.28449 5.09162 8.17603 4.59503 2.18121 1.20838 4.68922 2.31786 4.13201 1.53126 4.73052 9.48672 1.65123 3.02815 6.44074 4.97438 -0.0234176 1.49287 4.67457 3.91473 3.89356 1.57754 0.991618 9.17961 1.31549 1.50824 6.71565 5.22922 3.66485 5.11549 4.67477 0.723863 0.204185 1.51085 3.17115 5.64204 1.52936 4.09142 -0.424306 4.77414 1.9931 1.8567 6.02132 1.59262 3.5541 0.160764 4.2832 9.02777 3.09608 3.50614 7.28684 3.58014 0.423007 8.99954 0.517134 4.07641 7.01208 6.29427 0.867596 2.0751 3.69976 1.35701 3.40299 2.75091 4.00063
10.1525 0.111215 4.81387 5.76434 0.573121 2.38266 0.520892 3.20229 4.91888 4.24196 3.71879 2.58982 3.05739 4.88462 4.91016 2.20099 1.15977 2.62745 7.20876 1.3506 4.95752 8.21354 4.30587 2.50813 1.16225 4.55084 2.21011 4.09167 1.58418 4.74646 9.25965 1.53907 2.56434 6.37007 4.67177 0.276881 1.05446 4.89371 3.65341 3.97574 1.49364 1.2713 9.07042 1.9288 1.07945 6.45154 4.67961 3.66397 4.8084 4.92824 0.705522 0.379706 1.33133 2.9537 5.41539 2.11993 4.34737 10.1637 4.66684 1.5709 1.90936 5.62174 1.31892 3.58814 0.320941 3.97359 9.02368 2.74226 3.32993 6.90392 3.42765 1.11858 8.58014 0.380583 3.20556 7.3928 5.8761 1.07247 1.88139 3.15744 1.86225 3.00943 2.53666 4.12188
10.0849 6.10595 0.0283883 5.67053 6.1014 2.32755 0.360108 2.87875 4.98025 5.10679 2.7223 2.58934 2.98206 4.73702 4.93177 2.28347 1.38787 2.37329 7.47655 1.63836 4.94162 8.09078 4.57968 2.59211 1.13027 4.64591 2.28038 4.00875 1.7426 4.66586 9.23961 1.65481 2.64057 6.34714 4.67396 0.197866 1.1253 4.51409 3.7948 4.03094 1.44452 1.32264 9.02021 1.63061 1.16674 6.33507 4.58054 3.47303 4.86441 4.84415 0.576859 0.230697 1.81541 3.09154 5.58424 1.79314 4.33221 10.1347 4.45783 1.90847 1.67456 5.8756 1.46705 3.48575 0.432202 3.98661 8.52286 2.86127 3.4534 6.89352 3.56851 1.07177 8.51442 0.442242 3.37234 7.19167 5.75789 0.741289 1.92496 3.34418 1.73973 3.06963 2.99374 4.10955
10.049 6.21029 4.95167 4.26724 5.53439 2.61554 10.1617 3.36442 0.0137968 5.34612 2.63501 2.63148 2.83623 4.60927 4.80998 2.17761 1.26717 2.60781 7.36178 1.32833 0.0149539 8.37812 5.07796 2.58272 1.06976 4.73253 2.27087 4.10158 1.37723 4.78741 9.50982 2.01002 2.66574 6.41745 4.58689 4.95071 1.12259 5.00793 3.86554 3.831 1.36656 1.34195 9.49101 1.66864 1.19186 6.45255 4.85376 3.28286 5.14726 4.4097 0.659591 0.467639 1.67151 3.48536 5.53083 1.07443 4.27115 10.1143 5.16916 1.77419 2.1596 5.61655 1.58772 3.26488 0.309459 4.12284 9.05571 3.32242 3.23205 7.31218 3.37616 0.528687 8.37083 1.00134 3.10398 7.37699 5.81888 0.570463 1.66376 3.32361 1.64693 3.38925 2.68892 4.20923
0.376965 0.330638 0.086357 5.29513 0.109004 2.39098 9.75029 3.29166 4.60415 5.23532 3.07562 2.58289 3.05691 4.61455 0.20873 2.14775 1.60423 2.57856 7.57326 1.34274 -0.0138005 8.1661 4.37038 2.40173 0.951066 4.90473 2.19249 4.04489 1.71827 4.6409 9.18777 1.2156 2.68607 6.54319 4.64569 0.280213 1.01398 4.81423 3.71099 3.97054 1.94141 1.277 9.23916 1.08266 1.16669 6.68439 4.71665 3.59705 4.91222 4.87773 0.604507 0.175762 1.79199 3.25189 5.60875 1.51542 4.05706 9.96718 4.64182 1.43258 1.67253 6.15645 1.59201 3.23356 0.403843 4.01272 8.07179 2.41526 3.23408 7.10702 3.42398 0.94934 9.05698 -0.102893 3.44579 7.16223 5.88524 0.971099 1.83421 3.50526 1.68387 3.31376 3.10931 4.16397
0.453472 0.395923 0.212583 4.89864 5.93316 2.41336 9.63266 3.72879 0.0317426 5.82041 2.59158 2.33578 2.98153 4.49494 4.9119 2.24669 1.73689 2.42351 7.56218 1.2671 0.139656 8.07443 4.90196 2.4713 1.20991 4.84653 2.22822 4.05339 1.5076 4.57172 9.34688 1.64302 2.82715 6.20138 4.48965 0.142961 1.29522 4.65917 3.93208 4.14666 1.57103 1.17488 9.26302 1.7195 1.28752 6.15297 4.61534 3.60851 4.91078 4.31297 0.94629 0.346618 1.33721 3.23115 5.64107 1.32857 4.01189 9.98051 5.23829 1.94429 1.93881 6.0263 1.49552 3.35987 0.216746 3.94512 8.72275 3.09442 3.13099 7.18467 3.18242 0.589567 8.6926 0.405779 3.63738 6.91381 5.67032 0.913114 1.70766 3.39404 1.88499 3.40957 2.71389 3.84543
10.2861 0.028046 0.0925266 5.08707 6.05411 2.44673 0.524028 3.12144 4.65207 5.08947 3.12643 2.56524 3.21876 5.06686 4.66078 2.09229 1.47848 2.24121 7.33296 1.367 0.290275 8.30306 4.50572 2.5194 1.11725 4.52112 2.1705 4.08623 1.86307 4.80256 9.19441 1.44878 2.78254 6.35 4.48494 0.380872 1.43267 4.89741 3.58022 3.94381 1.48416 1.4208 9.16833 1.55413 1.11402 6.25212 4.64882 3.75652 4.88089 4.87909 0.76628 0.325985 1.61258 3.15041 5.53342 1.7961 4.44427 10.0709 4.75476 1.77716 1.83732 5.69863 1.37687 3.24052 0.816588 4.09822 8.41981 2.78618 3.2657 7.03034 3.19228 1.08944 8.33333 0.164395 3.19213 7.51389 5.53212 0.832101 1.81017 3.26559 1.68479 3.44851 3.1292 4.40371