-32403.9697159353
-32408.3665186102
-32407.5541492842
-32407.1047837146
-32407.1934955017
-32405.6638313354
-32406.5238823285
-32406.8266543979
-32406.8258577851
-32407.1295061966
-32404.9770797612
-32406.4178413887
-32407.2026353927
-32406.979333721
-32407.4333725712
-32411.1829098187
-32406.7468792329
-32404.7563163661
-32411.0319661728
-32397.9986316993
-32407.5406761186
-32399.8469631846
-32406.5789771892
-32406.731380589
-32410.9131312632
-32404.346665927
-32405.7343819821
-32405.6386712946
-32406.0206001506
-32410.7123958445
-32404.6140380449
-32406.0945360278
-32401.2964697301
-32405.4153033632
-32396.9040448204
-32405.0112360169
-32411.173619993
-32404.8998979758
-32406.4777959279
-32407.0103187637
-32406.4867003045
-32406.491564609
-32407.0635233866
-32407.2895472837
-32407.4324330987
-32406.9822484669
-32410.8634393561
-32407.2584781579
-32401.5432765831
-32410.9860146046
-32410.9283086769
-32405.300305801
-32411.208087955
-32405.0478925894