0.128023901967796 -0.365251497602406 0.275701049230181 0.531558334520012 -0.993420526125661 -0.609175013738423 -0.110240104815345 0.743181098339026 0.0147810073227106 -0.358989836200446 0.554005596175573 0.992845627755998 0.46437364387527 -1.1538701359595 -0.24114106973329 -0.648661738566034 1.4729816685233 -1.1288396882932 0.660403703523172 -1.03770338431092 -0.20821631100163 1.04493897908689 0.123811922946406 -0.313896052497333 1.26127791499657 -3.54267313488251 -5.74269632421403 -2.72945213731417 3.34213439106179 -0.382350867447145 -1.93240619848191 -0.0210382978515563 -4.30427334963671 1.77070703315766 4.92233640529861 5.81339288285128 0.141907594751094 2.05733989315767 4.920899930705 0.715985782930077 -0.82622408797414 -2.70614201388374 -1.43322420667277 0.651926009452102 2.29619319648074 -0.120086396391655 -0.614075533830455 -2.43732226159706 -0.383925667319322 -1.88406125651208 -1.7261806916289 2.39805716574738 0.287873930854383 1.82545710401169 0.48097447707476 0.107279738165835 1.87203929856542 -0.326523504925455 0.0105849691326806 0.177956756429153 -0.630374519674853 -0.476275531366366 1.9010842646324 0.387866909317788 -2.11011227248243 1.1412653092275 1.33298260266219 -0.107934597802477 -0.445606143161848 -2.90315397732133 -0.0817484398626376 -0.832695551285601 -1.04780395785843 -1.4197781154213 0.298197933151103 0.489857891014939 -1.04672049554637 -1.25867158906935 -1.44226651470617 2.49034943711339 -0.00343062117460607 2.2581925685121 -1.08291800980014 0.810823187999703
-0.166086493490593 0.24092741117104 0.125816611044915 0.0603581581702632 1.05580496964982 1.58535475941858 -0.26134658770142 0.0092593090280363 -0.8280487989444 -0.0971346845566308 0.352992998287194 -0.844692826654669 -0.162313401551947 0.775661313563911 -0.155000159500648 -0.955832045780708 -0.817059652603709 1.00977941864275 -0.995381248382841 0.167743054401032 0.16639039772715 -0.0398698190005987 1.33416145285222 -0.0476240050161083 1.34032309839291 0.219092328861708 0.0684890106041793 1.85178775787449 -4.90700158264126 2.91872739822871 0.914322635141763 0.238958204277814 0.155907244227022 0.419909008790479 -0.810690776255349 0.858547723097448 0.81117825716272 -0.697889596905023 -0.611748429562198 1.38915809237195 -1.34202773890761 0.350362246892563 1.2601242616045 0.737537015597143 -0.0171196815492127 -1.33402158491256 0.0917361420397153 -0.747524203553854 2.27381766856629 -1.63637004775126 -1.67679805295961 -0.550701987431474 -0.614187890980519 -0.146024185894512 -0.447789008617323 -0.988969177523701 -0.762910448247847 1.05686632048613 -0.436814003336709 -0.734132362551041 -1.22078408958132 -1.1217424187958 1.70842466237623 0.589714343971059 0.769046125660033 -0.0487378063297854 0.318327089394819 -1.47966833305811 0.514023420024911 -1.38819187230344 1.04253525598404 -1.33516521100749 0.494609030090525 -0.189399959353398 0.0258688839737551 -1.61486663757827 -0.450015325693761 1.14143474483824 -1.80768076305455 3.5454041592486 0.389740471222859 -1.73849652651496 4.91097727740427 -3.06334082054793
0.149840986564303 -0.460660715719497 -0.15358939592536 0.111835730612362 -0.998878461094899 -0.316720407859924 -0.34502952458255 -0.245072027324428 0.00648200482897351 -0.236317168475854 0.0280232101988937 -0.345092259467254 0.525879799013578 0.298122856977605 0.313745643040153 0.716262947707581 1.85439511224245 0.385679930099382 -1.32208807286893 -0.430960890015874 2.18821746104895 0.649639014372426 1.32753675187157 2.10621962430859 -3.52227786959917 -0.988270866266096 -1.20892668215192 -2.78124364128997 0.94179871487078 1.35755770819402 3.62674739346249 1.3984770509625 -0.791812461052962 -2.1978333819011 0.914264271130173 0.282457647734826 0.0860216111076314 0.0970835196301715 1.28235940735891 -0.677550638751805 1.56150084795066 -0.860560638721819 0.0904662748448281 0.589941886483202 -0.162788798280708 0.0509918913060105 -0.369307924962952 -2.76500096257569 1.78429093546733 -0.456837230184942 1.28586201938482 1.12291612678217 1.83773642925174 0.0763972056194332 4.24476776883398 0.882082303717815 -1.00147193151296 1.70019739362361 0.31979493143078 1.37035356779215 0.687848158699654 0.0457504431110379 -1.37074566082155 -1.98761932477591 -0.507959733464024 -1.69749516559805 1.07984297200892 0.271426335324088 -1.73960390007406 -1.10151453224173 -2.22980323341231 -0.818994149622201 -3.11488241342565 -2.93073315823382 1.06852241064207 0.329435020640154 0.965705848146623 0.126883104084881 0.347909158634531 -1.02879631623389 -0.677281187279798 -0.0185371299892639 -2.68636021349755 2.05934612391728
-0.126076806550326 -1.13881299230002 1.07418783352916 0.529860121759893 -0.212725509394813 -0.568350030407189 -0.906864640057314 -0.712351273380184 -1.08606786665468 0.726002024337492 -0.0361417213440156 -0.294174930114375 2.08865797035444 -0.351053101954855 -0.346424604436661 0.204170939378963 -0.287127539992517 0.417973226221071 0.574499334659085 0.335692311169 -0.556056306996877 -0.979075834783862 -0.325091915425327 0.561823031296153 -5.8188770430592 -1.83891810765379 1.62219222091837 4.92715670701348 3.20443363312842 2.57971579459443 -0.0302652109965078 0.0417282114048595 4.83728872756498 -2.13643418459901 -0.873363697405075 5.81078218605093 0.489055707243316 -1.278017587695 -1.08990395058821 -0.47256157476986 -0.916801434418116 0.651855818372085 -0.510456016232836 -0.130276958503288 -4.45459461802325 -0.492724155337394 1.12030722975311 -3.89114253660626 0.385187306988347 1.01426059202596 -0.411854518080977 1.75607566396158 1.56642939305266 -1.79849267354726 -2.74538808357987 0.667376788802082 0.309108146665547 2.70901881972371 0.556911198356059 -0.292354075796863 2.4328817116228 3.06856658502173 -2.55927270681701 -2.29869822099578 -3.39199988265515 -0.953239089583009 -0.371759213449701 1.00203474570402 0.312648296778202 0.64720160983557 -0.633451357237359 1.54074202886826 -0.862799554197235 0.297127840568572 -0.104864702214918 -0.443817684727421 -0.596924484838891 -1.80043462676107 1.32563516495653 -0.503683991117198 1.31851346999172 -0.599604858498882 0.351872769218937 -0.829603544222286
0.489321816282941 -0.517509062778724 0.262834741441855 0.0728724821177713 0.497069060323504 -0.0744457393288494 -0.0685319480047758 0.0255552095502357 -0.312595074970277 -0.398639568884214 -1.09795946973845 0.451213973367898 -0.340584346624987 0.250548217116673 -1.14033662724574 -0.123573838916752 -2.48326142358258 1.42779918180698 0.855528992436348 0.846848438430724 -0.276927207693922 0.580828616039231 -0.0229697095478496 0.53233686415478 -2.3602532270689 5.56135985442655 -0.550527409617073 -5.43063860952667 -0.399879868408032 -0.219778813050885 -1.06813057472285 -0.117099033172908 -0.691133769730928 -3.28361945579498 -1.67832657299881 -2.81590877885179 -1.29152589961081 -0.43757196415682 3.83786133622893 0.316063234231632 -0.520388439720523 0.85840065607265 -0.984231151067459 -2.04913293610953 1.44558452162053 1.9151379072468 -0.190669312327918 4.89858173836141 1.34626645738806 0.757267136836513 -2.72779917594629 2.8890273154149 -0.812901923830977 0.108698472156802 3.35938545591463 0.0719278593046482 -1.83556590508506 2.78705870230369 -0.602686581154869 0.720064064656196 -0.149622442908572 -0.523718016593126 -2.05299961615486 0.451641290492398 0.135288293084285 1.35742452511912 -1.74059763093218 1.90610845472256 0.684323435197992 0.234884036314627 -0.395988762895292 0.634261511424662 0.754373361724455 0.317680457284039 -2.14266704966045 1.07772901208255 1.20444345188724 0.782717702542182 0.549741938007358 -1.18227489767028 -2.10672201760659 -0.439912181044421 1.45824154171972 -1.05469502498889
0.0847666563033706 0.222853850842108 0.409578321628995 0.241327731726302 0.252988192755361 0.222600854421827 0.248572068248501 0.0553568508864112 -0.55298409741767 0.5462447252953 0.717142521644351 0.658310312411455 0.465500043587925 -0.368157614003258 -0.372514860278163 0.144553515646535 0.776650930659096 0.187577562374787 3.95964183161777 1.42309200857272 0.825303376408055 0.0911717851875636 -1.66985402113141 -1.54486144822369 -4.23593911936282 -6.65965253896244 2.15441827058418 -2.08475015267979 -1.14676283916495 0.109267714102435 1.99402831031285 -2.80571076054485 5.76773782761821 -3.5679013002797 0.0381276403991499 4.15679289166448 0.471757077006587 -0.0155896188489144 1.92389482297684 -1.14153167537731 -0.517267379206505 -1.75712235951744 -2.06440682365346 0.813635459183683 -4.2461381661105 -1.14971626383952 -0.791069155513294 -1.58405352478134 2.46553136245842 -0.417285456480977 -0.522150930026445 -1.657809951709 -0.108642165026678 0.340672792528012 -5.21368852271149 0.679401574960753 -0.952172596543043 1.06782152828263 -0.0817754364318749 0.0397268657387325 3.14324578039693 5.30666727826667 -4.81659341469783 1.73798127770781 1.62147719749885 0.112548954260594 -0.312977912033081 -1.42006839281814 -1.35522160506935 0.764716904395099 0.907236164272056 -1.03724135731169 1.70116258525139 5.8278597015301 0.806475711911761 -0.158109392946238 -0.474378829544806 0.0629973942009408 0.434009959678592 -0.105049564436648 0.25825252375664 2.02479771437864 -2.06122534224638 0.704897392058666
-0.608275385207362 0.337591841202575 -0.323113966785872 -0.0980445974950203 -0.28057482986316 -0.555693781638548 0.387181710679527 0.696307340837533 -0.0316008983982974 0.0509738935931856 0.407329378856435 -0.343854788155451 -0.174873234001884 0.0519352285682176 1.35948552034775 0.269946409109516 -0.126318233012363 0.0892015498536052 0.529182379316944 -0.197110950858127 -0.131965401076445 -0.0123065789194723 0.767373366808052 -1.11783408690079 2.43586547529898 6.40832142133789 -0.462155297214512 1.9722333371921 -0.00287654872978286 1.76302200978143 -2.24211495453544 -1.78762976830653 -3.33874310774522 0.0862370694411636 0.623272879304337 8.61424837469634 0.234976595980584 -0.0924197980168776 2.96054559819769 0.546330600096493 0.867876451874951 -0.265280630614757 -1.33666159227378 -0.313834088943179 3.20311902876166 1.11291685464684 -1.15444786254118 -3.83363624458819 -2.50286478950163 -0.156605555484627 -1.0071427537139 3.67595365454609 1.11816550192695 0.101389600978617 -1.99820789345115 1.5627637731706 1.48956321845905 -2.70186241488417 -0.430542314637603 -0.49865337327246 -0.154502651296131 -1.43451052891938 0.302329179574963 -1.13746573493999 -1.76380696717078 -1.76143975371394 0.0686116521615717 0.160507716735245 -0.806813040472136 0.0433279509648085 0.94759860638369 -2.42845633114934 -0.647777279535783 -0.737519789214868 -0.313836145824644 1.41480123360485 -1.10482456874041 -0.64752094068312 1.35616982742504 -4.66750216142778 -1.07310617098838 -0.569751538015881 0.301480458860178 -0.942058139045641
-0.171326913244833 0.628326894175748 -0.307352084114205 -0.407600115879358 0.106293206392848 -0.109334048529703 -0.0427224564833428 0.287296204272704 0.497066232111488 0.0427522812645954 0.820916048241715 0.563489876613921 -0.893085076898217 0.873408434576954 0.520896489442551 -0.109826157420372 -1.17257078802529 -0.180535057346409 1.60442127927508 0.0638857098839404 0.121143890575209 0.713933272337491 0.770635066592287 0.590545066973019 1.46314309025249 1.89253303704893 -4.47800784263714 -2.95886435470966 0.150333609675338 -0.436154001496402 1.40443506523808 -5.6051022670067 3.37207435767654 -1.65792462285071 2.85782236669875 2.04940161625099 1.03152759771015 -0.599108378735099 0.0664452417578221 0.691852649803191 -0.919849989860468 -0.316369966680205 -0.114709965350496 0.459989143920945 -4.56091816341772 0.661470196563138 -0.430774742243228 -2.38579326711832 2.39931340610256 -1.16416585613607 0.590029818165861 0.400235966011781 0.964353705693107 -0.983087267862346 -0.521951412524272 1.71602149695962 -0.0842845747098469 0.459323485656608 0.0508792770457633 -0.0200437956628899 -1.28011637812056 -0.868305054550367 2.78750710246321 -1.56840502770047 1.29321871305708 0.381157104866489 -1.27239535931869 3.03743208449578 1.40477316512901 0.408407184744462 -0.811582177260547 1.4282599232553 0.157489243184329 0.135036067994554 -0.791963898950874 -0.953951284790508 -2.29577359266174 -0.644321718673405 -1.63555732246213 0.191765115928771 1.82114639467995 2.15013224383003 -2.43291410750588 -0.895770849872056
0.107490568516069 -0.0643055708131266 -1.15221357504906 0.29368153567279 0.186697731327833 -0.370416326962781 -0.173595139281134 0.724871253751722 0.3602234508595 0.331212423336703 -0.556526561521973 0.532013933764665 -0.494945073099984 0.243776963331586 -0.253957755256256 -0.744306726721131 0.452980577436752 0.485190312748897 0.49584110208848 0.282900134360135 0.100023574575208 -0.48722893939159 -0.505910051083453 0.347121630143351 0.397163756432574 -2.46548353996434 -2.4855309351698 -1.59846069389766 -2.12441968284767 2.04743318068831 0.145497624239292 0.812628615706222 3.28451137102055 7.00379143387034 -0.910122226078618 0.0647639982697948 -0.514661824609828 0.298578199112074 1.63191741359838 2.50142317270435 -0.0140700976661277 -2.71817682733956 -0.398210966208799 -0.238650443388509 0.14744857630951 -2.08549037289726 0.0768183520995355 -0.231194248075343 -3.91767707884436 0.700397706742262 0.552324352687546 -2.22933554998904 -0.5824556092786 -2.64395991607377 -1.14001755350837 -0.672644462235742 0.961712669891147 -0.0768060108107413 -0.245099281003848 1.44952164985607 -0.228974872973851 -0.0567267339425681 -0.197632370309683 0.49399556519338 0.310579845354256 0.00359311481039645 1.37016433469731 -1.3820387113988 0.11561782140742 -0.268127354563287 0.450258037706714 0.296622876168742 1.93554165716619 2.32030807478462 -2.03262594812691 -0.265077513570019 -0.234276742061879 -0.137217647899113 -0.202611051897412 1.69935047268011 1.13646531921711 -0.250276194542834 1.49258374889143 -1.29357918153394
0.652344327720189 -0.707362307385126 -0.734466091568851 -0.275114066681907 0.589387299818013 -0.291426165145649 0.531607442565006 0.738794027282869 -0.519084119761085 0.276050461969167 -0.17758831753661 0.671512920319423 -0.541836056983753 0.812912722458672 0.0287022381927583 0.226203225198819 -0.169573936015689 -0.148843141943255 0.0497143108056269 -1.84794216086418 -0.639325039372851 -0.744490303391945 0.406686603398403 0.608440707055167 0.721770762052361 1.85404749927475 1.67490752178245 0.298327516683442 -2.8828199042616 -0.105294333331067 0.935399756630984 -5.02278986810015 -1.2311577141434 -1.60378441735126 1.90571790435426 0.606930956059343 0.743648524652107 1.06029976987275 0.312713088544372 -0.653113858498544 2.49629639565109 -2.86455865349892 -0.824613806896679 0.555842905544811 1.41985601980681 1.28406713319581 -2.02055539635563 0.705820931836766 -0.0780411681308948 -0.452108716805478 -0.431828636884216 -1.5146725989516 0.254962027631884 0.171418187359873 -1.12644856358932 1.22602605199666 1.59716357302335 -2.11814670859764 0.0657201910411625 -1.11852108531033 -1.17913866765545 -1.32757377573795 1.25245800727165 0.37747014483922 1.50869915806502 0.31814788359712 -1.28032926535226 2.64856013147181 0.721633722324709 -0.403970234312762 0.728151979689516 -0.124924438709167 1.43729374665266 2.61563331585869 -0.870754543265833 0.847769664217174 0.210855547032308 0.341235092498698 1.95187432444459 -3.18152588713473 -1.82487217834488 2.01015837476688 -1.88875403157607 0.474115291607013
0.39062647291421 -0.663328846077582 0.954407912475894 0.447682050781107 0.336254611139686 -0.24016790768983 -0.680296832618699 0.25810211429946 1.23535580921489 0.207954315724937 -0.719095016375668 -0.160389703161151 -1.91482140461127 -0.504019262796108 -0.0189081399836397 -0.528550916706974 0.195296267185013 1.23259496006756 0.509702169175656 -0.152431628770353 0.78754905999493 0.479527975184006 0.215542665672274 -1.06595953633581 2.94134898058849 7.89291032908232 -1.93430984227842 -5.5591566772666 3.89172386273051 -0.40887203995571 0.31892101391804 -1.07295421887011 1.9755215193252 3.25517741310763 0.482820271080043 0.782705104143204 1.42580194990378 1.39402235992815 2.32699319665833 0.0281139700935678 -0.170308499809127 1.27542977370096 0.515043890342082 0.971323705649819 -1.47398002736472 -1.11406228051306 -0.284886824745819 2.03938666039449 1.31828541325921 1.1671473058206 -0.94414124575003 -0.711253412897866 -0.220664043411686 -3.23671458796132 4.73135701808973 1.10155644120159 1.95409575642755 -8.88349210167513 -6.52986974623129 1.56180218108539 1.49537005194691 1.06871935704241 -1.43858958197605 0.997502664504528 -4.16063386069149 -3.70769082134149 -0.286495820272363 -0.83268346710699 0.30311645095596 -2.5038837171577 0.746934392793564 -0.579765208321463 -0.450411532486092 1.69560566286162 0.858759581888415 -1.98993588752665 -0.891738333758549 0.522740997896918 4.27738296690505 -2.08402998705661 -2.6985369517745 1.28256252440365 -3.13131561078568 0.0975668867746112
0.45258179954259 -0.238418787113434 0.680056691707579 -0.394204932444163 0.084888012309847 0.258196216626516 0.233603370492045 0.431226227724949 0.0111395557978702 0.00852705922624674 -0.427975069458225 0.508900242514216 -0.697042418851338 0.0540443034011108 -1.20116015484762 -0.142352652478235 -1.17466700734902 0.925317695016667 -0.493887836026614 -0.265546482544199 1.31404798032968 0.0702291323241623 -0.214717856204528 -0.540408324136374 -1.2642519084858 1.24394431777493 2.54773771555736 -0.753362404484063 -1.18284182562427 -0.410350937729549 3.94708791270205 0.805735491694292 -1.2038528697964 -0.0746509132550531 -0.113044919804011 -0.913166410647855 1.5888663703009 -2.71563555028869 -1.16490607635354 1.45489319580374 0.191485122939252 -0.245809676440065 -0.490787601437436 0.377527994630442 1.6025708572865 0.275939904590386 -0.994451280850161 1.32043922526398 4.02637040879749 0.316635561499463 -0.480842322440589 -2.01055406733884 1.93771115289214 -1.14342734875814 -3.15377187129766 -0.403833708805476 1.34682592914673 0.0509306990824058 0.28897410532835 -0.585714223740637 0.528560429783753 -1.14284833662554 -1.6777524459597 0.303667180968402 0.733806346838728 -0.349347690109606 1.24512008264276 -1.27641887657578 -1.06347662329652 -1.87858635227075 0.682905986757941 -0.158513570154248 -3.02688568189058 -0.726755871394671 0.157483843870482 0.075831048995999 0.942620181906144 0.460213086890524 -0.76874890628824 2.59542316990726 0.874717896740056 0.88687895129583 0.190226825702609 -0.868918262337329
-0.0846846381549258 0.953636067705889 0.320678619130482 -0.914901647274358 0.588457075175149 0.433806585523671 -0.133422444484711 -0.885200021799452 0.107569244232132 -0.0252605612802741 0.447661996186816 -0.0690780500339194 -0.023732041241075 -0.259652745814415 0.204089949671251 0.464049685044422 -1.25596524728085 0.528957922126999 -0.562867927080729 -0.0559165797552651 0.331706074888471 -0.106249497661702 -0.932737894904184 -0.684974952402253 0.811661367196976 0.0453112989181107 -0.228658884558683 -1.93956851685567 -0.20882771901731 0.414869649199511 1.45570797797434 -4.02860752450163 0.795148722790329 1.78567804490576 -1.01841266437466 3.35200356544441 0.0448850102343442 -1.72360547603384 -1.97296738676517 -0.816422790679891 -0.271555661746244 -2.39837366838292 0.0965536155425702 0.690517733731951 1.44842173249228 -0.226648025815777 0.819728199195273 -0.496640971868455 -0.546689525912258 -0.0761645209036258 -0.48061118038588 -1.17357274640927 0.801503200968429 -1.02059321583849 2.5267714085571 -1.10678889054015 0.300160198069381 -0.437304826676462 -1.08703434383338 0.379015891260694 1.23704399467787 0.677128978051336 -0.613269750516267 1.13874254410982 0.400289959150256 1.56120568546033 -0.407321151330572 1.32431978925921 -0.456587061976676 -1.70917362433993 1.75561749361509 -1.48946063149595 1.33880383432031 2.01680390167237 -0.0475630699026869 1.14067549846721 -0.498802754288907 -2.22852616713229 -2.73792366074084 2.77558978836112 0.779386583008479 -0.194829612202482 0.112706562802903 1.23028431085103
-0.266599348744454 -0.00886515911717134 -0.101671650849601 0.00408882324363039 0.0570195824412472 -0.364251338989709 0.0839248775635325 -0.188198997687611 0.24212708728591 0.218877641858725 0.247063345693409 0.0455959198909271 1.00390830760909 -0.959246211903589 -0.245639983719144 0.876789947706567 0.563656741122826 -0.531426694106207 -0.384999616554601 -0.27581057816823 0.473585387519412 -0.476234650847235 0.840391887509888 0.127845981721012 0.196819902130731 -3.32096908077973 0.218424613715905 1.87943275899388 4.84385223632204 6.13665803042488 -2.00185371584911 -2.49486377771023 3.76615304902074 -1.92066114820258 2.18596414740327 -0.407699617520261 1.39855444112764 -0.0486907551662574 2.33132935989821 -0.216719458980838 -1.61689112316089 -3.20300744294214 0.28413143502754 0.37507567770296 0.242101376267589 -0.619578205971572 0.769976864523263 0.260510979605979 -1.04963843901565 -0.115308260746832 -1.40202697126211 0.576291649746261 1.1177924350511 -1.63663384279924 0.546771029840337 -0.680823137163735 -0.241721624526984 -2.29470375718939 -0.375243056432232 -1.83204323846486 0.357189550697591 2.16363361377089 -0.395316933986558 -2.38096499498777 -2.5102993875594 -1.3797658573792 1.05026707341361 2.00596645033978 -1.55670085794026 2.59619784288928 -5.5439681503035 2.65198843865477 1.84720554018928 0.872386421598684 -1.0370773210148 0.58314543590016 1.48726696741278 -1.72293184735382 -1.06394610649107 0.263610185754424 0.772988138989049 -0.827696300883215 0.345520862142669 -1.21139339724966
0.513338992717199 0.726269676038216 -1.22191074640416 -0.146827912327234 -0.228813664888977 -0.0280136971221149 1.60397416466647 1.27040815471264 0.724972555163908 -0.222037268900225 0.36368723924774 -0.407514755298531 -0.353088129054983 0.0193084605389018 0.072951929164384 -0.243744310338318 -0.688461623596799 0.381684694962441 -0.896909076653138 -0.100306138666559 -0.180738431501331 -0.239346697764649 1.12438936813197 -0.661895199695988 -1.97838366988473 -2.97973861626433 3.74900508535138 -0.652058935416823 1.22614123735874 0.945807576847431 1.36823986497596 -2.39157721779987 -0.261070194254467 -2.5768767839514 0.487234595815621 3.7305707994354 0.837371871297873 -1.30593126895584 1.74142706838322 2.08493270090987 -0.0876912846374142 -2.73759250282486 -0.467294672666749 -1.30335013982657 1.20875133300697 -0.239344383773 1.24377385372346 -1.97105680099372 0.0128364830070736 0.687590020075709 -0.566211130793043 -1.35412965812125 1.02912207483602 -0.997682127412411 1.55523044480247 -2.14279766163352 -0.200457497002823 -1.15936766589695 -0.640419043202421 -1.0328056924309 2.88782558241856 3.00605332929578 -3.47654053910748 0.637999893488573 0.314801851672791 1.63238458280128 -0.624929183104593 -1.03113241935856 0.773510072660971 1.98455380006146 -1.43631544240553 1.65695943122293 0.395156497232233 1.64819814461977 -0.215712358393195 -0.00680827765147033 -0.574621461996111 -1.42455727950685 -0.380740586369684 1.37894901832713 -0.559271984058318 -2.33957256948219 0.385228701727844 -0.674994449310305
0.0310601956830013 0.131585135115474 -0.115987288740697 0.171857074442617 -0.254833472540278 -0.135420961938823 -0.0600969342241192 -0.0685077796475538 0.143156121800775 0.259129012371211 0.284647455165248 0.224874222661793 0.24117552249784 -0.370549510037685 0.290688001809645 -0.409573693645698 0.1215529528767 0.399735886705433 -0.47050957839764 0.0326193118340026 -0.378574947296484 -0.283989253096223 0.153194731794129 -0.055886240753646 2.81393545819564 2.43217851527171 0.679945105888064 0.277047792369849 0.276146106957322 -3.46425401478229 1.50056239209689 -0.887946472776529 2.83607778717391 0.713221591350358 -0.818787175924715 0.482987392699132 0.36480206900215 -0.1788520140871 0.0753636226829185 -0.493525567778467 -0.369758896224306 3.30435384940998 -0.280399737828392 -0.135484468154076 -1.96290769373679 -0.533608531120949 0.362647742777012 -0.369640882650212 -0.447187113678422 0.175390796800691 -0.211540231450203 -1.06564354792064 0.0200142279918204 -0.363976488203854 0.412760060146252 -0.0595793714253122 -0.272000976583568 -2.78286652076641 -0.259413119123661 -1.3180221324316 -0.582473349881242 -1.89224481653355 0.419680952057969 0.25930179041433 0.460489223227294 0.138896320285308 -0.136506481132347 0.0688237680627221 0.0829144345435069 -0.0760087121325989 0.251331631844922 0.362035306320599 0.308437346197546 0.789021272904005 -0.590503929343705 0.155551917953822 0.122527914691443 0.141818377517519 0.342550468196014 -0.458173688917281 -0.0634236828847073 -0.229002897983822 0.0719607694080994 -0.280388167870147
0.398886137549915 -0.478707279479191 -1.11322512975652 -0.049063822042099 0.360823546027118 0.0808022743884151 -0.116595611434178 0.442921141518558 0.341099081211778 0.164291607301585 0.0359000377717957 -0.216737456693663 0.661739390924961 0.00727673240528374 -1.03605582225689 0.883700040990589 -0.112407543659827 -0.0269682871171723 -0.323489090543179 0.510135142724186 -0.573843703691893 -0.407113920522902 -0.675396312526667 -0.525971073128618 -3.29786284572459 -0.454082037461635 -1.5992932166709 -1.81990660937649 1.06860185768868 -4.37720008200314 0.537115771130153 -1.17266900411527 -0.319629095362608 -1.35271426656266 -3.78997276483429 -0.109578046093572 -0.317562443709945 0.155550889513089 1.80928075972468 -0.432557287143441 -0.463704643178551 2.03840989880846 -0.0545675226239484 -0.00278270351291025 0.394745635159459 -1.36737443209927 1.5163587275331 0.317359069555024 0.589100879073914 -0.18690239103367 -0.344412203032656 0.22793357673184 1.02673223568306 0.0697635057823643 1.81549459863257 -0.728030366572856 -0.15045702256328 2.72706204105102 -1.91533511075733 1.53940557013592 1.61805274696864 0.299001659583825 -0.382244938051661 0.353253450902789 2.18038177110536 1.75902471776303 -0.786168121200895 4.48699487198116 1.21934452966551 -0.053136447344187 -0.620891781897605 0.996407118013859 -0.645778247861305 -1.92722902783274 -0.264438851874919 1.40122658726177 3.03001265593881 0.656421066785208 -0.190521731082754 0.113959974946065 -0.815060620929231 -0.163444686358083 -2.70654079177791 0.633052836453379
-0.0879669067538182 0.402440171612463 0.030635449660334 0.278765802614076 -0.0172698338962089 0.610120407882096 -0.18992754944935 -0.758337486529228 0.0715038846125305 0.0305380049008964 -0.224780377444921 -1.13772181668247 0.093674238600772 -0.338623367257624 0.142342110960724 -0.159493417062471 1.45544598269765 -0.708494363521811 0.850687864796638 1.0425465688321 1.14809672679546 -0.251890589383226 -0.399065600457798 -1.23690515517893 1.26477307082717 -5.48451013488466 2.37377130917167 -2.73714281711442 1.57605508409178 -1.85757993608191 1.88358843088515 3.47088308663607 -3.77178350492292 -1.10933942355762 -1.27877477718456 -1.42459121805104 -0.238651471829242 0.932209019257315 -1.19539651587054 1.03065445152796 -0.159352777792254 -0.560132274731347 0.814137338261314 -1.3387182166293 0.804833806281765 -0.121459878990377 -0.843633018479466 -1.61172989334308 -0.37518289264936 0.715759268858667 1.08743543571919 -1.43060296835491 -0.848478002771925 0.214438891655742 -0.474999750637265 0.051588644041247 0.347368970139601 -2.58505468754884 1.56409946057239 -0.655446876301016 0.927590291926084 1.29501565612755 -0.623045593902377 1.24218079902827 0.235462277116672 1.48810000440639 -0.507244452934327 1.43747218111981 2.21454991468303 -1.07664812087232 0.147457832276105 -0.730286251320364 -0.60928762799867 -3.27073052231053 1.27758744235848 2.16219431096526 2.06058205256799 2.05913092269393 0.464263343606672 1.5034461399118 0.615744436029688 0.911844092975593 -2.92818905297093 1.02745368685715
-0.0413741706825758 -0.354067718853023 0.300327062578287 0.112668510495788 0.264050101277901 0.292099536715482 -0.0270194520436316 0.143219885126211 -0.0161506332686843 -0.0144809597389015 -0.180012609454121 0.0157598257902011 -0.415585443949575 -0.00247879927635293 0.0465587975270584 0.515577908192614 0.384566128785705 -0.178992139136951 -0.206798862561579 -0.605497566787932 -0.506922036764578 -0.0891267307902903 0.504484118007356 0.193527092014327 -0.272858696154766 -0.733827429873751 -2.08337667008107 1.06505965069456 -1.63690869358509 -2.8388545771526 -2.59624386561207 -0.61230558732922 0.447835545560485 5.36008860369386 2.02817948461843 -2.21118125706258 0.207821646870399 0.134495879499624 2.24641177991729 -0.266192600434612 0.0058016912841929 3.56474810099278 0.979438617252376 0.150061844211683 1.11551778126022 -0.451732821717622 -0.349868081120428 0.613536373776258 -3.58426584922082 -0.156666747708232 1.44292677365666 -0.301499227903553 0.246688993266652 -0.242294980235548 -0.20265733173039 0.0631555169636166 -0.286405831708239 0.621689594796114 0.4119108252111 -0.133240410474997 -0.316157593668871 0.252523080433929 -0.218323826524085 -0.0192043309147007 0.0374882073735001 0.0741346360071621 1.11299733013419 -0.88648917225808 -0.424175752280892 -0.391691937513443 0.508276750319925 0.433108531376249 0.826214574897361 0.889768355534774 -0.731232673904769 -0.973190582690125 -1.7503395357741 -0.14113497865054 0.0274236292516419 -0.214149899809811 -0.0654785074689426 -0.658900123171745 1.45794123702573 -0.708727562457985