9.500076205 0.023213215 0.008497402 0.013871984 7.006742722 -0.075149045 0.004039457 -0.059780149 5.186212504
9.478577104 0.041607767 -0.005774299 0.024864382 7.360281731 -0.027144502 -0.002744960 -0.021593120 5.175787637
8.862572250 0.359255055 0.060933076 0.214687200 9.282096030 -0.130167585 0.028966091 -0.103546727 5.352740008
9.384891613 0.170542680 -0.016596586 0.101914587 8.643758785 0.147307872 -0.007889610 0.117181615 5.276485152
8.620933197 0.447896620 0.228318226 0.267658506 9.222658775 0.053092940 0.108536890 0.042234786 5.424860506
10.169469270 -0.023241558 0.049901671 -0.013888921 6.131150190 0.078466108 0.023722032 0.062418832 5.070204864
9.490345737 0.090046643 -0.040521361 0.053810966 7.941092893 0.095410062 -0.019262862 0.075897541 5.210250105
8.721471314 0.415835637 0.037594348 0.248499186 9.381170142 0.018985661 0.017871432 0.015102862 5.435159280
8.571753650 0.412746620 0.266200588 0.246653220 9.196283547 -0.005572373 0.126545236 -0.004432755 5.468080506
8.512101897 0.329444551 0.121378839 0.196872743 9.382886812 -0.287257899 0.057700525 -0.228510155 5.418809713
9.318583532 0.176619371 0.194078763 0.105545956 8.836761713 0.152204394 0.092260288 0.121076739 5.322687466
9.035632020 0.356475118 0.195995054 0.213025938 9.200721669 -0.067940935 0.093171246 -0.054046185 5.313872577
8.554221817 0.344689466 0.250885331 0.205982951 9.297602122 -0.131068140 0.119264738 -0.104263107 5.551914955
8.461890325 -0.087846659 0.204596795 -0.052496278 8.737035195 0.202907437 0.097260302 0.161410392 5.441997917
9.275790369 0.185661644 0.290275658 0.110949527 8.866420715 0.143488484 0.137989934 0.114143339 5.353283067
9.498689144 0.076295401 -0.051316643 0.045593362 7.885071228 0.087203134 -0.024394674 0.069369030 5.214424102
8.702401412 0.347727954 0.056834417 0.207798721 9.371511943 -0.389100883 0.027017689 -0.309525006 5.397401621
9.414520610 0.170662486 -0.022577416 0.101986181 8.460840882 0.148565106 -0.010732750 0.118181729 5.271389183
9.066450804 0.339501491 0.244385881 0.202882669 9.164323376 -0.060755373 0.116175059 -0.048330158 5.304045854
8.481682184 0.143349868 -0.092665138 0.085664437 9.030656080 0.040774841 -0.044050736 0.032435888 5.334845175
9.486645659 0.029046354 0.014921435 0.017357809 7.057369005 -0.069479407 0.007093285 -0.055270021 5.181998646
9.095236167 0.314789047 0.295654746 0.188114762 9.115237527 -0.041454494 0.140547021 -0.032976545 5.298156934
9.508683790 0.061737935 -0.056955745 0.036893968 7.761495972 0.065862332 -0.027075365 0.052392682 5.215038693
8.707492133 0.443426265 0.097424238 0.264987067 9.354365999 0.043254048 0.046313095 0.034408068 5.463270507
8.670254605 0.347451217 0.074013536 0.207633346 9.391735870 -0.403065887 0.035184221 -0.320633997 5.442475013
9.268905821 0.187690801 0.302901822 0.112162131 8.870654573 0.140723625 0.143992103 0.111943927 5.356195921
9.247936544 0.196107349 0.337880946 0.117191775 8.884859983 0.129395475 0.160620321 0.102932522 5.361762816
8.774198099 0.350618509 0.046012772 0.209526087 9.315509142 -0.256754900 0.021873344 -0.204245391 5.342094999
8.709409356 0.441506385 0.092554764 0.263839766 9.357529925 0.041651541 0.043998267 0.033133293 5.461658785
8.949670733 0.361314949 0.091411711 0.215918172 9.254444972 -0.083651481 0.043454887 -0.066543733 5.345535285
9.713658882 -0.063373420 -0.013992788 -0.037871317 6.535207308 -0.052971365 -0.006651828 -0.042138075 5.147582774
9.496527197 0.044634270 -0.033241400 0.026672990 7.548202790 0.017925156 -0.015802147 0.014259243 5.195070578
8.640801726 0.345320873 0.086213686 0.206360273 9.405308913 -0.402055541 0.040983874 -0.319830279 5.474765802
9.356240389 0.171185092 0.072299987 0.102298486 8.785946553 0.149128319 0.034369642 0.118629759 5.300032585
8.704957806 0.298261764 -0.241540629 0.178238224 9.120845842 -0.146079219 -0.114822496 -0.116204237 5.107052023
8.613646142 0.338903546 0.089351900 0.202525344 9.408397569 -0.385506689 0.042475704 -0.306665869 5.486894085
9.552140256 -0.010355304 -0.005546568 -0.006188225 6.867771682 -0.092508848 -0.002636702 -0.073589660 5.186046329
8.457599936 -0.084841520 0.203738585 -0.050700438 8.752206464 0.194398102 0.096852330 0.154641319 5.427609584
9.132368303 0.279481430 0.359157301 0.167015286 9.034736956 0.007970583 0.170734579 0.006340502 5.316787317
9.507432803 0.065318857 -0.058608558 0.039033890 7.800035979 0.073203131 -0.027861072 0.058232198 5.217313711
9.602858197 -0.037465911 -0.024121398 -0.022389251 6.755212983 -0.099551469 -0.011466722 -0.079191979 5.179668468
8.451112217 0.017147003 0.088830317 0.010246876 8.901748410 0.079816083 0.042227756 0.063492721 5.341952125
9.383780248 0.170643590 -0.014498484 0.101974890 8.651887139 0.147301447 -0.006892224 0.117176504 5.277028687
8.458983791 -0.085955589 0.204008485 -0.051366194 8.747153550 0.197352877 0.096980634 0.156991807 5.432396934
9.875895750 -0.069783332 0.055557765 -0.041701816 6.291116532 0.037321488 0.026410800 0.029688788 5.155452333
9.368311336 0.171790387 0.032557250 0.102660204 8.749892010 0.148134864 0.015476919 0.117839478 5.292169562
9.375993592 0.171724429 0.006470880 0.102620788 8.708951714 0.147651659 0.003076098 0.117455094 5.284115560
9.617331991 -0.042516893 -0.028642780 -0.025407667 6.726541038 -0.098004763 -0.013616076 -0.077961593 5.176330772
9.453506469 0.149830868 -0.002415256 0.089537417 8.181366060 0.127778576 -0.001148153 0.101646298 5.247739838
8.646503256 0.331102907 -0.263910684 0.197863760 9.125937727 -0.092988264 -0.125456672 -0.073971030 5.100523799
10.068452045 -0.040665775 0.073985395 -0.024301457 6.165830689 0.079251326 0.035170844 0.063043463 5.125607339
9.378823063 0.171352728 -0.002323984 0.102398663 8.689008255 0.147461657 -0.001104765 0.117303949 5.280980304
8.973623815 0.362348357 0.109545148 0.216535726 9.245150135 -0.077702815 0.052075079 -0.061811641 5.339102293
9.026473353 0.359514161 0.180902473 0.214842039 9.209889447 -0.069210093 0.085996603 -0.055055784 5.317478273
9.537004915 0.000139604 -0.001685847 0.000083426 6.904966001 -0.087864108 -0.000801410 -0.069894826 5.187207241
8.540504033 0.283189279 -0.247728963 0.169231059 9.130066844 -0.006835907 -0.117764278 -0.005437881 5.197600504
9.478511840 0.117082439 -0.026384480 0.069967285 8.023227046 0.107332016 -0.012542535 0.085381310 5.216474294
9.218381754 0.215327353 0.372248940 0.128677456 8.912348046 0.104880738 0.176958024 0.083431347 5.361654738
8.656338177 0.454960598 0.178472800 0.271879868 9.278346264 0.061129580 0.084841595 0.048627836 5.451513494
8.698634289 0.449636329 0.115820649 0.268698139 9.340743257 0.048875602 0.055058298 0.038879945 5.467675890
8.722052127 0.311321683 -0.184920674 0.186042700 9.318086949 -0.101606641 -0.087906757 -0.080826844 5.255407901
8.580613428 0.331642704 0.093412388 0.198186337 9.399809297 -0.359165639 0.044405960 -0.285711885 5.471800834
9.494497314 0.025812458 0.010940024 0.015425265 7.025922674 -0.072965411 0.005200619 -0.058043094 5.184858088
8.454956342 -0.082286704 0.203192275 -0.049173705 8.762212872 0.188101366 0.096592628 0.149632342 5.418145585
8.659267382 0.455201976 0.174186385 0.272024113 9.283025062 0.060858132 0.082803939 0.048411901 5.453976484
10.304852147 0.005709212 0.012331363 0.003411767 6.144731831 0.045952775 0.005862028 0.036554872 4.982688349
9.295266143 0.181159833 0.251270760 0.108259290 8.854334737 0.149187379 0.119447961 0.118676741 5.341890789
8.723545714 0.322054148 -0.159342223 0.192456313 9.337259687 -0.089809358 -0.075747388 -0.071442249 5.273899337
9.505292554 0.051702789 -0.044971443 0.030897065 7.653899532 0.042880507 -0.021378322 0.034110920 5.204328687
8.549995211 0.339693171 0.245784314 0.202997216 9.313015179 -0.144022746 0.116839840 -0.114568338 5.546357496
9.642166273 -0.049395797 -0.032811270 -0.029518430 6.678973160 -0.091635033 -0.015597674 -0.072894551 5.168900937
9.092963057 0.317069312 0.291058746 0.189477425 9.120001862 -0.043767406 0.138362195 -0.034816438 5.298279440
8.720269945 0.288911825 -0.239333920 0.172650795 9.144717783 -0.150237264 -0.113773480 -0.119511911 5.123857225
9.476807708 0.032773556 0.020323261 0.019585147 7.113141508 -0.063359933 0.009661180 -0.050402054 5.176054444
10.315559374 0.006789546 0.008798594 0.004057364 6.151059927 0.042144050 0.004182636 0.033525078 4.975236376
9.914486537 -0.067225336 0.071438051 -0.040173183 6.253925756 0.051351749 0.033959899 0.040849690 5.154008967
9.477585813 0.041383304 -0.003446569 0.024730246 7.348647328 -0.029519921 -0.001638415 -0.023482737 5.174571727
9.471666499 0.035459927 0.021591669 0.021190495 7.172320782 -0.056617004 0.010264150 -0.045038136 5.170573658
9.367006208 0.171714436 0.036959823 0.102614816 8.755049205 0.148214872 0.017569794 0.117903123 5.293275555
8.717019226 0.429940762 0.066425271 0.256928266 9.371438107 0.032015445 0.031576946 0.025467896 5.450765876
8.717936424 0.347617231 0.049417444 0.207732554 9.360262633 -0.374911277 0.023491842 -0.298237348 5.374261093
8.563380111 0.369921060 0.268576605 0.221061097 9.244077820 -0.081001184 0.127674736 -0.064435454 5.542404584
9.097457483 0.312518270 0.300225117 0.186757768 9.110429506 -0.039039696 0.142719663 -0.031055602 5.298160163
8.676878214 0.455289763 0.149258175 0.272076574 9.309639353 0.057292912 0.070953679 0.045575813 5.465351149
9.690074303 -0.059411924 -0.024288460 -0.035503967 6.584446508 -0.067921068 -0.011546139 -0.054030381 5.152293925
10.403690325 0.000134524 -0.000512865 0.000080390 6.216678682 0.000678951 -0.000243804 0.000540097 4.946019960
9.322834533 0.175721691 0.181707834 0.105009511 8.832837066 0.152271952 0.086379451 0.121130480 5.319000942
9.365639933 0.171627698 0.041531676 0.102562982 8.760022884 0.148303586 0.019743141 0.117973694 5.294350830
8.800885730 0.354060666 0.048481698 0.211583085 9.302436053 -0.210193827 0.023047011 -0.167206626 5.348345820
8.744397125 0.347794423 0.044067238 0.207838442 9.337264816 -0.325203551 0.020948485 -0.258695458 5.342759838
8.728262207 0.347533750 0.045739844 0.207682666 9.351931323 -0.360543009 0.021743601 -0.286807566 5.359428112
10.287730534 0.003228914 0.017984972 0.001929566 6.136204318 0.051750494 0.008549615 0.041166887 4.994514096
8.721817310 0.301360045 -0.208277708 0.180089726 9.290377027 -0.115004377 -0.099010118 -0.091484579 5.234186413
9.314040813 0.177540004 0.206537304 0.106096117 8.840659027 0.151959405 0.098182773 0.120881854 5.326704127
8.509812605 0.329190304 0.125449358 0.196720808 9.381189573 -0.279619364 0.059635550 -0.222433794 5.419632603
8.444102004 -0.013952394 0.133116171 -0.008337810 8.865048663 0.094618542 0.063280165 0.075267896 5.343236734
8.477846154 0.127157135 -0.068611390 0.075987822 9.017403346 0.045275944 -0.032616173 0.036016462 5.340974554
8.565907555 0.398112903 0.270505980 0.237908258 9.207251151 -0.029472999 0.128591914 -0.023445411 5.495694442
8.527834231 0.330071022 0.110124174 0.197247116 9.387903391 -0.315491887 0.052350334 -0.250969948 5.427521572
9.484332596 0.029928577 0.016191058 0.017885016 7.068161649 -0.068296304 0.007696832 -0.054328877 5.180894056
9.121689848 0.288269603 0.346154770 0.172267010 9.055494268 -0.006383978 0.164553495 -0.005078377 5.308540306
9.416243257 0.170323064 -0.021009284 0.101783346 8.449871332 0.148419142 -0.009987299 0.118065617 5.270657158
8.510874145 0.329312938 0.123325207 0.196794093 9.382063688 -0.283451433 0.058625781 -0.225482158 5.419065557
10.400878053 0.000580439 -0.001261291 0.000346864 6.214603897 0.001845143 -0.000599587 0.001467789 4.944952889
8.561389725 0.360183553 0.263033261 0.215242061 9.261820051 -0.099702619 0.125039566 -0.079312218 5.551260803
8.522077506 0.332827170 0.202176929 0.198894163 9.358227914 -0.204915061 0.096109958 -0.163007431 5.483504040
8.634905962 0.344338080 0.087570934 0.205772966 9.406988578 -0.399793512 0.041629076 -0.318030862 5.479405100
8.682637006 0.454623300 0.141098217 0.271678302 9.317882598 0.055520605 0.067074635 0.044165964 5.467408009
8.561466201 0.306148128 -0.264823957 0.182951036 9.135274099 -0.028194938 -0.125890819 -0.022428729 5.162106837
8.623959091 0.448844756 0.224681242 0.268225102 9.226825934 0.054718170 0.106807956 0.043527637 5.426054368
9.101782082 0.308012019 0.309260880 0.184064878 9.100699056 -0.033915599 0.147015043 -0.026979445 5.298586274
9.990719751 -0.054433058 0.083043651 -0.032528647 6.201172339 0.068979947 0.039476917 0.054872707 5.147963656
8.583442742 0.426893752 0.259649759 0.255107403 9.192853451 0.017061861 0.123431133 0.013572502 5.443191301
8.724907611 0.293612016 -0.224197492 0.175459582 9.252400466 -0.129422127 -0.106577993 -0.102953724 5.206471798
10.4063000000 0.0000000000 0.0000000000 0.0000000000 6.2187000000 0.0000000000 0.0000000000 0.0000000000 4.9469000000
8.650498303 0.454326754 0.187144087 0.271501089 9.268845220 0.061325698 0.088963713 0.048783845 5.446341339
8.538535971 0.334176967 0.232708721 0.199700787 9.340491723 -0.171728445 0.110624023 -0.136607884 5.523649448
9.405735924 0.171315604 -0.027943832 0.102376479 8.513834580 0.148568954 -0.013283813 0.118184791 5.273864513
8.602826094 0.335921752 0.089923383 0.200743453 9.406269461 -0.376462844 0.042747373 -0.299471601 5.484285241
10.094096441 -0.036494012 0.068487843 -0.021808454 6.156014241 0.080824426 0.032557442 0.064294845 5.113692404
10.399750278 0.000811414 -0.001589652 0.000484893 6.213794926 0.002401133 -0.000755681 0.001910072 4.944532123
8.587366351 0.332653829 0.092032731 0.198790576 9.401833471 -0.364198770 0.043750105 -0.289715680 5.476230786
9.479693727 0.114345458 -0.027632550 0.068331693 8.014933557 0.106143216 -0.013135837 0.084435634 5.215034941
8.518687756 0.329918952 0.115033922 0.197156241 9.385691058 -0.302017550 0.054684307 -0.240251278 5.420891057
8.561912915 0.362095772 0.264279326 0.216384784 9.258105516 -0.096034679 0.125631915 -0.076394416 5.549966838
9.480869942 0.111566052 -0.028908147 0.066670748 8.006648962 0.104948824 -0.013742225 0.083485509 5.213754175
8.450136082 -0.075925782 0.201583003 -0.045372482 8.781378688 0.173926049 0.095827620 0.138356050 5.400076239
9.001034287 0.362978457 0.140805950 0.216912268 9.230562929 -0.072704715 0.066935698 -0.057835714 5.328646794
9.014146526 0.362006669 0.160618428 0.216331537 9.220874975 -0.070839493 0.076354064 -0.056351953 5.322814277
8.879543535 0.359744828 0.064768122 0.214979883 9.276840872 -0.116096240 0.030789178 -0.092353143 5.352511787
9.493084892 0.043470911 -0.029402270 0.025977779 7.512379053 0.009020830 -0.013977119 0.007175960 5.191967804
8.673960455 0.455471740 0.153342440 0.272185322 9.305397191 0.058083569 0.072895238 0.046204771 5.463964296
8.533224058 0.272419994 -0.239456936 0.162795443 9.125580307 0.000311719 -0.113831959 0.000247969 5.213327055
9.316352145 0.177076676 0.200293929 0.105819237 8.838712035 0.152106155 0.095214826 0.120998591 5.324659544
9.372965962 0.171902188 0.016652567 0.102727015 8.727495706 0.147855754 0.007916222 0.117617449 5.287555139
9.508392610 0.057882454 -0.053025972 0.034589971 7.720379135 0.057434896 -0.025207248 0.045688759 5.211189735
8.804384658 0.354508719 0.048966895 0.211850838 9.301028872 -0.204673782 0.023277662 -0.162815497 5.349052660
8.722547021 0.409737329 0.025512195 0.244854898 9.383641803 0.012745646 0.012127872 0.010139006 5.427546249
9.627256248 -0.045493411 -0.030932775 -0.027186404 6.707394322 -0.096012228 -0.014704683 -0.076376556 5.173603077
9.472303296 0.034968011 0.021784567 0.020896531 7.160436520 -0.058013606 0.010355849 -0.046149116 5.171490792
10.330998060 0.007672579 0.003950182 0.004585056 6.161374978 0.036372330 0.001877819 0.028933745 4.964696344
9.112445595 0.296967615 0.330788334 0.177464854 9.075845079 -0.019487570 0.157248667 -0.015502124 5.302457092
9.500817951 0.047165410 -0.038233672 0.028185573 7.595506002 0.029364254 -0.018175351 0.023358906 5.199015956
9.483216568 0.105955082 -0.031566151 0.063317689 7.990120041 0.102550867 -0.015005775 0.081577964 5.211728597
8.908417232 0.360294007 0.072582632 0.215308067 9.267835644 -0.098929606 0.034504005 -0.078697295 5.351242671
8.626011998 0.331433637 -0.271853664 0.198061401 9.131627321 -0.077557805 -0.129232570 -0.061696288 5.110237799
8.752812762 0.348338932 0.044644508 0.208163835 9.330049560 -0.303743677 0.021222905 -0.241624390 5.339927674
8.723879220 0.324424499 -0.153728118 0.193872811 9.340682087 -0.087339651 -0.073078580 -0.069477627 5.277914715
9.533329265 0.002708829 -0.000852251 0.001618769 6.914223007 -0.086666855 -0.000405139 -0.068942426 5.187439969
8.740474989 0.347645200 0.043993291 0.207749268 9.340874379 -0.335077982 0.020913332 -0.266550448 5.345500776
9.388518137 0.170413572 -0.022032292 0.101837433 8.618376449 0.147417294 -0.010473612 0.117268659 5.275386412
8.637811695 0.344854036 0.086957570 0.206081296 9.406216466 -0.401006948 0.041337498 -0.318996136 5.477219109
9.473473507 0.127711014 -0.021313903 0.076318815 8.057827926 0.112192750 -0.010132107 0.089247964 5.223684581
8.467454896 0.081296067 -0.000992035 0.048581711 8.975595781 0.058973482 -0.000471589 0.046912685 5.347314134
9.694841030 -0.060278880 -0.022379951 -0.036022051 6.574552618 -0.064981988 -0.010638880 -0.051692378 5.150999857
8.969045235 0.362139140 0.105525878 0.216410700 9.247094789 -0.078715510 0.050164416 -0.062617228 5.340529686
10.228565007 -0.009849385 0.035167355 -0.005885893 6.122753154 0.068534259 0.016717699 0.054518167 5.033439411
8.707044261 0.296709626 -0.241403330 0.177310682 9.123027703 -0.147112630 -0.114757227 -0.117026303 5.108732692
8.543942367 0.335704070 0.239239969 0.200613369 9.329825511 -0.159603323 0.113728818 -0.126962497 5.535270857
8.609103555 0.328846121 -0.275418190 0.196515128 9.134470606 -0.065701659 -0.130927058 -0.052264869 5.120060910
9.839898369 -0.069555328 0.038313395 -0.041565563 6.331551190 0.020770175 0.018213249 0.016522421 5.156853945
9.029520277 0.358616667 0.185957513 0.214305706 9.206924204 -0.068801118 0.088399645 -0.054730450 5.316238512
9.489585341 0.042824378 -0.025142081 0.025591417 7.476574165 0.000043007 -0.011951929 0.000034211 5.188572206
8.576883238 0.420003376 0.263297859 0.250989784 9.193396803 0.005995276 0.125165350 0.004769169 5.454930978
9.489143104 0.092502164 -0.038941164 0.055278361 7.949190905 0.096587524 -0.018511675 0.076834197 5.210046770
10.221475521 -0.011579072 0.036977536 -0.006919537 6.122782071 0.070112932 0.017578214 0.055773982 5.037921916
9.456450002 0.147986631 -0.004936796 0.088435319 8.163360300 0.125684909 -0.002346832 0.099980812 5.245324749
10.358774436 0.007280856 -0.002967537 0.004350966 6.182488066 0.024803888 -0.001410694 0.019731191 4.948461188
9.381714479 0.170902941 -0.009991871 0.102129875 8.667325369 0.147330713 -0.004749891 0.117199785 5.278367766
8.614844482 0.445737368 0.235086623 0.266368159 9.214926926 0.049282577 0.111754419 0.039203689 5.423514763
8.765386467 0.349577696 0.045496979 0.208904108 9.320940344 -0.274692232 0.021628149 -0.218514320 5.340389473
9.272358829 0.186636125 0.296635937 0.111531868 8.868519099 0.142164130 0.141013455 0.113089832 5.354805774
10.242477764 -0.006454712 0.031496903 -0.003857271 6.123676889 0.065137148 0.014972856 0.051815807 5.024543972
9.386048339 0.170468917 -0.018555195 0.101870507 8.635466765 0.147329230 -0.008820685 0.117198605 5.276033702
8.515058698 0.329705430 0.117956100 0.197028642 9.384381376 -0.294750692 0.056073439 -0.234470580 5.419235400
8.599916503 0.335206230 0.090196968 0.200315865 9.405505118 -0.374070677 0.042877428 -0.297568661 5.483062918
9.403979857 0.171282876 -0.028440797 0.102356920 8.524080867 0.148474053 -0.013520058 0.118109298 5.274136181
9.400537168 0.171119611 -0.028799510 0.102259355 8.544129950 0.148242764 -0.013690581 0.117925310 5.274501482
8.441251015 -0.045556254 0.177299054 -0.027223958 8.830330339 0.122569066 0.084283625 0.097502197 5.356684958
8.771162521 0.350249473 0.045831944 0.209305555 9.317306144 -0.262741751 0.021787383 -0.209007859 5.341443363
8.452467854 -0.079310254 0.202528136 -0.047395008 8.771975262 0.181272088 0.096276912 0.144199735 5.408932825
9.888412782 -0.069346866 0.061258056 -0.041440988 6.278296331 0.042333187 0.029120579 0.033675534 5.154914511
9.506882400 0.066208826 -0.058592252 0.039565727 7.809252200 0.074865696 -0.027853321 0.059554748 5.217561127
9.508516050 0.062652231 -0.057614219 0.037440342 7.771396821 0.067805134 -0.027388388 0.053938157 5.215786194
8.797403822 0.353608947 0.048038872 0.211313143 9.303897827 -0.215796138 0.022836503 -0.171663196 5.347593910
9.505513864 0.068054557 -0.058029050 0.040668717 7.827254439 0.078005507 -0.027585588 0.062052429 5.217648884
9.361179803 0.171356520 0.056232607 0.102400930 8.773823933 0.148644926 0.026731603 0.118245225 5.297360168
10.256071111 -0.003231371 0.027711136 -0.001931035 6.125889572 0.061461589 0.013173195 0.048891944 5.015711426
8.516211323 0.331833818 0.186926495 0.198300545 9.362537346 -0.217381434 0.088860275 -0.172924279 5.467751892
9.928175792 -0.065469328 0.075550681 -0.039123810 6.242490815 0.055341250 0.035914942 0.044023290 5.153537387
8.821988931 0.356572150 0.051983923 0.213083923 9.294701441 -0.178453154 0.024711883 -0.141957307 5.351663231
9.279187777 0.184761606 0.283843852 0.110411674 8.864354038 0.144699359 0.134932411 0.115106575 5.351634953
9.489116621 0.028073424 0.013607749 0.016776395 7.046740230 -0.070649247 0.006468790 -0.056200614 5.183033751
8.729183051 0.288018907 -0.232270279 0.172117196 9.201806742 -0.143061363 -0.110415599 -0.113803570 5.166938517
8.679773262 0.455009848 0.145180691 0.271909299 9.313800983 0.056437104 0.069015342 0.044895028 5.466501508
8.728074080 0.286793517 -0.235287289 0.171384915 9.175629152 -0.147650646 -0.111849811 -0.117454288 5.146359753
8.596668691 0.325353659 -0.275850710 0.194428067 9.135592203 -0.056956695 -0.131132667 -0.045308356 5.128357475
9.332597194 0.173634771 0.150835029 0.103762389 8.822614800 0.151857006 0.071703276 0.120800396 5.311548086
8.653104387 0.346639561 0.082013079 0.207148308 9.400507201 -0.404328818 0.038987008 -0.321638643 5.462809521
9.810952607 -0.068820661 0.025545512 -0.041126533 6.368038809 0.005709914 0.012143711 0.004542167 5.156442133
9.508728676 0.059852713 -0.055221470 0.035767378 7.741249343 0.061779943 -0.026250934 0.049145191 5.213259908
9.419592433 0.169415202 -0.017553295 0.101240817 8.427785354 0.147935950 -0.008344406 0.117681244 5.268992708
9.394144016 0.170656325 -0.026993860 0.101982500 8.582239468 0.147761022 -0.012832220 0.117542091 5.274830858
8.456258206 -0.083617829 0.203471282 -0.049969172 8.757232024 0.191315691 0.096725261 0.152189299 5.422853687
8.446049293 -0.068002611 0.198114717 -0.040637675 8.798740597 0.158024391 0.094178882 0.125706475 5.383793827
8.447750697 0.003380436 0.108242013 0.002020115 8.885198838 0.085527747 0.051455600 0.068036280 5.341690131
8.793945868 0.353157085 0.047638500 0.211043115 9.305414680 -0.221475496 0.022646176 -0.176181056 5.346807616
10.214343730 -0.013301292 0.038770371 -0.007948718 6.123129775 0.071594615 0.018430484 0.056952643 5.042402458
9.108141918 0.301350226 0.322414842 0.180083858 9.085867166 -0.025527505 0.153268115 -0.020306819 5.300402999
9.788532539 -0.068353272 0.016747461 -0.040847227 6.399514872 -0.006765336 0.007961333 -0.005381742 5.154522084
8.578920448 0.422353800 0.262180417 0.252394374 9.192933607 0.009750865 0.124634145 0.007756695 5.450823584
9.391220809 0.170483255 -0.024873805 0.101879075 8.600589006 0.147563911 -0.011824397 0.117385292 5.275019250
9.402244081 0.171214491 -0.028726818 0.102316054 8.534182473 0.148363287 -0.013656025 0.118021185 5.274345466
8.850891781 0.358764501 0.058297552 0.214394050 9.285671681 -0.141975487 0.027713227 -0.112939768 5.352783207
8.722975123 0.406626248 0.019392324 0.242995748 9.384552479 0.009419442 0.009218635 0.007493052 5.423442598
9.486755581 0.097694811 -0.035869935 0.058381434 7.965480102 0.098959784 -0.017051688 0.078721301 5.210147427
8.725581477 0.339847311 -0.117879205 0.203089328 9.358638823 -0.071154503 -0.056036885 -0.056602540 5.305286643
9.474766641 0.125173036 -0.022590110 0.074802145 8.049091373 0.110982949 -0.010738785 0.088285583 5.221731639
8.545218293 0.336300285 0.240632615 0.200969661 9.326753367 -0.156536144 0.114390848 -0.124522593 5.537814492
8.507224783 0.221935382 -0.193838898 0.132626348 9.092972301 0.020863617 -0.092146262 0.016596753 5.276890383
9.362724883 0.171443139 0.051172205 0.102452692 8.769411222 0.148516647 0.024326012 0.118143181 5.296395056
9.652025603 -0.051695448 -0.032891872 -0.030892679 6.660145736 -0.087868712 -0.015635990 -0.069898488 5.165474170
9.485012643 0.042403514 -0.018415103 0.025339912 7.429681525 -0.011502647 -0.008754089 -0.009150215 5.183587272
8.608745948 0.443199381 0.241134750 0.264851483 9.208159251 0.044749497 0.114629551 0.035597679 5.423692012
9.285831929 0.183160317 0.270847438 0.109454759 8.860296087 0.146794760 0.128754234 0.116773441 5.348000933
10.401912117 0.000391387 -0.000970904 0.000233889 6.215356104 0.001376033 -0.000461544 0.001094617 4.945346272
9.834056307 -0.069409401 0.035604603 -0.041478358 6.338604536 0.017836992 0.016925556 0.014189110 5.156933973
8.629306337 0.343162841 0.088446315 0.205070655 9.408128780 -0.396899437 0.042045210 -0.315728662 5.482964532
8.564104827 0.380132235 0.271690554 0.227163192 9.228359773 -0.061519577 0.129155031 -0.048938074 5.527968719
8.616239570 0.339658307 0.089275333 0.202976381 9.408665510 -0.387629251 0.042439306 -0.308354341 5.486930153
8.466256320 0.076262620 0.006208011 0.045573773 8.970401380 0.060511321 0.002951136 0.048136018 5.347175837
9.119267261 0.290443200 0.342513788 0.173565929 9.060620793 -0.009783756 0.162822661 -0.007782859 5.306788093
9.656909576 -0.052773650 -0.032569754 -0.031537001 6.650746244 -0.085761262 -0.015482863 -0.068222038 5.163714887
8.617893418 0.446862382 0.231789672 0.267040456 9.218684014 0.051280290 0.110187130 0.040792845 5.424005838
9.169103067 0.253128287 0.380727951 0.151266913 8.976892654 0.051562236 0.180988738 0.041017130 5.342696188
9.340003815 0.172296785 0.126021470 0.102962822 8.813448140 0.151117635 0.059907518 0.120212235 5.307308130
8.608377684 0.337400117 0.089555638 0.201626910 9.407535342 -0.381101181 0.042572556 -0.303161341 5.486066460
8.448832406 0.007943168 0.101776065 0.004746757 8.890646082 0.083523657 0.048381847 0.066442050 5.341662996
8.724305805 0.294487601 -0.222642229 0.175982823 9.257995290 -0.127530901 -0.105838659 -0.101449276 5.210641345
8.986412650 0.362863813 0.122426365 0.216843757 9.239109821 -0.075150667 0.058198494 -0.059781439 5.334630158
8.726149894 0.292038551 -0.226754601 0.174519295 9.241132101 -0.132997086 -0.107793581 -0.105797560 5.197931124
8.701014111 0.448307861 0.111370635 0.267904259 9.344280677 0.047573633 0.052942871 0.037844245 5.466894549
8.638823051 0.452474534 0.204512236 0.270394221 9.249640740 0.060068880 0.097220105 0.047784061 5.435965197
8.693591952 0.451849967 0.124474350 0.270020986 9.333430211 0.051304870 0.059172055 0.040812398 5.468554075
8.678277429 0.319988921 -0.247809372 0.191222154 9.114042867 -0.122368897 -0.117802503 -0.097342965 5.094639246
9.172766254 0.250488204 0.381627067 0.149689226 8.971666752 0.055695932 0.181416155 0.044305435 5.344822690
8.725929143 0.365325832 -0.062578122 0.218315035 9.377643528 -0.040970100 -0.029748105 -0.032591215 5.354607155
9.354510489 0.171173755 0.077923276 0.102291711 8.789625071 0.149321362 0.037042816 0.118783322 5.300858389
10.184824836 -0.020047168 0.046078217 -0.011979986 6.127464865 0.076588222 0.021904455 0.060924997 5.060741947
9.477307149 0.119791457 -0.025141969 0.071586168 8.031625056 0.108527602 -0.011951876 0.086332383 5.218071204
8.814934449 0.355795202 0.050666145 0.212619627 9.297108744 -0.188650781 0.024085444 -0.150069395 5.350821665
10.373513768 0.005944610 -0.004861966 0.003552439 6.194276615 0.017618510 -0.002311259 0.014015310 4.943097077
8.559455213 0.354600925 0.259056266 0.211905939 9.273402004 -0.110479935 0.123149000 -0.087885441 5.553664620
8.727406059 0.286784606 -0.235900964 0.171379590 9.170752515 -0.148302220 -0.112141537 -0.117972607 5.142650793
8.923909908 0.360582396 0.078269145 0.215480406 9.262965732 -0.092233552 0.037207233 -0.073370665 5.349776457
8.670322587 0.324455137 -0.251758886 0.193891120 9.116825437 -0.114224283 -0.119680005 -0.090864024 5.094422190
8.738527049 0.347595677 0.044051715 0.207719673 9.342688014 -0.339770021 0.020941106 -0.270282908 5.347226290
8.708927682 0.347692393 0.053538777 0.207777470 9.366933623 -0.383971905 0.025451023 -0.305444967 5.387683510
9.761993956 -0.067665547 0.006792548 -0.040436249 6.441841684 -0.022375123 0.003229011 -0.017799137 5.150770248
9.427580816 0.165826828 -0.007988686 0.099096441 8.370599481 0.145420208 -0.003797626 0.115680001 5.263953796
9.828236211 -0.069257198 0.032967724 -0.041387404 6.345778410 0.014858217 0.015672048 0.011819531 5.156939945
9.237901102 0.201660567 0.352101341 0.120510322 8.892964869 0.122198778 0.167380349 0.097207638 5.362749860
9.685318444 -0.058522724 -0.026055721 -0.034972590 6.594247088 -0.070787276 -0.012386251 -0.056310415 5.153718500
9.487280405 0.042582320 -0.021951856 0.025446765 7.453017604 -0.005814229 -0.010435374 -0.004625148 5.186138561
9.498722342 0.045755056 -0.035710925 0.027342760 7.571847863 0.023696267 -0.016976099 0.018850091 5.197036547
8.662203184 0.455388549 0.169940714 0.272135607 9.287643585 0.060482286 0.080785651 0.048112921 5.456317234
9.265408234 0.188842232 0.309112665 0.112850215 8.872854712 0.139149717 0.146944586 0.110691903 5.357461595
8.725288549 0.377990242 -0.036875703 0.225883159 9.383163866 -0.024840875 -0.017529806 -0.019760613 5.378310389
8.558697945 0.352809391 0.257685887 0.210835336 9.277381640 -0.113997806 0.122497556 -0.090683864 5.553971505
8.442775546 -0.021952602 0.144700194 -0.013118654 8.856096538 0.099933376 0.068786926 0.079495781 5.344998989
9.958015301 -0.060548430 0.081253364 -0.036183132 6.220774650 0.062592161 0.038625858 0.049791301 5.151838114
9.075141631 0.332997834 0.258492428 0.198996150 9.151762253 -0.056869120 0.122880966 -0.045238691 5.301713888