5.1272956540 0.2558169446 2.7565734084 2.6771301936 5.6639372169 4.9819482093 2.0151440711 2.3416803065 2.4759001566 6.9855723049 1.5326120168 -0.0056227163 7.4029243315 4.6010795488 2.7462908769 1.0084688676 5.2967757165 2.2759523692 3.6025317914 1.6437724602 4.9079797043 8.5238464248 1.5810970227 2.8563109868 5.7919770007 5.2732976907 0.1636589715 1.3659845462 5.3142277453 3.7612972506 3.3403660944 1.7403278574 1.2797996660 8.3811705005 1.4445445958 1.3233391968 5.9609271404 5.0786111025 3.7660012915 4.2586964682 5.2542317718 0.5543944627 0.5161082429 1.4937326320 3.2101454136 5.1449217313 1.7548184055 4.6156774480 8.9849757780 5.3786088290 2.0225125665 1.8004212523 6.3448073897 1.4192604620 3.0648297879 0.3763239552 4.2414811443 7.9360584323 2.8586231603 3.6303267483 6.4326740304 4.1080562908 0.9434533906 7.6509999191 0.4406676839 3.5378467383 6.4180108754 6.6057969808 0.6759140487 1.4054169593 3.8673951470 1.7035239073 2.9991842072 2.8944725130 4.2532646477
5.1527264043 0.3408907330 2.6625622487 2.6686389910 6.0649445326 5.0715506214 1.9929641444 2.5791092406 2.4100399297 6.8511462038 1.4549724062 0.0777859543 7.4955627804 4.8053779487 2.7087450711 0.9452670004 5.5787212972 2.3285862226 3.6319115046 1.7668866401 4.8689716973 8.4631934882 1.7756962392 2.9486282741 5.8752297851 5.4872375967 0.1996083798 1.3336264471 5.5577107693 3.8217509625 3.3884172221 1.8200012728 1.2425745901 8.1093615681 1.7992657199 1.4497703469 5.9459952734 5.3027071628 3.7944127163 4.3090004072 5.3442909501 0.5428604139 0.4865653906 1.5842452268 3.2092572555 5.1798437367 1.7960126186 4.6304747916 8.9117984975 5.9100912526 2.2028869682 1.7099985809 6.6401791144 1.4442270769 3.2609212336 0.3667594089 4.2536844063 8.0074223502 3.1617459573 3.5171094226 6.6839189425 4.4283324169 0.9822019502 7.5968590379 0.6878779946 3.6555005104 6.3226687616 6.9605831334 0.5480649322 1.3747122988 4.1735430465 1.6975413075 2.9314253790 2.8266555145 3.9850374889
5.5924335250 0.3806016768 2.9710341529 2.7666171486 7.7225050665 5.3708889567 1.8800615120 3.2947998920 2.4077953739 6.0555699892 1.9092345755 0.3321281194 7.1906932778 6.2508494180 2.4683056017 1.6649014029 6.2625061714 2.5242316762 2.9348772902 1.6121758496 5.0219431990 7.4108286761 3.2458468396 3.1184895147 6.1022681892 7.8457206245 -0.0956635841 2.0534062013 6.5946361340 4.0019768263 2.5856499214 2.0799638009 1.0946509792 6.5852390349 2.5010427279 2.0338802741 6.4032745551 7.7437075959 3.7145258189 4.5820396014 7.8628030450 0.1247241370 0.0076685263 3.0472072592 2.5828791486 4.4477424430 1.5939630462 4.6892468008 9.0782811889 6.1224221399 2.4153914849 1.8755009784 7.5288907165 1.6749074529 2.4870576240 0.1416066374 4.6571900920 6.7347748757 4.6378239646 3.2824738256 6.8490737242 6.6392592580 0.5336051374 7.4101095889 2.5030060778 4.4893343341 6.5853780903 9.1829905345 0.5846472827 2.5496044727 5.0866730897 1.9961727718 2.2763711737 2.5306076925 3.9673398013
4.9066154678 0.1174714360 3.0302341437 2.8228325649 7.5430101646 5.3685619415 1.8790145851 3.1123526145 2.3989818343 6.7763570694 1.2953304885 0.1431795426 7.4784299279 5.9140569727 2.8897365086 1.2485890636 6.3869796193 2.6683600155 3.5724596411 2.1774354761 5.0293575314 8.1554772474 2.5820600800 2.7762365517 5.9024107170 6.7943719124 0.3381431356 1.9074579886 6.5925351101 4.0736306956 3.0934445353 2.1680888892 1.1766124604 7.0441807707 2.1130996842 1.7788016658 6.5384172242 6.9557365033 4.1926999095 4.4652554955 6.3759159167 0.0284854799 0.1564968859 2.1251748606 2.1189744563 5.1256640707 2.2627482446 4.9005868869 9.1445341389 6.8099885618 2.9755068105 1.8524886678 7.4705855946 1.7593735140 3.3225408208 0.6747845180 4.5154106999 7.9509613143 4.0981962452 3.0524918258 6.6519688774 5.7616403679 1.2230276928 8.0440496365 1.6194680678 4.0184323831 5.9450460917 8.2319559539 0.9112782290 1.4945784720 4.9789179860 2.0759929377 2.9388296966 3.0947873387 3.9348107715
5.5191763701 0.5207290643 2.7355988226 3.3320376238 7.5818415092 5.5422724503 1.5418446642 2.8599446829 2.7305278268 5.6394353633 2.0826043368 0.2678013609 7.4214158765 6.6897833030 2.9959911426 2.0157656440 6.1759492983 2.9074195181 2.4671005186 1.4282792243 5.2636660229 6.9019598812 3.6097200172 2.9894483519 6.4073019231 8.2610275988 0.1781767691 2.9617821024 6.6346375228 4.0781030261 2.2824061643 1.8167228960 1.3053696753 5.9939130779 2.7931234664 2.0003559160 6.3867077127 7.8680015031 4.0988425667 4.8865550034 8.2802570509 0.6625567889 -0.2829077441 2.8913099774 2.2271513718 3.9816331540 1.7498414873 4.8782661433 9.2392277181 7.1257205990 3.5804570350 2.5351331409 6.7961429340 1.6303677478 2.0778570335 -0.0582442329 5.1878498269 6.5386407871 5.0843309404 2.9870706785 7.1335023403 7.3131776676 1.1583526582 6.7586155632 3.1098783179 4.4166749118 6.9368025105 9.7324522968 0.2958183843 2.0147904137 4.6439989297 2.6480168419 1.4736221938 2.1680546389 4.3363004045
5.0562889061 0.0829150562 2.6352732315 2.7554679607 4.7943603806 5.0006162275 2.3409058957 1.5424931400 2.8574665017 7.4817693448 1.3682626285 -0.0675169532 7.9326141056 4.5617473092 2.7526121182 1.0340691202 4.3764611116 2.2446950965 4.0904829247 1.8064299536 5.0017536493 9.1675886187 1.4355024713 2.7282584939 5.9943939309 4.6545803018 0.3241935748 1.1800890745 4.8542569827 3.7192809362 4.0947062222 1.6573567174 1.4105443974 8.8719060304 1.6180866447 1.2350266977 6.2179535381 4.5392258228 3.8866361977 4.4726119436 4.8570651116 0.7122072279 0.4584285584 1.3382883957 3.1436291407 5.5598272855 1.8089717002 4.3764719071 9.7255993549 4.0994451387 1.9572284750 1.6619427789 5.5737502620 1.3699864967 3.2493267934 0.6755520539 4.2804188925 8.4839849226 2.6086041054 3.5669824321 6.6940343310 3.6456609517 1.2542471642 8.2959014428 0.2391870874 3.3184487615 6.8514614459 5.9162926296 0.9103150108 1.9113968080 3.1590857813 1.6504769300 3.3727611666 3.0699618674 4.3696986114
5.1417985994 0.2985785401 2.6594315610 2.6809209176 6.7447190112 5.2860558529 1.9329558709 2.8934946162 2.3163349680 6.7958796408 1.1790418466 0.2388860808 7.5359658594 5.1864489353 2.7090221083 1.0279378665 6.0260294145 2.5141048940 3.6791853701 1.9889948039 4.8823065516 8.4075957068 2.2560905610 2.8920472575 5.8299903748 6.0329508248 0.2278355411 1.7157483352 6.0385945097 3.8953632490 3.2847535807 2.0247150909 1.1560150029 7.7834368682 2.2588254634 1.4458164123 6.2556406752 6.1565616743 3.9550819051 4.3555543698 5.7019436856 0.3838651967 0.4329611959 1.8700481625 2.7022928904 5.2016133023 2.2594996960 4.7583311140 9.0015377827 6.4049924209 2.5166833419 1.7643313749 7.0672639507 1.6659270227 3.5987185504 0.4748940032 4.4947325259 8.2607385167 3.6599114674 3.5723315832 6.7905487501 5.0561963786 0.9885831634 7.7086582963 1.1856762539 3.7552278275 6.0350412488 7.4716253917 0.7813968342 1.1807610485 4.5797471315 1.9410267087 2.8130854520 2.8968175887 3.9591112542
5.1092993694 0.4526008334 2.5972038406 3.4074564475 7.6787109927 5.5127063035 1.3770736734 2.8802771338 2.6346036466 5.5926026546 2.3039228401 -0.0526727136 7.5974946341 6.9121282063 2.8481302228 2.1577881211 6.2407473223 2.9073478773 2.3536332356 1.3659230696 5.2739431384 6.8467811203 3.5528328335 2.7239048081 6.4453238172 8.3655027195 0.1328818721 3.2743008728 6.5672859962 3.9485895691 2.1934838944 1.7116242609 1.3468189705 5.7534177118 2.7549366921 1.9296315054 6.3910924388 7.8565997269 4.0582236947 5.0084822938 8.3187408723 0.8751240035 -0.4261534865 2.7774918773 2.2298799027 3.7988966536 1.7435930826 4.7790108126 9.4134839263 7.0057682438 3.4205368939 2.3636943503 7.0079258371 1.5983443063 2.3343724817 -0.1623006337 5.0121390854 6.6571166800 5.0962935116 2.6724582565 7.4364121147 7.4964255611 0.9338284791 6.6742829146 3.0661302964 4.1841881603 6.7635038840 9.8938585448 0.0703187281 2.1647619073 4.6409403426 2.8271570839 1.3767895887 2.0473697484 4.2847080723
5.6645344136 0.4701860657 2.8526904311 3.2487432142 7.4973653430 5.5668798267 1.5519362342 2.8567318081 2.6679986297 5.6431802767 1.9999906865 0.3483336585 7.3347393395 6.5802001676 2.9435046420 1.9280909421 6.1318842132 2.8878743089 2.5102942149 1.4293777839 5.3840832589 6.9294092266 3.5190314624 3.0307092596 6.2926997678 8.1892363698 0.1581577215 2.8378006750 6.4270621279 4.0432850941 2.4016646646 1.8870340546 1.4206345874 5.9274183103 2.7511834886 2.1036000072 6.4620995976 7.8253539250 4.1107185197 4.8069824868 8.2917074533 0.5367979982 -0.2237668288 3.0319427173 2.1828612794 3.9805558274 1.5899001110 4.8555198060 9.0590423451 7.0454485991 3.4315411234 2.4952377263 6.7158537057 1.5840942739 2.0936127922 -0.0639863272 5.2670685732 6.4063839383 5.0087040435 2.9715864804 7.0524008318 7.2445137617 1.0769696691 6.6694314592 3.0068717881 4.4929165492 6.9378138118 9.5831968193 0.3855829214 1.9755560335 4.6202084914 2.6312013402 1.6209222532 2.3331671267 4.5082653432
5.9825061517 0.4101690743 3.0690497830 2.8462940368 7.7156924537 5.2578863587 1.4539208309 2.7973083722 2.7031632376 5.7923247029 2.0251717276 0.2216792225 6.9694761969 6.4688055647 2.3631885857 1.8107728520 6.1041669153 2.5079087622 2.8595455209 1.4088140331 5.2535155932 6.6643998924 3.3314742536 2.8314015833 6.0836587748 8.0067545524 -0.1729932907 2.4868226447 6.5937095514 3.8274943856 2.5833347386 2.1208106308 1.2664528352 5.6732891953 2.5481404593 1.9575163978 6.3877108114 7.8076865471 3.6900479145 4.5630346940 7.8328642907 0.1309677501 -0.3779909078 2.7995531963 2.2368847988 4.3085891238 1.2467827635 4.7697654751 8.7753366811 6.5736605812 2.7504714968 2.4877941583 7.0873211316 1.5134676313 2.0718320412 0.0397696296 5.0535109444 6.1613831903 4.8044551945 2.8592250287 6.9170106666 6.9084696242 0.5075527600 6.6688406578 2.6970871592 4.2417285531 6.5543225580 9.3684838937 0.3966271529 2.1148518065 4.6106932954 2.1544260428 2.1866616149 2.4032099676 4.2651075972
5.0193474233 0.0538476945 2.9502950451 2.8172767065 7.7281845518 5.4668619175 1.8379949093 3.1177427456 2.5396841903 6.7148931585 1.4324316085 0.2626431957 7.6157549735 5.9586920565 3.1303339875 1.4526830824 6.4228621814 2.7457906630 3.5127318418 2.1137266769 5.0369269206 8.0428526812 2.6367408256 2.9832112613 5.9689328846 7.1001297410 0.5048887075 2.1024997661 6.6270525782 4.1593712010 3.0409958531 2.2335778034 1.1889436059 7.0297574440 1.7469838868 2.2140781524 6.7784954369 7.2531814548 4.4356050037 4.4336954057 6.7961299128 0.3974471959 0.0791471833 2.5626725752 2.0573989699 5.0849181415 2.0900793751 4.7909943021 9.2584592819 6.8738894066 2.8610981047 1.9951173719 7.5329673121 1.7966177932 3.0335019473 0.6467835198 4.6068536689 7.5249002177 4.0857122868 3.2422771306 6.6427977611 6.1401446653 1.4633426723 8.2177971492 2.0687646305 4.4152409397 6.1680993778 8.5434020509 0.9829191092 1.8023810873 4.9996771659 2.2796713211 2.7597047537 3.1144333546 4.0998234718
5.3282206800 0.4142693490 2.9554964779 2.8471668262 7.6914714149 5.3218580824 2.0037159246 3.3173192772 2.3396674328 6.1638793800 1.9567297902 0.4634247108 7.3871723005 6.1434472398 2.7715970518 1.6565735821 6.3254492644 2.5649009666 3.1657616347 1.7301441591 4.9429517445 7.6650131560 3.1454814094 3.1621560101 6.2000077497 7.6918436160 0.1530336795 2.0232861180 6.4583851043 4.0658055591 2.8964867015 2.1220761639 1.1450880472 6.8656396101 2.1955018306 2.1908495520 6.6680114283 7.3380202671 3.9958908444 4.6843642939 7.5924884935 0.3357030167 0.0369777548 3.1688408103 2.4160434587 4.6651151712 1.8073630322 4.5969184692 9.1774555373 6.5133779044 2.5748026177 2.0732778186 7.5818279528 1.7696882224 2.6432251650 0.2994736415 4.5708153086 6.7917667046 4.4372755294 3.3303657767 6.6730221740 6.5259503541 1.0773034506 7.5932296108 2.3447140460 4.5097193337 6.7415314752 9.1123496777 0.5246998301 2.5013509663 5.1200108167 2.0712756148 2.5795868833 2.8916011095 4.1463308431
5.8733769686 0.3953150243 3.0600787509 3.0598294048 7.5289954679 5.5015325897 1.5173797862 2.8512189824 2.6761685101 5.6424319520 1.9859716406 0.3214439043 7.1788845747 6.5255138784 2.6902984360 1.9037360635 6.1218044470 2.8219526066 2.7194761717 1.4230223057 5.4443427767 6.6987629383 3.4205569365 3.0014505357 6.2444067470 8.1666775366 0.0894958068 2.7174380681 6.3618291635 4.0902396400 2.7327644204 1.8374429926 1.4727246112 5.8330434411 2.4353500931 2.1417792564 6.5280757755 7.8547467070 4.1163388842 4.7517613879 8.2438855899 0.4629638849 -0.3868455442 3.0764810345 2.2379413664 4.2611608899 1.4087849884 4.9391839730 8.9908045135 6.9841002568 3.1792139184 2.4252050945 6.8669056371 1.5568142019 2.0931923469 0.0160729323 5.3593938919 6.2092821441 4.9187934508 2.9585685837 6.9079709457 7.0161619137 0.8725765196 6.7447101815 2.7830611688 4.4485726308 6.7963687367 9.5717152009 0.4801128328 1.9901233492 4.6000838233 2.5919572552 1.8644702396 2.4694734103 4.7490852284
3.6537832161 -0.6373364302 2.6017918909 3.3292795405 6.5312040800 5.6517501195 1.1624875906 2.3861252208 2.4553894861 5.1810976603 2.2287952962 0.1176173610 7.3921293201 6.5741167255 3.4061110552 1.9902905079 5.5252651277 3.1741524605 2.3822060823 0.9491229089 5.1750226312 6.5712994215 3.4780924223 2.6905313904 6.1584375562 7.7963563723 0.8045494187 3.1329705100 5.4044936856 4.2160282050 1.7569422265 0.8945887279 1.2078711639 5.4042664247 3.1286335025 1.7606782813 6.6321283441 7.0921604643 5.0090489802 4.8244710957 7.0775106841 1.2327333107 -0.7034908051 2.6473113742 1.9960600661 3.4553182949 2.0573659023 5.0466879879 9.1525535431 5.9856711223 4.0531240008 2.5122106193 6.4200645489 2.0274757186 2.7968754930 -0.4782033268 4.7468062363 6.8774016528 4.9737665273 2.4692382639 7.2302456557 7.7429730685 1.9174448422 6.2179722104 3.2661204139 4.1844971333 6.0032445282 9.2661992752 0.4659697727 2.0384622321 4.0774672122 2.6105655353 1.2692792111 1.3053347835 4.1274013452
5.0819949543 0.0734639241 2.9328127789 2.8713808652 7.7667477920 5.4770114699 1.8829283657 3.1193467287 2.5307390183 6.6588561279 1.4889569961 0.3380108591 7.6393591416 5.9187469037 3.2108002355 1.5154935315 6.3965259333 2.7748588021 3.4750344409 2.0804391668 5.1078576446 7.9698444392 2.6954797036 3.1411001647 5.9923429325 7.2100396644 0.5636278586 2.0805007704 6.5920542186 4.1831726011 3.0648525247 2.2129708636 1.2936779510 7.0747404950 1.7239736871 2.3198885779 6.7182716962 7.2207477282 4.4595839326 4.4675663918 6.9467968339 0.4733166034 0.0530773186 2.6036532311 2.0837278167 4.9902060053 2.0002757016 4.8263426554 9.2448690372 6.8409288513 2.9395362306 2.1093664018 7.5379772188 1.8699199127 2.9846694383 0.6584761933 4.6625877539 7.3342790459 4.1147410660 3.3615085706 6.6367828512 6.2235827744 1.5880534803 8.2108342320 2.1604778469 4.6050021937 6.2225915960 8.6823875802 1.0789479220 1.9241303992 4.9906626983 2.2827698048 2.7197762396 2.9688496704 4.1448428758
5.1614963110 0.3075810826 2.6219116386 2.6666335994 6.6772826685 5.2765325100 1.9259473399 2.8470596427 2.3407631631 6.8108151862 1.2050807548 0.2350889285 7.5325500344 5.1426875596 2.6888579038 1.0043719894 5.9988763146 2.4879543147 3.6897136274 1.9380591231 4.8511053936 8.4291188940 2.2029547944 2.8764751496 5.8301671243 5.9682745637 0.2322774457 1.6380785398 6.0006109643 3.8958755374 3.2945104389 2.0128541327 1.1507950208 7.8386447804 2.2237856151 1.4229411028 6.2571701730 5.9982247862 3.9261816195 4.3395031441 5.6446690281 0.4281650618 0.4574309811 1.8478962925 2.7721127132 5.1743269403 2.2694539617 4.7069384296 8.9610134495 6.3635219942 2.4853786221 1.7582242069 7.0576208644 1.6576364777 3.5474318938 0.4492063326 4.4775816964 8.2190332403 3.5823357324 3.5957401959 6.8222035679 5.0094478809 0.9620970919 7.6926453476 1.1354022226 3.7634574082 6.0726461829 7.4238892541 0.7849417075 1.1687558305 4.5537689156 1.8653523134 2.8384899646 2.9071910269 4.0103803933
5.9744533630 0.4410590917 2.8882279099 2.7409746273 7.5595516169 5.1616669961 1.6538052348 3.1467306107 2.3218171476 6.1684065536 1.8200354943 0.3134862712 7.1067174381 6.4699718444 2.1660156899 1.6806174508 6.1395723962 2.4261604000 2.7194173189 1.3470136808 5.0706915442 7.0783934522 3.2669135982 2.9887144717 6.0467195222 7.9222024271 -0.3572276807 2.0749338048 6.4972868579 3.8341803769 2.5544262137 2.0036321455 1.2444279881 6.0549484818 2.4523661229 2.0781922655 6.4454213883 7.7220471714 3.5251391411 4.5690318099 7.6078671163 -0.0682127514 -0.2482458931 2.6596272983 2.2515592502 4.3490581902 1.1690251586 4.9071976786 8.8617811276 6.1907639978 2.5231123491 1.9103220963 7.2465108114 1.3576263363 2.0102133922 0.0055613613 4.9261314481 6.7344251758 4.7619236571 3.1375288302 6.9641772130 6.9398193468 0.4066131805 7.0853470584 2.5404319709 4.3780443989 6.5843390592 9.2897031434 0.1940159666 2.4796478604 4.8481699072 2.0472841665 2.1459630264 2.3984676314 4.1349984754
4.9324851070 0.1780996979 3.0285432566 2.8842170799 7.4071589324 5.3588069203 1.9327289708 3.0871504665 2.3268488684 6.7780429922 1.2335260285 0.1547349438 7.4748561142 5.7538473142 2.8632515456 1.1954351132 6.3058336994 2.7068184578 3.6407147751 2.1159455105 5.0043183072 8.2501618407 2.4906031392 2.7445170460 5.8472509831 6.6029490628 0.2823702489 1.8900069486 6.4198886015 4.0831831514 3.1472714069 2.1417220945 1.2306109921 7.1011084879 2.2861847849 1.7141644188 6.4242078791 6.8494448708 4.1056569759 4.3498584590 6.1780269442 0.0233245752 0.2848591819 2.0201874167 2.3068398018 5.1771889495 2.3324106542 5.0312519524 9.0963159569 6.7694240246 2.9584546272 1.8448817529 7.3259512534 1.6557814513 3.3624920660 0.6176426419 4.6267084805 8.1566860856 3.9662225664 3.2480720449 6.6090476391 5.6124378245 1.1458417826 7.8860869554 1.5678989591 3.9708313934 5.9805274876 8.0421758796 0.9649640540 1.4118106456 4.9006794028 2.0226056910 2.9410677649 2.9504488310 3.9385063357
5.2951733883 0.3764129145 2.9445980006 2.8809752660 7.6595809676 5.2818861156 1.9978079500 3.2811399359 2.3152804458 6.2406057029 1.9331424373 0.4973548149 7.4234017695 6.0987924734 2.8492358677 1.6567821004 6.3465087060 2.5823825686 3.1890913054 1.7783326050 4.9467012654 7.6999769408 3.0728356225 3.1868349756 6.1661156576 7.6385952581 0.2392643829 1.9942247719 6.5036800336 4.0787094452 2.9725684543 2.0782246196 1.2385196858 6.9002968409 2.1286230713 2.2224646946 6.6994822442 7.2500226012 4.0875124433 4.6277241286 7.5334023329 0.3480381466 0.0266458337 3.1416371163 2.4008547098 4.7509367056 1.7751449364 4.5873221550 9.1866210450 6.5490287917 2.7064795615 2.1798455248 7.6050125453 1.8079532440 2.6880839168 0.3849434333 4.5875171313 6.8598354298 4.3830800729 3.3030880987 6.6724432580 6.4904897028 1.1868515595 7.6782541811 2.2999780972 4.5260599203 6.7069032226 9.0771830273 0.5392063474 2.4650784992 5.1065432410 2.0528137189 2.5757257373 2.9355744412 4.1331885781
3.5699951170 -0.0900961096 2.4504589692 3.1115651641 6.8576462208 5.4585906335 1.0252278816 2.3012363520 2.4052389317 5.4588117878 2.4138568140 -0.1881181798 7.5795930083 6.6398940323 2.9335910138 1.9746801364 5.4610105501 2.8915027006 2.5074139836 1.2587759690 4.9704708739 6.5026818647 3.7221049465 2.3736038031 6.1697090186 8.1073901696 0.3532683286 3.1643860137 5.7258115503 3.8669165593 2.1311588257 1.2412957676 1.1780070359 5.3202941574 3.2056531275 1.5128228758 6.4502546240 7.5682926508 4.3085507931 4.8423220755 7.4771197305 0.9270743290 -0.7620087838 2.7317107902 2.0126310206 3.5898401588 2.1984712462 4.4865863939 9.1390526730 5.9296457310 3.5898500835 2.2763148159 6.4844881116 1.6953342620 2.9246965116 -0.2339244696 4.6739422243 6.8048751425 5.1534920135 1.9850215272 7.2746525032 7.8842612372 1.4571769712 6.2203284809 3.5857718599 3.8848720045 5.9937437389 9.6525646138 0.1775829522 1.9405746634 4.0849023362 2.2812381685 1.1513772199 1.6534983794 4.2759910608
5.1261727527 0.2767331759 2.7508256923 2.6831392404 5.7245638727 4.9878026170 2.0025542815 2.3869797039 2.4545567005 6.9571549880 1.5248067508 0.0138150665 7.4132839841 4.6382956368 2.7540769625 1.0132292351 5.3358349103 2.2847590603 3.5968704174 1.6388678305 4.8905341174 8.5122034984 1.6043417824 2.8740413243 5.7803952503 5.3114398831 0.1670709893 1.3803718432 5.3434052994 3.7692579533 3.3600404876 1.7590726960 1.2737881529 8.3224097834 1.4797408096 1.3389816431 5.9715917954 5.1088327353 3.7697380136 4.2792717586 5.2680106925 0.5491420677 0.5287301149 1.5280829003 3.2257610185 5.1152033024 1.7569265239 4.6281423607 8.9684571294 5.4624188131 2.0398273537 1.7709227935 6.3755446733 1.4291527402 3.0983181859 0.3561170589 4.2582543874 7.9563043181 2.9056391246 3.6471801503 6.4625319633 4.1470883282 0.9431502092 7.6218288363 0.4725484172 3.5624788064 6.4049837364 6.6388046129 0.6283256740 1.3979780910 3.9220852246 1.7398451263 3.0187516420 2.9004065910 4.2284509580
5.2633829342 0.3227289093 2.9308500703 2.9152019667 7.6370918857 5.2536309194 1.9785691059 3.2384677916 2.3050977271 6.3156890231 1.8874939391 0.5172239543 7.4536511944 6.0414516409 2.9377537284 1.6774742542 6.3779901303 2.6055803423 3.2631549300 1.8455496690 4.9868509256 7.7256126411 2.9917402544 3.2111552240 6.1228294679 7.5613899580 0.3491599342 1.9695250244 6.5767226812 4.1437772860 3.0459449770 2.0275855772 1.2582384241 6.9329468366 2.0588765235 2.2517313918 6.7065944924 7.1907849857 4.1942171221 4.5440282570 7.4891977850 0.3615418015 0.0318636946 3.0745177312 2.3961239961 4.8414050689 1.7615342593 4.6512410644 9.2435174240 6.5795367079 2.8407960055 2.2639210466 7.6049417504 1.8449834725 2.6967873282 0.4273204356 4.6158657956 6.9269456777 4.3172760490 3.2935039624 6.6774937363 6.4932152745 1.2839835330 7.8131498778 2.2766290312 4.5488205112 6.6192054573 8.9789197319 0.6021915380 2.3727609825 5.0858122578 2.0332236483 2.5369594404 2.9705699270 4.1314940164
5.1849996077 0.3298023090 2.5842871001 2.6598326907 6.5441128896 5.2418924683 1.9429717192 2.7629691841 2.3760918989 6.8345458577 1.2843762292 0.2125626706 7.5297742600 5.0528591065 2.6784665970 0.9498657569 5.9021852910 2.4341507797 3.6935445343 1.8553149189 4.8624442203 8.4567985796 2.1012193270 2.8774800720 5.8663795306 5.8352222091 0.1960423108 1.4738390790 5.9097724504 3.9064074192 3.2910315961 2.0041466200 1.1561512925 7.9316026173 2.1417421237 1.4282055561 6.2068971228 5.7064247983 3.9042726314 4.3445794572 5.5217894030 0.5182927568 0.4466175374 1.7423509048 2.9375037305 5.2172345989 2.2631681650 4.6116288057 8.9507860233 6.2988707198 2.4288744113 1.7464218220 7.0155485312 1.6048784277 3.4039970073 0.3387091006 4.3968446552 8.1219486174 3.4526895497 3.5754817952 6.8276590765 4.9078000709 0.9383626332 7.6967762438 1.0397878189 3.7331433176 6.1585082013 7.3167904741 0.7962588868 1.1916526777 4.5149201714 1.7225219554 2.8815070763 2.9235416314 4.0630443782
5.2286237484 0.4934084236 2.6335661133 3.4147315606 7.7233567158 5.5498641260 1.4339192225 2.8812868038 2.6700248691 5.6068668899 2.2792850976 0.0245132686 7.5927587635 6.8971659566 2.9393100624 2.0846714532 6.2477763527 2.9492361311 2.4245040966 1.3614182831 5.3346633177 6.8811060269 3.5920851951 2.8320635083 6.4224459654 8.3403871313 0.1576828357 3.2733625633 6.6173589678 3.9980983415 2.1549803632 1.7621034112 1.3045526625 5.8257882454 2.7619518256 1.9636031400 6.4048458403 7.9495495502 4.1239717910 4.9912990942 8.3522761112 0.8605162320 -0.3837232190 2.7899226681 2.2890799825 3.8963181024 1.8002592126 4.8159305528 9.3574410111 7.0750783486 3.5086727983 2.4419406781 6.9932570906 1.6377079892 2.2334199728 -0.1444070873 5.0726022466 6.6159221495 5.0833432582 2.8249964840 7.3937517528 7.4607244699 1.0149583330 6.7346078571 3.1040168350 4.2771440337 6.8786544972 9.8407041955 0.0924489768 2.1501826647 4.6958886550 2.8121096540 1.3567005778 1.9811080603 4.4039187515
6.0104949098 0.4640152978 2.9306973003 2.7532465042 7.5861495654 5.2212657148 1.6219315385 3.1029840161 2.3856903402 6.1485421514 1.8416029574 0.3164250201 7.1074722333 6.4854084699 2.2189659580 1.6676040278 6.1179588648 2.4220992527 2.7222593404 1.3712525192 5.1591320654 7.0321420652 3.2570550657 2.9964493345 6.0418570515 7.9357002388 -0.3571088533 2.1253487887 6.4386334968 3.8677884150 2.5683792128 2.0355438605 1.2415731471 5.9412231004 2.5158430827 2.1010813180 6.4297094152 7.7107347407 3.5550429281 4.5984467790 7.5879138561 -0.0877597992 -0.2908148303 2.6641571759 2.1560151014 4.2671910347 1.0995799257 4.9333055650 8.8267012605 6.2692023321 2.5129927508 1.9342930966 7.1882366803 1.3414837777 2.0093489405 -0.0018340494 4.9672827390 6.6793346164 4.7518047836 3.1240548444 7.0034542360 6.9299230977 0.3816921703 6.9988941503 2.6050860185 4.4295293465 6.5905962488 9.3400467371 0.1763558963 2.4308023185 4.8114826964 2.0877910168 2.1924137791 2.4308757817 4.1790630983
5.0903412751 0.0778240661 2.9318189198 2.8790760754 7.7713721284 5.4741560084 1.8863597146 3.1188699881 2.5231313278 6.6500089473 1.4989411596 0.3489113331 7.6400146127 5.9161005465 3.2197316343 1.5225693648 6.3966448268 2.7730426916 3.4733471300 2.0669095213 5.1230879499 7.9607390289 2.7035845285 3.1606277078 5.9966465944 7.2239533825 0.5655736155 2.0752299228 6.5891340846 4.1890250022 3.0688780047 2.2115115886 1.2941060707 7.0783526962 1.7283651193 2.3322990230 6.7082745511 7.2097247499 4.4610564854 4.4794584164 6.9677032608 0.4823898995 0.0557528518 2.6107724676 2.0907568392 4.9776778725 1.9946329840 4.8320149534 9.2466130176 6.8301956420 2.9541461216 2.1241871704 7.5347292686 1.8841968043 2.9751249176 0.6506616384 4.6709523346 7.3074218163 4.1166159874 3.3737931548 6.6331422199 6.2363207404 1.6001694095 8.2068678953 2.1678642607 4.6283755111 6.2247671960 8.6931571451 1.0923819848 1.9382385161 4.9931407197 2.2785017931 2.7187463023 2.9574962352 4.1618944506
5.1152109927 0.0938175819 2.9295953226 2.9019381497 7.7826754217 5.4585412277 1.8947154570 3.1174444581 2.4940317935 6.6212090929 1.5338244935 0.3814081500 7.6387634381 5.9137203718 3.2397159643 1.5433177246 6.4001737584 2.7599638386 3.4682582514 2.0161342456 5.1689137444 7.9376759511 2.7280025112 3.2137203691 6.0172875054 7.2637284920 0.5667322663 2.0589442361 6.5849562556 4.2150046653 3.0794954119 2.2079710990 1.2855575029 7.0844792564 1.7526081999 2.3675028875 6.6809136952 7.1742912389 4.4630808869 4.5081686119 7.0331121119 0.5053006422 0.0672393911 2.6376898843 2.1208999920 4.9604576998 1.9831716369 4.8469313182 9.2576051961 6.7917667893 2.9976930587 2.1718395580 7.5264303703 1.9193917805 2.9391700657 0.6086297482 4.6963365150 7.2276519940 4.1143370260 3.4032711317 6.6191607180 6.2845198419 1.6204344302 8.1916039005 2.1900952920 4.6815901638 6.2298045762 8.7105566928 1.1226129728 1.9785134268 5.0022266201 2.2580039642 2.7081137829 2.9421159656 4.2100819792
5.7997485365 0.3461898103 2.9089098234 2.7258314510 7.6410210146 5.2189993145 1.7322689232 3.2456367003 2.3065283337 6.1346509078 1.8203989226 0.2929362951 7.1102789165 6.3690974707 2.2613968103 1.6745865468 6.2025976374 2.4221705434 2.8347776134 1.4002605967 4.9987551617 7.3049395511 3.2757127921 3.0730703690 6.0842653299 7.9566547022 -0.2609640681 2.0056727886 6.6332421910 3.8498194102 2.5270467071 2.0060968438 1.1445517977 6.3318679455 2.4979568136 2.0977456750 6.3737938396 7.7199730745 3.5343264787 4.6081837213 7.7480787934 0.0307100756 -0.0358770729 2.8465982062 2.5152025878 4.3916421454 1.4418509273 4.7914174897 8.9929833017 6.0071877489 2.5791940048 1.9189262005 7.4749849789 1.5515027133 2.2062287451 0.0094381051 4.8069369202 6.7456495151 4.7150927069 3.1884993033 6.8470313825 6.7532226620 0.4003758986 7.2204269633 2.4448679420 4.3964544690 6.4935258409 9.2964237863 0.4735773839 2.5552604843 4.9778040266 2.0012744687 2.1429595007 2.3703362477 4.0767890753
5.2184139342 0.4902042633 2.6303872091 3.4149558745 7.7221937150 5.5476544988 1.4288790851 2.8811889803 2.6671220718 5.6064724961 2.2829918765 0.0169442938 7.5947760626 6.9004167988 2.9329259276 2.0903525584 6.2496554995 2.9449983687 2.4168650141 1.3612804896 5.3334101369 6.8788759817 3.5896264872 2.8251035859 6.4245215473 8.3425333424 0.1561860699 3.2780621396 6.6133786950 3.9957023391 2.1581420244 1.7579620933 1.3068658379 5.8183624355 2.7614413936 1.9629499966 6.4049705143 7.9432054466 4.1188291973 4.9914449966 8.3516288781 0.8648472604 -0.3855177324 2.7887925454 2.2854756477 3.8882315269 1.7957873497 4.8117299369 9.3628340064 7.0695373860 3.5017960412 2.4345191386 6.9955662677 1.6367416475 2.2451678769 -0.1475184314 5.0678294272 6.6194688564 5.0818210405 2.8131548618 7.3998238679 7.4639772939 1.0081325717 6.7291828035 3.1014946317 4.2678852811 6.8703057532 9.8470926643 0.0899935877 2.1524911845 4.6917314447 2.8156952498 1.3584960436 1.9863158302 4.3937423601
5.4467728308 0.4278690853 2.9704484321 2.7857382297 7.7310774932 5.3901004704 1.9699408460 3.3387486218 2.4150874761 6.0372113388 1.9479079421 0.3695470644 7.2722136553 6.1943244738 2.5923402428 1.6888648104 6.2931351923 2.5945237767 3.0464542239 1.6345284876 4.9382704981 7.5174751445 3.2267095306 3.1219733246 6.1696135195 7.7656353205 0.0072247223 2.0583460957 6.5005357551 4.0764254194 2.6958742514 2.1384578824 1.0751131468 6.7431357069 2.3612204349 2.0528204693 6.5320430629 7.6062898952 3.7948687351 4.6019821846 7.7865252526 0.2322679017 -0.0001418648 3.1265191154 2.5269420544 4.6260581105 1.7472870658 4.6935952569 9.1400068929 6.3164424823 2.3532453896 1.8847999859 7.5601411948 1.6700970256 2.5684204426 0.2419201047 4.6120620903 6.7292191765 4.5762094509 3.3425174890 6.8014130691 6.5798114062 0.8029985925 7.5198976215 2.4795674378 4.4719767328 6.6984120644 9.1284213411 0.5575627064 2.5164338352 5.0776640933 2.0266144755 2.4158225707 2.7133903173 4.0510631293