-28926.6142755571
-28927.1181486299
-28926.7358726929
-28926.9941809757
-28926.47652548
-28925.4179825096
-28927.3594416431
-28926.5873422874
-28926.5984473835
-28926.3244631748
-28927.0620126623
-28926.7506805762
-28926.5166217057
-28926.5120733252
-28926.9642990819
-28927.3802493613
-28926.2079608238
-28927.0310210888
-28926.8708582309
-28926.8278414088
-28926.5842747497
-28926.8567162098
-28927.1573294651
-28926.5423817572
-28926.2039063297
-28926.9819221175
-28926.9964117638
-28926.6435224736
-28926.5535340651
-28926.6630179235
-28926.357507574
-28927.2296775589
-28926.0368943699
-28926.9946865629
-28926.7549775236
-28926.2923587924
-28926.8114941784
-28926.5054802824
-28926.8324395861
-28927.2389820786
-28926.6296310692
-28927.0164567473
-28927.0138621432
-28926.5122806759
-28926.2055401003
-28927.1018276584
-28927.1328257626
-28926.5603716021
-28927.1003058626
-28926.4906181125
-28925.6682687445
-28927.1052501685
-28926.637968633
-28926.744263727
-28926.8131498542
-28926.3147991928
-28927.1989691197
-28926.8066490579
-28926.5585114328
-28926.5110099049
-28927.1009347173
-28926.3219989131
-28926.5875704547
-28926.4826132077
-28926.542551012
-28926.1704868218
-28926.9340351405
-28927.1003902178
-28927.1807379101
-28926.5227495702
-28926.5015213002
-28926.8657060301
-28926.7944393162
-28926.666075257
-28926.240002484
-28926.0380855476
-28927.1156903548
-28926.8199909286
-28927.0884309568
-28926.6055807081
-28926.3061578141
-28926.5759079337
-28926.8487552514
-28926.5073041245
-28926.4626738043
-28927.4809072119
-28927.1032815619
-28927.0736682444
-28926.6400520715
-28926.4287382328
-28926.3573915175
-28925.9770273152
-28926.9648686159
-28927.0150375383
-28926.3231526752
-28926.8184043697
-28927.0062652729
-28926.5010294547
-28926.2986002643
-28926.5927997998
-28926.8308792862
-28927.0244794755
-28926.3279256855
-28927.2140800016
-28926.590043424
-28926.4140851822
-28926.0478190546
-28926.5040486923
-28926.2408552883
-28926.519113723
-28926.8379063503
-28925.6587631327
-28926.6003568054
-28926.885656318
-28927.7877156798
-28926.598321803
-28926.5769842794
-28927.0046449719
-28926.3484825149
-28925.6430070692
-28927.1333140706
-28926.334759549
-28927.2071274966
-28926.2773035577
-28926.5911794987
-28927.2185247068
-28926.4374702253
-28926.6981016788
-28926.734025313
-28926.6990151645
-28927.1908998601
-28926.509310827
-28926.3262966769
-28927.0384740109
-28927.1347313748
-28927.1261056427
-28926.6506160695
-28926.5573028398
-28926.5245746368
-28926.7854292235
-28926.2428407659
-28926.8363076824
-28927.2398185561
-28927.2500052685
-28926.6558616053
-28926.4377241074
-28926.5126993228
-28927.0837027092
-28926.8086640598
-28926.4030009028
-28926.9476381043
-28926.0372575056
-28927.1896945325
-28927.1745749429
-28926.4411853936
-28926.6385293232
-28925.4525708819
-28926.7618003665
-28926.5768450933
-28926.4105692011
-28926.3264457952
-28926.7454491903
-28927.1503259388
-28926.6324452691
-28927.3450300934
-28925.4364663769
-28927.1430685304
-28926.1478952622
-28927.0539589131
-28926.4036010495
-28926.6247198251
-28926.972900732
-28925.5091800553
-28926.9761031021
-28926.3016018145
-28926.3513684168
-28926.9912362973
-28926.9634054605
-28926.76214391
-28926.6422104774
-28926.4561388578
-28926.1482597585
-28927.2619662983
-28927.1743844634
-28926.6317692026
-28927.3041825618
-28927.0275136793
-28925.6059872249
-28926.3503448611
-28925.9787669381
-28926.7028258447
-28926.9564419349
-28926.5804516883
-28926.7428651986
-28926.5055651819
-28926.7276073753
-28926.3502346551
-28927.1269174939
-28926.1154465199
-28926.34251615
-28927.1337799293
-28926.9990943967
-28926.9294168268
-28926.4951913914
-28926.4627176146
-28926.9456847361
-28926.6266243489
-28925.426063062
-28926.8348260233
-28926.3264236179
-28926.6301054995
-28926.9318450334
-28926.9771436648
-28926.7370830546
-28926.5419163067
-28927.3089660485
-28926.9892519081
-28927.189609769
-28926.5676603035
-28926.5083859125
-28927.0424697285
-28926.5042840706
-28927.1262608835
-28926.3682353844
-28926.9435618411
-28927.3009320276
-28926.3350919359
-28926.0961050863
-28926.5313543496
-28926.2658807689
-28927.1584796898
-28926.8332536143
-28926.5079076727
-28926.4367612331
-28926.8375252551
-28927.0716589568
-28926.3299493951
-28926.9745655236
-28926.8952597547
-28926.6524380068
-28926.8606565522
-28926.5166033381
-28926.6505449118
-28926.5041910077
-28926.8322940053
-28926.8226036283
-28926.8963860333
-28926.9899760027
-28925.4108837435
-28927.1938279396
-28926.6851862102
-28926.3030108192
-28926.5734342841
-28926.7346023301
-28926.6713949437
-28926.736512024
-28926.3933773297
-28926.244071128
-28926.3172977408
-28926.8888407286
-28926.3406966617
-28926.9485152628
-28926.4808145362
-28927.1338648287
-28927.2424445894
-28926.5302710649
-28926.9907852688
-28926.7094952154
-28926.5641879967
-28926.7835957214
-28925.8170640527
-28926.8968086259
-28926.8528505626
-28926.5290992073
-28926.5852087799
-28927.0885423874
-28925.8983295844
-28926.2990812253
-28926.5759909284
-28926.4462710626
-28926.1199368041
-28926.1422357054
-28925.7257127627
-28927.2840001608
-28926.7958626069
-28926.0095015001
-28927.0449486843
-28926.7954672257
-28926.7071845619
-28926.7094730382
-28926.81511193
-28926.941694733
-28926.204919409
-28926.5212167537
-28926.587626102
-28927.704662089
-28927.1283931665
-28925.6664578278
-28926.8742927139
-28926.3278775214
-28926.726072518
-28926.3136827103
-28926.9685104496
-28926.4146275048
-28927.1040372217
-28926.3810104423
-28926.8009973924
-28926.7431683333
-28926.3206897741
-28926.7778133052
-28926.0508924428
-28926.350691534
-28926.6859645915
-28926.8114917293
-28926.7549912654
-28926.7439993685
-28927.00935526
-28927.1362361636
-28926.0642967636
-28926.5815593271
-28926.3495232138
-28926.2115583029
-28926.5604890191
-28927.084114009
-28926.7382032107
-28926.4691144634
-28926.1847598656
-28926.196459258
-28927.1233435526
-28926.3873596713
-28926.3238488781
-28926.2894328898
-28925.9074682509
-28926.5125214965
-28927.117150789
-28926.93255008
-28926.3911340243
-28926.5531135134
-28926.3793949033
-28926.5119044787
-28926.714690002
-28926.5215336301
-28927.2160588124
-28926.5788251286
-28926.3197334305
-28926.9584290452
-28927.1172812675
-28926.5775795282
-28926.1733648323
-28926.9981161479
-28927.2329640121
-28927.166411532
-28926.7790406741
-28927.2097776119
-28927.088340479
-28926.6403179266
-28926.3391760904
-28927.0841047571
-28926.921119672
-28926.7596331169
-28926.9238774082
-28926.5058292682
-28926.7224135412
-28927.1183240072
-28926.3801007662
-28926.8750025225
-28926.5323585852
-28926.1906867741
-28926.7115152515
-28927.0222629734
-28926.770898488
-28926.1989403907
-28926.6475630899
-28926.869855764
-28926.8472825721
-28926.5049014966
-28926.5538397848
-28926.7007049905
-28926.655334249
-28926.6546609036
-28925.4193543708
-28927.1324633071
-28927.7795733577
-28927.7512460495
-28926.9988999714
-28926.5157806023
-28927.3859270137
-28926.2880959952
-28926.4882816082
-28926.6250157488
-28927.1663187412
-28927.1279628187
-28926.866684687
-28926.889014065
-28926.0652137868
-28926.8245759084
-28926.5144794906
-28927.1199330155
-28926.5983525519
-28926.7236200933
-28926.3281530365
-28926.3194509765
-28926.2352199497
-28926.7896497069
-28926.5507039466
-28926.9387956336
-28926.4688540506
-28926.9739993911
-28927.011006582
-28926.1541929256
-28926.7551877314
-28925.8640523741
-28926.6539308226
-28925.6567119396
-28926.7222761238
-28926.6150792449
-28926.1656802054
-28926.9857039537
-28926.1863793503
-28926.7632046092
-28926.552487924
-28926.7454564013
-28926.3210919582
-28927.3279657073
-28926.8152024078
-28926.8423782669
-28926.4336619941
-28926.1747715241
-28926.3435527671
-28926.8375989979
-28926.7554414775
-28927.1394125468
-28926.3224719828
-28926.5146620789
-28926.6432581151
-28926.7735005752
-28926.5667099465
-28926.7728208352
-28926.2215014736
-28925.6284366051
-28926.3065208138
-28926.2719880887
-28925.6297509143
-28926.8663034557
-28926.7864793102
-28926.8065504167
-28926.6426103484
-28926.3712109477
-28926.1434188558
-28926.2630062958
-28926.3605670843
-28926.1978007785
-28926.5739589193
-28926.9890815649
-28926.5127952429
-28926.1769402703
-28926.5563618706
-28926.3751023097
-28926.6833469937
-28926.3105017012
-28927.0471193353
-28925.7411168471
-28926.9690741331
-28926.7332903339
-28926.2012943103
-28926.630949324
-28926.3091902492
-28927.1200077107
-28926.8908062059
-28926.577296802
-28926.692521035
-28926.8998134414
-28926.1446156118
-28927.1955403511
-28925.622718816
-28926.5431922479
-28926.3348734286
-28926.4286408161
-28926.8665744809
-28926.8288357123
-28925.6694449559
-28926.9334273746
-28925.5649840443
-28926.5110471845
-28926.8449330063
-28926.2327095647
-28927.0267498561
-28926.7192234162
-28927.1212580732
-28926.3145691207
-28927.3684701035
-28927.0904550746
-28926.8531498877
-28926.3527108897
-28926.3170810022
-28927.1245039814
-28927.1932940525
-28926.8551263855
-28926.5327157344
-28927.24313535
-28926.8503288849
-28926.4946551913
-28927.140827538
-28926.605640301
-28926.9133904184
-28927.336602324
-28926.7615577771
-28926.9014855801
-28926.625116839
-28926.500723735
-28926.7743864414
-28927.642011039
-28926.5598741782
-28926.5411048637
-28927.1130164295
-28926.3255470036
-28926.3236203026
-28927.3751817879
-28926.979594729
-28926.4365088476
-28926.3668609381
-28926.5027444513
-28926.3186468805
-28926.8781418982
-28927.0301368554
-28926.7744112037
-28926.6452328442
-28926.504696595
-28926.7327284191
-28926.9494940558
-28926.8997662297
-28927.0342374728
-28926.5824405673
-28926.4379943163
-28926.3394918783
-28927.0238327973
-28926.7562979553
-28927.1140768566
-28926.1955445478
-28927.0332031686
-28926.586647309
-28926.7093541245
-28927.0312612292
-28926.3147653147
-28927.2187656635
-28927.3707608927
-28926.4467884868
-28926.7521570651
-28927.1205225498
-28926.5205242243
-28926.9983999625
-28926.8353695704
-28926.9847131877
-28926.3342936903
-28926.2863336509
-28926.6638413395
-28926.8078814608
-28927.1334533928
-28926.6083119133
-28926.9510026542
-28926.6325362911
-28927.1228937486
-28926.6097655447
-28926.7547444582
-28926.426474791
-28926.9608538504
-28926.3881029498
-28927.059195061
-28926.4953496255
-28927.0730844244
-28926.5919463151
-28926.9814134009
-28926.5982484684
-28927.0583984481
-28926.8356514802
-28927.3838857527
-28926.7980321694
-28926.6753865796
-28927.1436047304
-28927.153152928
-28927.0399494114
-28927.1942161097
-28926.6769723222
-28926.6346190494
-28926.8838019992
-28926.1141924839
-28926.9391174081
-28927.1908363215
-28927.198175092
-28926.9604618706
-28926.7084226793
-28926.2754126397
-28925.42901155
-28926.1660078303
-28926.4370540274
-28926.6030247441
-28926.5370982616
-28926.9604112574
-28926.5638451334
-28926.5430802731
-28926.8290534033
-28926.7665955541
-28926.3182373494
-28926.6963986552
-28926.8532572365
-28926.515700873
-28926.5791402363
-28925.4124104374
-28926.6478142508
-28927.0351410263
-28926.6270059884
-28927.2224839611
-28926.5383861757
-28927.1134184775
-28927.0548528066
-28925.6517794706
-28925.6394244202
-28926.7903795159
-28926.5268667865
-28926.2652925951
-28927.2055516862
-28926.8088290968
-28926.4450230131
-28927.0033118869
-28926.5653769975
-28926.5029120733
-28926.5069046616
-28926.3893886871
-28926.3894944032
-28926.7860873304
-28927.1908918327
-28926.772355929
-28927.191952668
-28926.340297607
-28926.4862622524
-28926.2801203427
-28926.3779906605
-28926.3183612972
-28926.8573242479
-28926.7216618271
-28926.6623598165
-28926.3414791247
-28926.655219417
-28926.6600313396
-28926.3221458545
-28926.9973607603
-28926.9257645167
-28926.3289623027
-28926.4651727605
-28926.2121754568
-28926.5730563182
-28926.1287164165
-28926.6766467381
-28927.0581153138
-28926.9487075112
-28926.8058909491
-28926.7969073875
-28926.9921003943
-28926.2537621853
-28927.1280303029
-28926.1215749286
-28926.7853040512
-28926.7385164135
-28926.7088630953
-28926.7612515131
-28926.6186942754
-28926.4181449825
-28927.0136820039
-28926.8601494683
-28926.4497783361
-28926.833094972
-28926.6267372761
-28926.6065484805
-28926.6455973405
-28926.509023611
-28926.827348883
-28927.1223499294
-28926.7276894176
-28926.4945681149
-28926.4783829282
-28926.5023932886
-28926.5103820025
-28926.6712750776
-28926.5442099531
-28925.4120142398
-28926.8769409244
-28926.0679935643
-28926.32083794
-28926.5417338545
-28926.7864903308
-28926.7308939646
-28926.6410492322
-28925.6605329602
-28926.4451302259
-28925.4148902095
-28926.4931434636
-28927.1602413538
-28926.5105270392
-28927.1926887356
-28926.851080463
-28926.9984373781
-28926.6151884986
-28926.32205837
-28925.9448647005
-28925.5523567441
-28926.8882405818
-28926.9860635519
-28926.9127640126
-28927.1123897517
-28926.5407602317
-28926.7230403551
-28927.0028898385
-28926.3471365045
-28926.9371162839
-28926.6572791816
-28926.1296937129
-28926.2120481076
-28926.8612032286
-28926.8577488813
-28926.1658415688
-28926.6736204256
-28926.7779892267
-28926.9694508745
-28927.5659792061
-28926.7473788846
-28926.2737633585
-28926.3440218911
-28926.4582648821
-28926.5288537607
-28927.136833045
-28926.7706656947
-28927.2889563037
-28926.2225995884
-28927.3911272425
-28926.8362482255
-28927.2689651987
-28926.7782548097
-28927.1037876934
-28926.4487164124
-28926.5570192973
-28926.4719256701
-28926.6058177191
-28926.3176138009
-28926.3748081548
-28926.4248800687
-28926.3852174562
-28927.3860509615
-28926.6859020053
-28926.2374706021
-28926.7634559062
-28925.6651482806
-28926.940785329
-28926.9931529301
-28926.5810435356
-28926.4880816046
-28927.1291787587
-28926.6223687628
-28926.9350433218
-28927.0664304282
-28926.8345122762
-28926.5046047566
-28926.947034284
-28926.7384598139
-28927.2378187926
-28927.0500685035
-28926.4618015438
-28927.0036674034
-28926.9468009465
-28926.7305060665
-28927.2327528518
-28926.4986143096
-28926.9740108198
-28926.6657628704
-28926.3223210957
-28926.9289187227
-28926.3169328363
-28926.5437321215
-28926.5122670702
-28927.0163586503
-28927.0376073288
-28926.7805257346
-28926.9769999888
-28926.2541528045
-28926.8820348929
-28927.0254743232
-28926.7414122475
-28927.0530538629
-28926.6699198154
-28925.5318259016
-28926.5325743713
-28926.4933161198
-28926.8213974843
-28926.619365716
-28926.5591620567
-28927.075794949
-28927.1031991115
-28926.8616711281
-28926.4675666807
-28926.1974300236
-28926.2244385328
-28927.3493235034
-28926.9559568922
-28925.5960954838
-28925.8184848943
-28926.9941064165
-28926.6360858783
-28926.8352004517
-28926.6419640784
-28927.3838348675
-28926.0463182115
-28926.8380534278
-28926.9380794304
-28926.6948033886
-28926.22426438
-28926.6362818001
-28926.8280439975
-28926.1850951096
-28926.5217819339
-28926.4028249812
-28927.1981594454
-28926.421310073
-28926.8336328047
-28926.5236138033
-28927.1300459851
-28926.5473026614
-28927.0340751569
-28926.1879469973
-28926.5126727917
-28926.5918562455
-28926.205273701
-28926.3687192026
-28926.3309133579
-28926.5987959612
-28925.4761379691
-28926.8480063945
-28926.7986890519
-28926.9037125586
-28925.6333534276
-28926.7969554155
-28927.0543668115
-28927.3788482479
-28926.6741831567
-28926.3175938005
-28926.3129409284
-28926.2181619582
-28926.7343151141
-28926.9270195051
-28926.3726470278
-28926.5870704458
-28926.7873295295
-28926.6593755456
-28926.4337290701
-28927.1214744036
-28926.3953852567
-28926.8468944019
-28926.8699676027
-28926.5901306365
-28926.934222899
-28926.5167010269
-28926.1859421996
-28926.4822974198
-28926.6581151149
-28926.7431384008
-28927.0591132908
-28926.8279834522
-28926.8667997911
-28926.7402610705
-28927.3599064133
-28926.5683619487
-28927.0121287789
-28926.4456737731
-28926.6360789394
-28926.7828474087
-28926.8289411564
-28926.6777701595
-28926.2998230072
-28927.0091323989
-28926.7233055299
-28926.3447847619
-28927.1229303479
-28926.7395735753
-28926.5237268665
-28926.935474622
-28926.8127399149
-28926.7386694775
-28927.0942503804
-28926.344198765
-28926.9119459028
-28926.2577328684
-28927.1622509135
-28926.7196377093
-28926.6737737617
-28926.3384826086
-28926.8177927942
-28926.5775653783
-28927.1079718497
-28926.8432693032
-28926.813917759
-28926.7528780304
-28926.1536466573
-28926.4034868978
-28926.5123405409
-28926.6437728182
-28927.0645426394
-28927.1419919125
-28926.3644583102
-28926.8607285263
-28926.7750708073
-28926.3415189893
-28927.0821003676
-28926.6747388129
-28926.6621444385
-28926.2072372735
-28926.5765816872
-28926.4344195586
-28926.4422787465
-28926.8899882321
-28927.0140599698
-28927.18416491
-28926.357656012
-28926.7506838416
-28926.0921754924
-28926.5968537496
-28926.9832630938
-28927.1928041118
-28926.5193876054
-28926.8968116191
-28926.5839584175
-28926.8913074393
-28926.7690667546
-28927.1962958747
-28925.6879126324
-28926.28857165
-28926.5829151336
-28927.1867358402
-28927.1741429624
-28926.8028001457
-28926.7845507044
-28925.7698158626
-28927.1968545242
-28926.8453131492
-28926.523751901
-28927.1265124527
-28927.1846740347
-28926.7673337985
-28926.7901041368
-28926.3682900793
-28925.4464193436
-28926.7891268405
-28926.6102025593
-28927.0758916854
-28926.2018442521
-28926.2561837251
-28926.8795809715
-28925.6419758943
-28927.1330931143
-28926.9482872316
-28926.7777324875
-28926.4655329029
-28926.7421427368
-28926.56802997
-28926.8242946789
-28927.0600165722
-28926.7983528554
-28925.4702246663
-28926.5402547805
-28926.7558529134
-28927.321751991
-28926.8233056816
-28927.1760770106
-28926.395445938
-28926.914605406
-28926.2923518535
-28926.6196117068
-28926.2829491007
-28926.3768539056
-28926.0884007312
-28926.5885359141
-28926.5016879699
-28926.5048863943
-28927.140210112
-28926.3354477245
-28926.4074068317
-28926.719455121
-28926.2455016297
-28926.5822383868
-28926.2513688093
-28927.1020663021
-28926.2863427667
-28926.2586717967
-28926.7271768915
-28926.1115702602
-28927.0710593543
-28926.1165168791
-28926.6139845315
-28926.3725155969
-28926.583272827
-28927.1948512231
-28925.4993666829
-28927.0055551922