0.0886065968896512 -0.192010141933372 -0.322740128579481 -0.631877585805914 0.132046390784157 0.645059110678859 0.733258702148485 -0.136296165002479 1.12236565387991 -0.14333584181884 -0.744083555082103 -0.225121048437677 0.775099784923775 -0.427336664873308 -1.41199898971801 -0.302000592760817 -0.658384617254403 -1.55027901689416 1.356195024223 1.80861150191778 1.44191941595883 -1.07105006085323 -0.95764647234364 0.649884811707577 0.00648560437153849 0.660736661210432 0.247879413414926 -0.648911135443751 -0.0366456573031124 -0.118879778301839 0.635489212549502 -0.531909804140464 -0.700632448339535 -0.449141408181021 1.16898718629167 -0.0487414058723503 -1.10984310240654 0.405713441354943 1.68426247579864 1.38139182217783 -0.0769597627003025 -0.286877114674068 0.140571393128938 -0.387781548736962 0.0376285895335342 0.109410410254118 -0.452717810829509 0.322122549919404 0.0675302467309794 0.276046091096053 0.515489462289589 -0.617151600062411 -0.599265730167225 0.578351359423977 0.122707634709508 -0.504643783431131 -0.489347784411445 -0.14863231159302 0.152627546729961 -0.994431483366053 0.870181958887819 -0.566612222678855 0.533415184263174 0.424256227768238 0.952842111460129 0.195702758384672 -0.58563040582091 -0.0641667313141918 -0.161063331841168 0.210705908905678 0.733144545227138 -0.256579250684292 -1.21431674003279 0.0457051917187924 -1.4073892612432
-0.00507201258423547 -0.322406913782037 -0.0319477400354512 0.186099950151864 0.324621403790048 -0.105192774808698 -0.577441446485587 -0.804168405127611 -0.363591851369768 1.13983037729499 -0.619137519117545 0.964256003823487 -0.775156349164081 -0.40398129005064 0.277571011592687 1.09717888322222 -0.0063861027306352 -0.764667282129739 0.417143531659844 -1.24696999041098 0.213951924968738 -0.296032808298269 0.308205432812288 -0.586767861271442 -1.83324394302047 1.41025809666748 -1.09608693627411 0.256022350027453 0.0986207814155997 -0.0523861998295725 -0.293340350459667 0.406748309842374 -0.801955972001066 -0.105692597004863 -0.226491445714201 -0.90758377723976 0.738838507344565 -0.0128017731323399 0.639553353215544 1.26344869627344 0.0440427172741396 -0.0987223399379687 0.598173526108938 -0.0950559487253567 -0.431891885989286 -1.09545290256231 1.33041150083007 -0.365321174462057 0.247046890641684 -0.222420105963029 -0.0421344454943355 -0.332593876351105 -0.520186351116517 0.765060403599871 -0.326664144195672 -0.153207330193106 0.334015181443904 -0.235506500068185 0.402120326544547 0.515724460997046 -0.15116047602455 0.0667272916288064 -0.115282035508144 0.455234662412978 0.195385484418588 -0.264520355802997 -0.393999758517959 -1.16454046567301 0.827633823108694 -0.64198998642185 0.763245462816573 0.0650223940039234 0.664329776020829 0.447367090806671 1.4252640754005
-0.0733928731285937 0.214409323984673 -0.345410304763888 -0.545678311561683 0.040763791107629 -0.792153389155902 -0.730819497840347 0.69108106214337 -1.22935331487761 0.439758686265043 -0.583531872505528 -0.194130529614327 0.0322680993237342 1.05821794871927 -0.187344620548796 0.364814153180761 -0.0436128290478081 0.612035364526663 -0.592832833383245 -1.94020177923692 -2.19718263602739 0.732971510073836 0.321400584524943 0.190409631042874 0.997838193293621 0.403589197021241 0.132632602001882 -0.270979734935848 -0.20505025620555 -0.152760986915049 0.0179087527014922 0.458520273444252 1.02056570504888 -0.383456441234959 -0.646320750347883 0.407718643673818 0.456694276923076 -0.740918014506389 -0.377477086814166 -0.31390865089631 -0.885929700499409 0.457397216163979 -0.278213272830352 -0.229952663000609 -0.354334856333381 1.44108020832083 0.578950683261046 0.446940545012721 -0.54355406722798 0.505172916188183 0.503707902364237 0.370869869325968 0.576347699766201 -0.629785480245113 -0.58011950615393 0.74734936862927 0.629477462245624 -0.185238888148284 0.0558253056402246 0.0518640090474677 -0.431661515265128 0.0862625233493017 0.971498540574403 -0.44727658802218 -0.129701031692892 -0.636981737163051 0.0459507319437605 0.353506190212887 -0.313608603312501 0.0152800581883264 -0.615741864927856 0.296381192596522 0.46169738397821 -0.0704361060216485 1.68989447436192
0.271504239709601 0.070243273384239 -0.463467844699812 -0.153036609031453 0.467331182312765 -0.139197653420033 -0.771761466304942 -0.0859203096954457 -0.566570827939358 -0.255772181819187 0.11918882474206 -0.13250996044449 0.610762926229944 -0.211991459821741 0.623016797561858 0.0997433244755061 -0.161237395435203 1.26788667514587 0.828962568535537 -1.83738598807202 -2.40592987955735 0.52914921210331 -0.610357977691384 -0.646102978022702 0.733984781305877 -0.443346915981959 -0.843956463089948 0.348212291540539 -0.331293155934232 -0.0204952811446113 -0.596414378235397 0.731825569987258 1.01130382491902 -0.0274483118292303 0.0638625699674513 0.426902919994229 0.508344113187927 0.187232006288549 -0.598114133656615 -1.35504034239019 -0.0693469872855598 0.762549208440434 0.368363816370195 0.936278302127022 0.669079115325132 0.0341946259265464 0.547867861881922 -0.0582395702605912 -0.593330341587761 0.0253592915906277 -0.790970168092757 0.504587733411191 0.387552463563719 -1.15212332937475 -0.867179683278445 -0.55965070735819 0.59586082001094 0.118114104176231 -0.83001363496451 0.674756879501017 -0.573831876623465 0.50711666917327 -0.420292102963466 -0.407971382983917 0.711594598110989 0.259663287331927 0.403259838876545 0.583559897515498 0.544047718779748 0.119172883910701 -0.203606582526811 0.0984284629985567 0.123429600103969 0.00513911834205397 1.30447448265776
-0.187602502062558 -0.0858079525453817 0.267262178796776 0.340215907732443 0.953499027978237 0.571895836943874 -0.606124658524788 0.604917011994238 -2.83304800077493 -0.651391477381203 1.26032095089466 -0.591167273616394 1.12129941795012 0.707042462317209 -0.474673477814768 -0.219558726734055 -0.314846074624303 1.44366673676395 1.44269408894085 -0.0868309939643848 0.683070280165014 0.836923985358716 -1.34325158337971 -1.19772670546099 -1.46246817602155 -0.528117428938077 0.739137012267275 0.0327650933078842 -1.50245240905368 -1.52890519025351 -0.33205008831361 0.640242408506554 1.15951319026065 -0.74815695171474 -0.166106548084883 0.433677001991332 0.566927439763474 0.514984754999943 0.615793544074682 0.621442511910047 0.220918325382884 0.204645050556807 -0.106524862667922 0.369322323133211 0.12471977900333 -0.268557499899802 -0.288798499073216 -0.523128720053203 -0.732103248985127 -0.372929579003685 -0.683992277282014 -0.0573839075708595 0.381471550620558 -0.34739211005609 0.172864689250627 -0.0170525757913942 -0.433649748311911 -0.621246079730072 0.529926713297345 -0.318323489852254 0.38482426740965 0.358415194940965 -0.781274800193992 -0.427245904978634 -0.572070928978642 0.804979330645464 0.180260463670738 -1.32817207113429 0.0264787493283355 0.436777493690693 0.620153875671785 0.485480590145744 0.283418725599675 -0.554778469386311 2.15296251272683
0.385200162497507 -0.0671057578184953 -0.0602419443674511 -1.58671307251649 0.0823842733457224 0.516667284038886 -0.985695393560855 1.38021888552202 -2.09160445305406 -0.531636753125892 0.875808301027061 -0.147915745512407 0.104321171287607 -1.55594649666272 -1.02537392258514 0.967724163084842 0.56715601071635 -1.04737509807283 2.17701182793399 1.68348188928241 -2.14197542326761 -0.419308142292311 1.09923962134066 0.67474993752607 0.763145704065487 0.84452801902723 1.74376188595698 1.01072918365954 -1.11727281537083 0.0347913786617829 -0.800406111816661 -0.50356006400889 2.08998491601 0.438893253388349 -0.505505102544893 -0.0501619396346001 0.0751941870721813 0.406350046168578 -0.161919251641083 2.03006924446504 0.225568934376834 0.0910077488906739 -0.608728413350182 -0.0230455570518973 -0.450949406989373 -0.815738106261996 -0.76364372649037 0.592432769938166 -0.428430411592695 0.945073527274359 0.0543620915875615 0.0793022935795527 -0.273731585226772 0.20252209177402 0.196204894572486 -1.22191126062452 -0.149251175804013 -0.714299654348569 -0.144667415457699 0.366651719660182 0.241797729141215 -1.5122051125233 0.0469197802242889 0.234162585140533 -0.114327899618242 0.330977167519064 -0.91909228615054 0.0784764556710737 -0.409989955032319 -0.68135329836152 0.772244319229015 1.54543017594896 -0.212354756510621 -1.15760697536231 -0.55350114599611
-0.208446424615606 -0.0737502562832592 0.465103065465045 0.845197791054499 0.943006618511513 -0.396936471030614 0.442893116508588 -0.0528243155817668 -0.508068491071523 0.167696260347687 0.979569486335631 -0.60572382374916 -0.214182295692896 0.45488756366564 0.785574196677674 -0.393765788251236 -0.930503350301883 0.512222877411873 0.296383506588171 -0.771109949100681 0.0619458135516012 0.380881482750085 0.182866275377598 -0.954803605047858 1.460001718034 -0.490036839702455 -0.569471030805996 -0.376046782864954 -0.0639762126684313 0.391465166331849 -0.80084062802629 0.685453434453212 0.851213140900941 -0.444093049733642 -0.296324885466399 0.489837579310466 0.185260742513858 -0.414050753265979 -1.01943133492055 -0.972894648869248 -0.56946254616995 0.300677503758005 -0.596573786548989 -0.485787322594317 0.431059106105861 0.4975040907535 0.493573904492911 -0.126414135110701 0.0193917642382627 0.288030768066143 0.204108718714626 0.354101143176841 0.462550989786476 -0.872542744590077 -1.19778738346423 -0.891407947173121 -0.399347393218599 -0.347856965267339 -0.155869706140273 -0.470176620710379 -0.817915829513807 0.272300252836828 0.0195012931763112 0.0107382068018753 -0.307250525591836 0.197505614989359 0.422286506654646 0.934849026618543 0.915692003977553 0.510264212036159 -0.0555543115071185 -0.489506164284304 0.777802784279889 -0.139179398597025 0.786515991278782
-0.116807727335328 0.0994013679318333 0.332379446458305 -0.233465816544026 -1.37020932897937 0.553632529299732 0.461833909485496 0.990698243505806 -0.30550371900709 -1.15370250012005 -1.23670872299896 1.54183603269783 -0.189628530306274 -0.860394802653647 -0.386415522333553 -1.03439051960023 -1.84635604814394 0.712199578372088 1.49534845469152 0.268820780727411 -0.60368545421665 0.0859107966186668 1.19922951448187 -0.455577133177017 -0.388831843835385 0.388328422096655 -0.628476532302378 -0.362877856390987 0.473787990343784 0.258248409993708 -0.141737130699624 -0.0945257875275722 -0.699973989160328 0.308475655614844 0.0437745513530488 -0.944140731529664 -0.113380705703287 0.406819272252941 0.880799838123951 0.799920173570389 -0.593536286844515 -0.863666272624845 -0.810913690784194 -0.00200160277631029 -0.385608710578632 1.17706378847693 0.790049713636856 0.390015579118896 0.0344391377107816 0.171016838363878 0.0290156555060945 0.695817803048696 -0.146786260477554 -0.739351185049891 -1.30171260506969 0.579492414417075 0.0466726973382215 0.339659778406154 -0.0267759687001293 -0.0815746333787859 -0.0435907175720518 0.296872530156642 0.566047351606337 0.741015973486193 0.604840907380007 -0.105548872412447 0.00135265667388162 -0.370736172030698 0.278413304552891 -0.0189428498583734 0.4885918804728 -0.698784854562969 -0.230855891074235 -0.253692931767547 1.3090471872662
-0.208751871513262 0.0376442732547102 0.223894889973936 -0.0308763619020042 0.474155657905778 -0.894783803878702 -0.0996294246643429 0.191804968007169 1.47704992295227 -0.70388849169974 0.754268974990071 -0.75159348642356 -0.0942635351406954 0.624002815114478 -0.938610548598943 -0.572532698867692 -0.558274910767819 -0.978223000306146 1.38486460942249 -0.175067609300393 -0.345951778809733 -2.34163433604137 0.733112920674603 0.489056221463682 0.735992811836768 -0.380026591390903 -0.14805844166409 1.28131759689653 0.803471379420922 1.70419699963367 0.422405548669473 -0.962218919841893 -1.19540062963347 -0.0272490514372405 -0.931257454469246 -0.259295105549567 -0.140673722981857 0.247600963086507 0.0710693684029012 -0.833936107919602 -0.237514787709259 0.670096757430288 -0.838171741077847 -0.437069313748639 0.232446631777772 1.05565327464173 0.235007963422936 0.511133758675784 0.689975231245372 -0.0383929781082254 -0.0497996713864535 -0.253481587196946 0.343529543773687 0.380851915079015 -0.351727759075605 0.531165727270246 0.0532732299616561 0.354145366128353 -1.01690111360755 0.253885507294773 0.28293098758212 -0.987488737088763 0.555067461232242 0.873890001950112 0.235669765034525 -1.19528030206773 -0.24102588437121 0.742249073924881 0.0349834399686427 0.114647487575976 -0.157204107991146 0.0648575863764841 -0.457980084949322 -0.0722669876363056 0.0351333352054557
-0.177960870192085 0.0748244626287216 -0.464456947574631 -1.00055199127743 -1.02501448254901 0.0335335956455067 0.304215596989194 1.5192856698588 -2.11609394089487 0.85898249641726 -0.896243675498984 -0.00344630489578204 0.148878880258721 -0.0222333459831286 0.447654539991503 0.6187369414521 -0.282956184380075 -0.0246319268823192 -2.62141906631152 -0.805149280476567 -0.402406233068279 0.850446438334601 1.36614133166058 0.994996097328388 -0.227678523430093 0.81755356126566 -0.531819558466156 -0.478564583327508 -0.765752801323263 0.428450466186985 0.540045027447494 -0.393175206160396 0.17787088162796 -0.30775420444075 -0.413433431716086 0.519303691857549 -0.264186112564821 -0.567375839922996 0.146981664216795 1.99141864195324 0.0256320854950163 -0.0706045131916528 -0.378342262580677 0.234804589268015 -0.557055180058658 -0.121602318031877 -0.43524306011728 -0.228379920009897 0.456356434142334 0.23724919289 -0.0289529206213906 -1.10158369488101 -0.134174748880791 -0.65256287137592 0.593647872664029 0.818846568377037 0.202224615292043 0.658096139628839 -0.387010475297507 -0.110715501544105 -0.146022386123229 -0.651788455504083 0.130203167880706 -0.050897017648405 -0.0714018118697951 0.210542386829155 -0.0889914908339205 1.17536480438626 0.102193841631706 -0.287137567289662 0.600252261940212 0.652694254679541 0.231867619645177 -0.0190022423106955 1.14447661541583
0.179304528009554 0.269598024811263 0.0908768798074187 0.674638351706556 0.362693765499807 -0.864335530431747 -0.0896823458962128 -0.041595799660505 -1.77448706707125 -0.172203401859404 0.185539192842277 0.420223968764914 -0.458848603148214 0.271388797237339 0.016718589663401 0.325356738914036 0.052160714198895 0.424433633794655 0.40738902841894 -1.02871506941599 0.0226274958939936 -0.26670707791122 0.619301555414435 0.405207705624564 -0.171556769748625 0.00263897892049439 -1.28694933834962 -0.80642840363805 -0.0839356761912274 -0.746026536736641 0.0279656175178541 0.261730453204957 0.285678209889747 0.142990542842786 0.499862819574292 -0.554899568282604 -0.317093988956132 -1.16944355686687 -0.964782565478706 0.878123064006524 0.0305686010126987 -0.102659725283687 0.432027640166023 -0.323111138573857 -0.000229342283425662 -1.10641659499486 0.388893293169173 0.155770461609553 -0.747222613308946 -0.495508401511403 0.719992588025263 0.344154064408711 0.119303495883773 0.647603215941748 0.242887619207853 0.20181221055817 -0.00828409010311081 -0.265268803546329 0.583593836059683 -0.207438295587229 0.25455193688966 -0.810152901752068 0.742227990889857 -0.158554964893745 -0.830880610502303 0.660134509161348 -0.381604733695462 1.16647753379333 0.963014675858936 -0.0426450663181958 0.244412282594304 -0.365392908203173 1.07484320738617 -0.476632400300665 1.32097478577562
0.270162895883781 -0.347899131337386 -0.107649205499111 0.49797871615171 0.122685780343935 -0.52690515442423 -0.366245999791072 -0.538616266159382 0.515795937627979 0.396080037010333 -0.71140099414303 -0.660846704368847 -0.254177070242536 -0.230302332849778 -0.350552251317957 0.548220617053289 0.365495238056092 0.660162791281502 -0.502606699449537 -0.283775851644157 0.549678688902288 -0.629911978455254 -0.541570462164495 0.345931981325626 0.0976972416375 0.0800800518837709 0.895964968060381 0.0737443427490453 0.931975048990592 0.732866094898719 -0.0965572150851352 -0.329986779093329 0.319636037337555 -0.0414579886023031 0.218949375599842 -0.366398723239901 -0.1290790821597 0.639101353513456 -0.287256095084123 -1.89607164450049 0.617344175589637 -0.341108080068191 -0.342888053866572 -0.560957341309276 0.414015529170879 1.9887680930745 -0.428181528935345 0.607942684630285 0.235431423894687 -0.24400064919098 0.0794200500434641 0.258089515900483 0.460749932953072 -0.455943000967728 0.00799304137571411 0.392503120141479 0.416924216673563 0.558465172303396 0.132949875967966 -0.171731861783392 0.826096561323266 0.325202215693925 -0.13809053697112 0.886088594592635 0.692866435255598 -0.572566380301693 -0.615010129346433 -0.551499028999433 0.229318372178623 -0.368871094761673 -0.629826360764244 -0.570390199710981 -1.40193981091 0.418113351270922 -1.21821941550377
-0.19391712816226 -0.0057384421791226 -0.0374645532366446 0.581904365045792 1.01209855249533 0.674513653267698 -0.111288600142486 -0.902763218414706 0.303676951155364 1.12104693575021 0.301986708810924 -0.372317399657455 0.464537165951794 0.442723423787668 0.887237105781045 -1.25288558150633 0.343610790591582 -1.49277683863902 1.08252823076239 -0.137570145960297 2.2005564358515 1.01337279056333 0.248064789857022 1.13902999329465 -0.195437420675596 -0.0879982741961701 -0.498716365267347 0.523292756350092 0.635137228708684 0.448230981022266 -0.888220809342017 0.604701553660706 -0.555196530544214 -0.113441897926892 1.08605706802699 0.216043002088806 0.0120690091101839 -0.467913022657375 -0.780255615427737 -1.50756401660613 -0.679747131046991 0.00887775751614876 0.622687696527345 -0.419902066815532 -0.0772677806997912 -1.94403426362789 -0.0439594135747787 -0.4319330236186 -0.0671605222875196 -0.694476973443242 0.343815964517786 0.503410168772077 -0.217544782668951 0.443879391171392 0.243102049100652 -0.96537828977321 -0.579742325515157 -0.136531677930301 -1.30378697002785 0.137376284882155 0.407184625823286 0.0360417054827459 0.214867494331158 -0.605242256376002 0.397153214915062 -0.369967926803258 0.368668749047485 0.122471350451136 0.180168675335332 0.279296478032227 0.327001215645864 -0.316221614104491 -0.207376332033075 0.36973112832452 -1.68641320248122
-0.0391105726295718 0.734921176593138 0.18061116196064 0.433908915376589 0.447358349060442 1.63477107952186 -0.37253542909282 -0.79949208511534 0.327805970519319 0.134941708557315 -0.211195446694515 -0.259992131256256 0.56545779795623 -0.699941079056877 -0.295346324109092 -0.118206920952371 -1.01999903420508 -0.563889425838633 -2.11195163873314 1.30727698365478 -0.105555300167027 1.09069405018123 -0.202203789367203 -0.128813744450625 -0.344068960938067 -1.75785280954794 -0.226490160163285 0.566326573265306 0.618810732074682 1.04851846705758 0.293507214968572 -0.0721474314011117 0.0170379205109511 -1.30855327860425 -0.50539840181886 -0.508654445179065 0.424572987513956 0.359291426445354 -0.484289655777103 0.378041186556135 0.79387551316306 0.123823235794468 0.329097434969596 0.508142795914472 0.835417576795274 1.51713288629476 -0.0270055680937382 -0.124203501755439 0.722843168626541 -0.409019364090691 -0.783844102254836 -1.07709394993001 0.086016211793784 -0.427988696297936 0.754396244530761 -0.0606486926772935 0.329474101388003 0.322600774860179 0.52674908854302 0.395416435627461 0.0344555927625072 -0.284511186768145 0.456936217605479 -0.0322531869331079 -0.155099146921184 -0.0775002083054154 -0.714222264183422 1.11640918226542 -0.492906960677658 -1.46111757622914 -1.00986169390138 -0.442885146092909 0.0111372418062213 0.715524270151211 -0.427452621565937
0.0517971603998324 0.29216098604927 0.398780465264615 0.000683913087345585 -0.175165311170014 -0.301386613643306 -0.729583569189644 -0.0643032568214777 -1.32097375733488 -0.353258078886087 0.766115583791776 0.491659976289077 -0.736015951753257 1.1227762588425 -0.0780195708755049 -0.393499422101427 0.742601314875882 -0.939657758375168 0.603356610292321 -1.58663439680043 1.50290723696779 0.613918182398329 -0.155426962404781 -0.109817415674143 0.763941717192713 -0.518172664161596 -0.360083840030015 -0.00974061929101033 0.372093199577694 1.02159234601045 0.02024228472433 0.0650164804697096 -1.23261707154331 -0.254653495412029 0.811226336766981 0.105788756213385 0.0239618977448671 -0.383686297738751 0.37151907253858 0.127911801927915 -0.00505555753250986 0.00815990588461911 0.440592237479018 0.362711248992265 0.695479188937405 1.03421259935344 0.666280470980863 0.258331970803252 0.61730355218069 -0.674667662267442 0.556747676279536 -0.00428294143195592 -0.269957721957578 0.178985197162004 -0.438640771188435 -1.36446908702896 0.282585174385699 0.0810593845716278 -0.603190002893599 -0.182894557497752 -0.38536445590458 0.531944514015197 -0.788754392533831 -0.20125196746895 -0.203329160639125 -0.595893473004208 -0.421934008593461 -1.48283130253199 -0.129722114727915 -0.242054839324427 0.257331812190555 -0.320716928547781 -0.208701220807169 1.49663014895483 0.487999755720862
-0.287806310876198 -0.0342982413303811 0.576300648602673 0.510023556904672 0.687329567460114 -0.38006155837582 1.21207139680279 0.514924591217071 -0.59654190488627 -0.147031800702522 0.804284618930423 -0.956880283997666 -0.04713035346434 -0.0621044505346433 1.08803604510717 -0.70935619685594 -1.07787350800551 0.243127245898607 -0.688507903429778 0.402864660524947 1.86218529368361 -0.212125928447562 0.0190978872988506 0.275616717090087 1.29022235098192 -0.271607083782887 -1.34031178554485 -0.235457906243558 -0.06428423066792 0.301763280061712 -0.488197216341569 0.341415583847313 0.341085968592434 -0.20708142665293 -0.22638654475945 0.683477542695223 -0.615752920665734 0.219285675719484 0.328654434123921 0.05426593237904 -0.220234155185355 0.0802183771623393 -1.13179774095106 -0.763184527703152 0.398336950198573 1.58940630168564 -0.0193151454036653 -0.00906364817861149 0.956095583718501 0.231791515030946 0.03672870389229 0.0853893771671116 0.099232960761829 -0.611647128150012 -0.777510192891393 -1.33221358610421 -0.652339442626708 -0.213892789626599 0.137326405506612 -0.902787129661745 -0.925621599253225 0.0807901902098041 0.125707082106867 0.49195796699142 0.056974588159185 -0.673701185088746 0.132604319881729 0.126107402662129 0.222151425821572 0.506398303321374 0.266296215838447 0.0595310347108682 -0.14116454632161 0.0837801245303838 -0.499586426127339
-0.34917594050722 -0.596967936459854 0.444704971969688 -0.43278688653705 0.983845228682457 0.338232045558774 -0.509992703682687 -0.432233328312593 1.2595820162281 -1.26641369090625 0.371381518590561 -0.999791973575853 -0.472012901638884 -1.0715758511779 1.3525008651106 -0.318340973344713 -0.328453373960648 -1.91594677588319 3.03969439699786 0.322519528042284 1.57753141076378 0.391995584639817 -0.19508235151258 -0.0798342545486196 1.17947933864821 1.01720784605613 -0.248121868317696 0.45716838810092 0.434024614959035 0.91372382552506 0.208084670587826 -0.11123692099566 -1.64016987914896 0.0685738569646394 0.884306306802605 0.439542456600961 -0.589717429293258 -0.552355977240081 -0.36759994201587 0.543681079658487 0.232372584045006 -0.062349476539245 0.6556232538867 0.537295491148218 -0.00161465195057529 -1.395485831091 0.369615428742074 -0.164193905431965 1.0470585954373 -0.178884409970184 -0.0587746165518566 0.282163513685231 0.0665162041683888 0.527830236863429 -0.0569013117569694 -1.73517132051548 -0.194028971091958 -0.521171340228405 -0.399409870993119 -0.467282588488138 -0.362930049758179 -0.802734758746017 -0.674341646555128 -0.318443817417998 -0.0627839927488743 -0.0769620766919514 -0.506810450945064 0.639300356795263 0.629794221991342 -0.572690821630368 -0.06189850527789 -0.0825925325941247 -0.2006477585384 0.67040426120941 -0.449837148336795
0.276566996327241 0.0334526059377947 -0.622718549749331 -1.9294933972163 -0.230806011698692 0.225473803609045 -0.641007311301611 0.208676281119398 0.050159368532768 -0.0222354028645943 0.275710819417143 0.399675980032744 0.671448128553253 -0.685303796326582 0.315865773610925 0.135142511610404 0.0450369623526228 -1.01649436529771 0.0675940100564161 -0.376182022821324 1.64502386229783 -0.460245225663425 0.763864327027566 1.12933513961625 -0.047106185107118 0.885474615475123 -0.744212624394076 0.162247838455228 0.102991140309848 -0.316693925511053 0.141815035085138 0.284154317833846 -1.32152088780476 0.714299654348569 -0.586256726227216 -0.277290247272618 0.141721961198815 -0.0910352596802776 -0.116066478677126 1.67640390304875 -0.174974278303887 0.964292513469503 -0.184593541588421 0.0996600207761452 -0.155866877928257 -0.719352383669064 0.10954025089664 -0.805870474540478 0.514973185041698 -0.100980795787308 -0.773010764685172 -0.465050872097852 -0.3513127832399 1.06175681328101 0.11996992547866 -0.158614871566434 -0.479332571444764 -0.304285530959028 0.59491568297745 -0.154056050907891 0.157617541165752 -0.612480679363987 0.523923704739696 0.358366601116338 -0.27830197584356 -0.222355571307042 -0.248171233472873 -0.496100012042975 -0.341650839664953 0.0234715886254806 0.0498662629239056 0.658618587521127 -0.140097281951094 0.689006440075027 0.373013654033595
0.183437574204697 -0.299238458062564 -0.0901482295481941 0.133611420469372 0.615482183642812 0.0637738669542429 -0.539851423479535 -0.0903696014159402 0.602147163990489 -0.325553685314377 -0.778550203582488 -1.01617940532328 -0.207545253423445 -0.193780859765158 -0.295036249228137 0.719945536861735 0.362976586701341 -0.336994831357155 1.86662918609026 0.585647632203185 1.12222604305042 -0.288469655148887 0.0259056507299545 -0.173471983503375 0.13937505944645 -0.23969173963052 0.373594465937472 0.227737401662049 0.447275816691631 0.821279859150961 -0.0826190149429956 -0.0880455824698812 -1.55819466810473 0.0125037824299964 0.121768668320416 -0.123861288101583 -0.331277729323239 0.702747179596459 -0.0124353911212619 -0.355739706374455 0.507740161367561 -0.15911957885608 0.287075089515141 -0.608334263439317 0.116470655885136 -0.0930309489223741 0.304531585404363 1.17086306218839 1.05822746179605 0.0143567755204098 -0.295684938220383 -0.480005171684048 -0.366911400945227 -0.22815443437922 -0.740088319945162 -1.18797117377936 0.0456452850461039 -0.00317556787285914 -0.0767576740962973 0.221625378386719 0.135287264643552 0.944209122838398 -0.619557894267098 0.784846574859182 0.460784385717622 -0.107387724442784 -0.712968594930077 -0.930051607709978 0.535223954402074 -0.824131211082789 -0.0395682287556903 -0.117637936116922 -0.564220583754611 -0.194155726412282 0.0610143033578218
0.270610010492388 -0.335751189400956 -0.0816625650614446 0.754471063594076 0.43685411252529 -0.958281020275809 0.285532942636232 0.63285126206974 0.241475055861283 -0.149331394181176 -0.23224325762285 -0.0440817980219879 -1.99276692775401 1.1635925004275 -0.464882207817665 1.16502049038507 1.45011403171819 -0.200710236312921 -2.90562712017366 -1.8633188924814 1.23131506557553 0.0140767825308913 -0.789600027926417 -0.366010229753066 0.207609788079432 -0.0824104985844101 1.21358037646807 -0.204472015403505 0.169012407375552 0.867298982403456 0.744182799612823 0.381232952370536 0.002256398967874 -0.564227525729558 -0.0945155031202438 0.158067226876191 0.680642388704937 -0.839805162071797 -0.843794997894891 0.19533689059396 0.117282095623355 -0.165848409460938 0.94534889228058 -0.881205815103244 0.18685996785344 1.18162003803364 0.781571248235236 0.00742225676898208 0.824480366711592 0.188197712136695 -0.218505346313433 -1.08177284104412 -0.20392899869656 0.933791789545172 -0.487192686855757 0.390422070318556 -0.235201824501078 0.0528713667452947 1.58770551782369 0.279540732706279 -0.100909576266559 -0.0808207863216065 -0.387114862031892 -0.0189114824160215 -0.183950509020206 0.191605707615179 -0.0195696844850458 -0.0331193911403512 0.132526415496215 -0.322501530329459 -1.70302560563895 -0.142870986607592 0.525479221348133 0.0248599836148288 -1.33677549208495
0.118751480320416 -0.211540488560386 -0.330604871973772 -0.537903299621333 -0.0922627036949347 0.806873975585557 1.17139399471672 -0.50527113227817 1.13049444943236 -0.368564362313101 -0.60276191443855 -0.32566038604041 0.662976862236764 -0.614360669023638 -1.43614934922718 -1.08900072251459 -0.311668964090345 -0.938776898887482 1.06915027370947 2.52467724611484 2.0429412086774 -1.03336619263031 -0.568468815311833 0.800722614452195 1.01511419783423 -0.309766091624388 -0.0251140084758429 -0.651634189394156 0.0539064923429088 -0.0264404399110368 0.102107709720329 -0.505604347075613 -0.496814007021757 -0.0296980259323408 1.03894368383474 0.394072263589625 -1.16212825793411 0.373263565131678 1.41467730649654 0.16458805534283 -0.060435291225227 -0.103172917209379 -0.340505928019107 -0.593813194511835 -0.246218995851739 1.35407386521149 -0.400441139937985 0.0524695035289334 0.30544612632605 0.14224980840495 0.644421991644858 0.0164517092932263 -0.0389943588267597 0.120001035810829 -0.272448605412541 -0.795883286583767 -0.869214967488756 -0.212744278438188 -0.110189196999069 -1.13675508239359 0.606838910613753 -0.176193237682498 0.458503561282343 0.71392838724401 1.07854482269388 -0.0615349514788274 -0.330264972311565 0.631327112903656 0.363387448774114 0.20385058009068 0.219360494782798 -0.790625640447252 -1.47641306102846 -0.164618651454632 -1.44148335708811