4.73107033344123 -4.01365393041941 0.984562450993917 -4.01365393041941 2.32460149807973 -0.305925313000298 0.984562450993917 -0.305925313000298 -3.52675871395414
1.09753744654068 -0.966824567897227 0.867663073753922 -0.966824567897227 -1.453617357328 1.99224456415186 0.867663073753922 1.99224456415186 0.606237316467026
3.20879480792384 -0.428205295154935 0.669757000114129 -0.428205295154935 -2.60766045126403 -3.15664159889856 0.669757000114129 -3.15664159889856 -1.19128909036693
0.873081799871437 0.867741850025128 2.58720570053646 0.867741850025128 -8.343671634857 0.397826263549982 2.58720570053646 0.397826263549982 1.74883357466603
-2.11965633408399 -3.36619694120055 -3.79335201993231 -3.36619694120055 8.25027199235986 -5.77868285755977 -3.79335201993231 -5.77868285755977 8.79294699804422
-7.67404234737913 0.664820635235673 0.49121762069342 0.664820635235673 5.25740947448982 -3.17614606151167 0.49121762069342 -3.17614606151167 1.0080811412624
-0.583144635535553 3.68263187903335 -0.372428506728589 3.68263187903335 0.296472692856311 0.289122130223509 -0.372428506728589 0.289122130223509 2.91817336522203
-5.8100884613782 -2.05404367837846 -1.59112155383163 -2.05404367837846 -11.2986262254664 -4.15798315461226 -1.59112155383163 -4.15798315461226 -6.43378593457004
6.42770587231378 -0.405423386265405 -1.51429662154761 -0.405423386265405 9.23076557602956 -1.25922892820182 -1.51429662154761 -1.25922892820182 1.00147631176819
6.17448152030855 0.159011091094808 3.34192801622986 0.159011091094808 -3.56292648181925 0.975627372480007 3.34192801622986 0.975627372480007 8.04757827134061
-4.79645311430324 0.114786912137172 0.338894692976411 0.114786912137172 -1.56602144415713 -1.64254605224857 0.338894692976411 -1.64254605224857 1.72726972549268
-0.363459279108213 -4.15224691587261 -0.737932475765159 -4.15224691587261 -5.53449356823869 0.677355929247123 -0.737932475765159 0.677355929247123 -0.0798509022283194
-3.11967485076911 2.67950908699217 0.258597386218956 2.67950908699217 -2.58872489821317 1.21320688641021 0.258597386218956 1.21320688641021 -7.10867708499769
0.968163706212034 3.26567136136805 0.574376913789004 3.26567136136805 -0.388770400162863 -3.18791728133548 0.574376913789004 -3.18791728133548 -1.0910653165861
-2.75237676948382 2.32977854166676 -1.3720721682372 2.32977854166676 0.502178413574814 -3.40273897722825 -1.3720721682372 -3.40273897722825 -4.37691021667666
-2.33959710018008 3.93588470499045 1.76200906607312 3.93588470499045 -1.89117432264556 -0.382621609091951 1.76200906607312 -0.382621609091951 -1.74494950388431
-4.42234881411646 -0.29847431624687 1.49510987771368 -0.29847431624687 -1.26783126992936 6.02151395804464 1.49510987771368 6.02151395804464 1.22128022978077
-2.10578410657083 -2.66889801566626 2.39650803173173 -2.66889801566626 -4.05180101102621 -1.34623511290722 2.39650803173173 -1.34623511290722 -3.16391442877806
-3.62269286572279 -1.99673822091013 -0.395502481170645 -1.99673822091013 -4.97673955473062 2.98549442383675 -0.395502481170645 2.98549442383675 -0.0219723600650358
0.803159839117782 -0.326363363197067 2.29984182502933 -0.326363363197067 -3.09025309527223 0.83120669064253 2.29984182502933 0.83120669064253 -6.73634379348946
6.94154391645458 -2.63068492155094 -0.731828397929398 -2.63068492155094 5.08599084833182 0.236003832468356 -0.731828397929398 0.236003832468356 -2.64800630375045
-3.85113998319304 0.0711653443944699 -0.476260381716837 0.0711653443944699 -3.06010980896221 2.79187120316767 -0.476260381716837 2.79187120316767 2.76723704549266
-5.73325451223561 -0.903101674319476 2.96390283539956 -0.903101674319476 -8.49780245676145 -1.74615669476133 2.96390283539956 -1.74615669476133 -3.75171493427399
-7.69821589297778 -5.28004433005393 -2.4070790328187 -5.28004433005393 -5.99828565436273 -2.54573565913314 -2.4070790328187 -2.54573565913314 -6.46417191877926
0.625706294228307 -0.766283479275196 -1.4967335584404 -0.766283479275196 -5.76917741770858 6.08616518791235 -1.4967335584404 6.08616518791235 -6.2653321884623
-1.50960457704864 2.70905403190365 -2.30283316389783 2.70905403190365 0.990849549662833 -3.48581420518504 -2.30283316389783 -3.48581420518504 -4.82524517536637
0.963582669324643 3.27233772602557 -5.35323705180357 3.27233772602557 2.50641304015213 -3.23664947901354 -5.35323705180357 -3.23664947901354 -4.77398935030072
2.81781782844 0.620137514367105 0.454223530260116 0.620137514367105 0.125115463424942 -0.239351321334672 0.454223530260116 -0.239351321334672 1.10699986117286
-7.88905728613663 -5.13731859842652 -2.49098925560854 -5.13731859842652 -6.46325719996426 -2.8072172902849 -2.49098925560854 -2.8072172902849 -6.31069104288355
-4.53225710232508 0.298102172381918 4.30039985713915 0.298102172381918 -2.82645022702855 -2.91201659132336 4.30039985713915 -2.91201659132336 -3.22115958490461
-1.06861273081435 1.38878868260415 -0.267153182703588 1.38878868260415 0.864679003559706 0.118281561807696 -0.267153182703588 0.118281561807696 4.62317759686286
-1.21556009213738 2.32188247044979 0.0162694467398884 2.32188247044979 -0.0604293736052998 -0.0348631001569038 0.0162694467398884 -0.0348631001569038 -1.10399817163529
2.6788357200325 -1.66597014820203 -2.84211186412539 -1.66597014820203 -8.03650716009749 6.03844993916416 -2.84211186412539 6.03844993916416 -8.76433132783359
-2.82083583340726 0.671239355348356 2.73930878619896 0.671239355348356 -9.40550367959782 0.209252754501309 2.73930878619896 0.209252754501309 -1.56260173815913
-2.05167159782837 2.89053239891091 0.116227701354809 2.89053239891091 10.5388204858893 4.50003339375903 0.116227701354809 4.50003339375903 2.21590639322104
-3.98078995923394 -0.536673559479766 0.146617003363029 -0.536673559479766 -6.7111858520511 3.44411639975417 0.146617003363029 3.44411639975417 -8.56187972469009
1.36724023079691 0.749434474334329 -1.9086164091404 0.749434474334329 -1.15705889096943 1.16979715398928 -1.9086164091404 1.16979715398928 -1.47763851030225
0.490940078258818 3.0733850817529 0.0150287779058822 3.0733850817529 -2.71519920832938 -3.88994868130584 0.0150287779058822 -3.88994868130584 0.358185873423525
4.113199093936 -0.497410122987609 -3.07738350815411 -0.497410122987609 -2.16728696444601 1.49496339161661 -3.07738350815411 1.49496339161661 1.31458389646725
-5.60397967567197 -0.082091903909025 3.60238590094898 -0.082091903909025 -7.70939556416226 -1.63459467489441 3.60238590094898 -1.63459467489441 -4.65509384519412
1.40475286044069 2.90804808571827 1.44878242770824 2.90804808571827 0.893171221713036 4.8663155060938 1.44878242770824 4.8663155060938 -3.70477358865478
1.34920454982088 3.03194851437443 -1.69277522514701 3.03194851437443 4.77738785763713 1.56487665258035 -1.69277522514701 1.56487665258035 1.83822850375224
0.563886395526662 0.697508764134876 2.53080766143957 0.697508764134876 -8.22044811677731 0.363452842614342 2.53080766143957 0.363452842614342 1.79321218672223
0.626478464964005 3.14241598025945 0.275650524584162 3.14241598025945 -1.91953001664971 -3.71376434030662 0.275650524584162 -3.71376434030662 -0.122789779132945
0.103947984908706 2.162917685985 -1.27136381542187 2.162917685985 3.37431151011338 -2.11094369353065 -1.27136381542187 -2.11094369353065 -0.565716917868535
-3.98863219100594 -0.841563508414415 3.44743379331178 -0.841563508414415 -9.39249819198211 -0.0865917436310652 3.44743379331178 -0.0865917436310652 -1.69124499279424
-2.24467603266128 -0.952776157748313 3.06287928677283 -0.952776157748313 -8.18472399918819 -0.201859355455151 3.06287928677283 -0.201859355455151 0.0134572903636767
0.305073702396145 2.58894737855358 3.03611020261369 2.58894737855358 0.683281511531091 5.09222337492743 3.03611020261369 5.09222337492743 -3.5940189597354
-0.250673845184098 -1.88385192744413 -1.63824220034456 -1.88385192744413 1.72433220778152 -0.134199129239972 -1.63824220034456 -0.134199129239972 -3.54235060012679
-5.28878456612915 -5.8003597446452 1.22627579556053 -5.8003597446452 -4.08006282081182 -0.421297205836746 1.22627579556053 -0.421297205836746 3.88947598959996
-3.82227723866185 -0.847850587484992 -2.17025923213372 -0.847850587484992 1.75129793480507 -3.23652566182796 -2.17025923213372 -3.23652566182796 -6.96547976790949
-1.17313169908914 -0.424152879762206 2.73820213517374 -0.424152879762206 -7.94883972769552 0.0268451189722915 2.73820213517374 0.0268451189722915 0.934210140235745
-6.46447448267496 -0.679308296769774 3.72238855303112 -0.679308296769774 -3.75552554311745 -2.19808700905992 3.72238855303112 -2.19808700905992 -2.25055391002994
-1.14349246064095 -4.10004043718973 -0.498728037050633 -4.10004043718973 -5.42263412660578 0.146036386539688 -0.498728037050633 0.146036386539688 -0.022043228156934
1.50923038609352 -1.21932172435804 -0.895306161241921 -1.21932172435804 -1.6456579916161 0.217431496301609 -0.895306161241921 0.217431496301609 -1.92277656533384
-0.548222879236262 -5.49486065593949 2.48595075192849 -5.49486065593949 -10.436445687212 -1.76340815533139 2.48595075192849 -1.76340815533139 3.7516634823311
-1.26235337773817 -2.03461662058975 -0.326726756591055 -2.03461662058975 -0.524742972706845 0.0940577026550006 -0.326726756591055 0.0940577026550006 2.79697905263554
-1.02363814775995 1.59994916928699 -6.49584851406914 1.59994916928699 4.7092843473353 -2.71963915396811 -6.49584851406914 -2.71963915396811 -4.0671092090623
-1.12650131306922 -2.04570456368502 0.504607125708971 -2.04570456368502 -3.55134312255719 -3.2867653323206 0.504607125708971 -3.2867653323206 -3.47769775826453
-6.40297967422444 -5.37872438695118 -1.84365951709186 -5.37872438695118 -4.77801250225309 -1.77168482122942 -1.84365951709186 -1.77168482122942 -7.30543163003818
1.05440060606831 3.13391291248082 4.51581673710065 3.13391291248082 -7.98522075151229 0.708258992965078 4.51581673710065 0.708258992965078 0.199697084482635
-3.70783171647689 1.82645043811639 1.07115138475999 1.82645043811639 -0.755299053356403 0.650930456892609 1.07115138475999 0.650930456892609 -4.98772029416446
5.57967323230335 -3.60250469041172 0.500767578295698 -3.60250469041172 3.52479937653825 -0.0971316423418379 0.500767578295698 -0.0971316423418379 -3.32621912997272
0.330345670713709 2.95309008668316 -0.690722766037756 2.95309008668316 -4.2569544385153 -4.03171875393777 -0.690722766037756 -4.03171875393777 1.25881721491663
-1.15802054674446 -2.17401970568063 0.59812853711565 -2.17401970568063 -3.96021177542326 -3.0398039352042 0.59812853711565 -3.0398039352042 -4.30160934227009
-4.13319502777006 -2.6504433098516 0.226449465551957 -2.6504433098516 4.02686223525001 -0.555293472049146 0.226449465551957 -0.555293472049146 0.100425415157824
-5.56111564232607 1.04699170791945 0.43578974230155 1.04699170791945 -0.693426445297435 -2.81755883701883 0.43578974230155 -2.81755883701883 -1.93775690444777
-0.897184762802401 2.09700199783367 2.49069202807831 2.09700199783367 -8.47103105893729 1.08197804230498 2.49069202807831 1.08197804230498 2.2014503732047
-4.06676805585054 0.734901141992747 -0.276474063064795 0.734901141992747 -5.38769969049345 -1.01610125741762 -0.276474063064795 -1.01610125741762 -0.129966439902254
-2.77622730587532 3.23847327949975 0.0137573206435843 3.23847327949975 -5.97342862344431 1.18312957534825 0.0137573206435843 1.18312957534825 -6.32286456779135
-1.86322825794913 1.63058437289862 4.59679390729255 1.63058437289862 -0.438284462014789 4.36207284469695 4.59679390729255 4.36207284469695 -2.31813014032466
-4.21374003493386 -0.0301177000547579 -0.394268073444103 -0.0301177000547579 -3.29925714236212 2.87760934159551 -0.394268073444103 2.87760934159551 2.44227167716764
-6.7270844559062 3.81676744867653 1.15343272465008 3.81676744867653 7.7302908433502 3.24896281821965 1.15343272465008 3.24896281821965 3.60033967473557
8.46849656040119 -0.969010277546549 -3.25326147113381 -0.969010277546549 6.06883515398254 0.618424536681393 -3.25326147113381 0.618424536681393 -0.492126567922517
-5.81229349754846 -2.47662811065031 0.918145345714434 -2.47662811065031 2.20276072212175 -0.311302499190731 0.918145345714434 -0.311302499190731 1.39692070839385
1.85868379861457 2.96551803491402 -4.12420396516624 2.96551803491402 4.61679505771752 -2.46893835052021 -4.12420396516624 -2.46893835052021 -0.893444572724601
1.37434580177591 -1.00320495514248 0.490355785249017 -1.00320495514248 -1.53629817121596 1.99066454103385 0.490355785249017 1.99066454103385 0.985210247426923
7.71869337222325 -0.0701500107671525 -4.74170229029221 -0.0701500107671525 4.800891361877 1.01059859261429 -4.74170229029221 1.01059859261429 2.33248785800782
-4.04540643250909 -0.685065480204016 3.430742938413 -0.685065480204016 -9.5340535802306 -0.00812330608937569 3.430742938413 -0.00812330608937569 -1.81149725793078
-7.79024016189165 -3.83822662767942 -2.42560381243081 -3.83822662767942 -9.22229000996293 -4.01584521348672 -2.42560381243081 -4.01584521348672 -6.1472682431742
-5.62093692236206 -0.158259389076213 2.32750446348293 -0.158259389076213 -0.52116453988891 5.9756562427053 2.32750446348293 5.9756562427053 4.14748743785939
-4.16822838119147 0.576718812086164 -2.59660128664387 0.576718812086164 3.27171762117127 0.880111172946658 -2.59660128664387 0.880111172946658 -7.36341459601955
-3.42313528071674 0.153233873477328 -0.582835983047694 0.153233873477328 -2.83482665933057 2.71442861588409 -0.582835983047694 2.71442861588409 3.07288642705427
-2.76431654725342 -3.65824975905178 -0.126525931516077 -3.65824975905178 -4.82173821625397 -1.92539461002725 -0.126525931516077 -1.92539461002725 -7.58055363605016
-2.93570459419851 0.839065813436191 1.96739392441395 0.839065813436191 -0.919074534032796 1.08524649219498 1.96739392441395 1.08524649219498 3.12239160892392
-5.43275158718382 0.990314144521563 -0.948385521467222 0.990314144521563 -2.90505459733644 1.50943042995625 -0.948385521467222 1.50943042995625 -2.16631219114092
-4.06142054279313 0.221234071261764 0.0546256966078431 0.221234071261764 -2.02934462898137 -1.39841783316078 0.0546256966078431 -1.39841783316078 2.1222083132147
-4.03979567768762 -0.509377322203402 3.39494566340885 -0.509377322203402 -9.64565567576656 0.0704457998791939 3.39494566340885 0.0704457998791939 -1.89390823521371
-0.414722179923099 -0.0518402724903873 1.0504476267789 -0.0518402724903873 1.83350858492317 -2.23458858787512 1.0504476267789 -2.23458858787512 -2.06815402882703
0.722361847361192 0.510541456029715 0.771243476129995 0.510541456029715 -1.18945296670753 4.47266903234543 0.771243476129995 4.47266903234543 5.71643491990718
-4.76679744739164 0.0299456150321576 2.31670167203329 0.0299456150321576 -0.484574497793096 5.74683575753498 2.31670167203329 5.74683575753498 5.48549220816342
-1.81230105788846 -2.60924126249739 -0.773327161509409 -2.60924126249739 6.52310315624348 -1.07045795384508 -0.773327161509409 -1.07045795384508 -1.2829753417408
2.61457458854214 3.44996950257583 5.73937455179473 3.44996950257583 -5.58868622869372 1.23458678751181 5.73937455179473 1.23458678751181 -1.84262738949835
-5.39307714382047 0.1230671762028 0.590722445773439 0.1230671762028 -1.27716380637128 -1.90617381807448 0.590722445773439 -1.90617381807448 1.14315732561712
6.16222300033952 0.600863895529389 3.85846232465509 0.600863895529389 -3.44351595733883 0.291001348507507 3.85846232465509 0.291001348507507 7.9351756606908
3.49888267549485 5.11355963059126 -4.05540966310922 5.11355963059126 9.7230006445991 3.4464743044639 -4.05540966310922 3.4464743044639 3.83828926883814
-0.201285627947168 -0.42040669128206 1.09305739733336 -0.42040669128206 -4.5811589753039 0.677746544733503 1.09305739733336 0.677746544733503 -6.59911109345779
4.157995697549 1.06649889644926 -1.84409809183504 1.06649889644926 5.03009479515181 -0.296999692682072 -1.84409809183504 -0.296999692682072 -3.12659676478035
5.08312616154235 -0.532930204270273 0.357090289155716 -0.532930204270273 -1.38507748521005 2.56455753120923 0.357090289155716 2.56455753120923 5.47267920425768
7.36082740223193 -2.27370669756811 -1.22897206627371 -2.27370669756811 5.45993057309253 0.329459883727695 -1.22897206627371 0.329459883727695 -2.32355917997427
3.25106467874881 -0.00819596137499699 -2.715595202249 -0.00819596137499699 -2.31126110774915 2.03533040812425 -2.715595202249 2.03533040812425 2.95054609499892
-2.31241867563269 -2.73618770895 1.94358266515282 -2.73618770895 -3.41892670707232 -1.47795990014986 1.94358266515282 -1.47795990014986 -3.03701140544068
6.15735464394314 0.37995054914485 3.6351297219603 0.37995054914485 -3.54081575586052 0.638640284732833 3.6351297219603 0.638640284732833 8.01938180322747
-4.39690178382611 1.22490821019475 -0.813945520780876 1.22490821019475 -2.3939574140614 1.76953352189372 -0.813945520780876 1.76953352189372 -1.55407735462819
-4.66470958062553 0.721233756440044 -1.53570685781911 0.721233756440044 3.10706405340901 1.20388448318319 -1.53570685781911 1.20388448318319 -7.91437498511775
-0.326911755670527 -1.16870952652213 -2.14399626427254 -1.16870952652213 -3.67230872203225 -0.367775725129343 -2.14399626427254 -0.367775725129343 -0.740999979519861
1.88253396089001 -1.67490153873303 -2.52204182113353 -1.67490153873303 -7.96754814623744 5.71404425776027 -2.52204182113353 5.71404425776027 -8.94203631422756
-3.65164031795614 -4.23590276882912 -0.58701840582993 -4.23590276882912 -4.71543893133807 -1.70318016339388 -0.58701840582993 -1.70318016339388 -7.93439432105337
3.67112376753014 -3.72396379434174 1.66068655693618 -3.72396379434174 -4.63230901715078 -0.875634730020896 1.66068655693618 -0.875634730020896 2.68980898388603
-2.2643770483859 -3.19217999576492 -3.53102976785117 -3.19217999576492 6.96793459901172 -5.7738925449935 -3.53102976785117 -5.7738925449935 7.93338752106699
-2.40392616519199 0.276219047422515 -0.875149457180246 0.276219047422515 -2.45041848010469 2.58169089868172 -0.875149457180246 2.58169089868172 3.58811277443901
4.11977974856741 0.171159931582994 -5.36566483195059 0.171159931582994 3.97648306166071 -1.57029286068584 -5.36566483195059 -1.57029286068584 -6.48815554605302
4.75115930589417 -2.48793815004594 -2.96679936387198 -2.48793815004594 13.6890102298764 -2.86514167602064 -2.96679936387198 -2.86514167602064 5.64467687806121
-0.633936799360392 2.21353965065922 3.95817563567583 2.21353965065922 -1.56388540999237 2.16376775318878 3.95817563567583 2.16376775318878 -2.11137628216726
-9.38111133078413 -0.279734949160762 -0.641392276290033 -0.279734949160762 -5.04322151201259 0.447575918657219 -0.641392276290033 0.447575918657219 -2.20590988481058
-1.26494299391789 -1.94229956485457 0.0734483028726517 -1.94229956485457 -2.45099706993553 -3.84923513202971 0.0734483028726517 -3.84923513202971 -1.65938758341917
-1.91838092173964 1.70980159405407 -2.80209859956534 1.70980159405407 -9.5479931712907 0.686116209492002 -2.80209859956534 0.686116209492002 -4.31155426044774
-0.384609889321885 -1.55424544315008 3.82765869304588 -1.55424544315008 -6.84658289279164 -0.508422661911807 3.82765869304588 -0.508422661911807 -2.98731242802067
-5.49216859019342 0.358965267332904 1.11003105744482 0.358965267332904 -5.16633857830664 2.22834592875118 1.11003105744482 2.22834592875118 -7.32289145359123
-6.18259925441549 -0.505632716445141 -1.14213507714667 -0.505632716445141 1.66759652757005 -3.60486383724418 -1.14213507714667 -3.60486383724418 -5.05236141765576
-4.36955227776595 1.21454008998606 -0.684051315049622 1.21454008998606 -2.43506313608043 1.80485842600556 -0.684051315049622 1.80485842600556 -1.29231851939404
-4.67457371788408 1.48848992429387 1.28488871468621 1.48848992429387 -2.08003397923506 0.960227326392903 1.28488871468621 0.960227326392903 -5.61829283809257
-1.10016984495746 -1.43887381969717 -0.487041481924987 -1.43887381969717 -0.415345020118771 0.140920631826011 -0.487041481924987 0.140920631826011 3.32276016095017
6.15304475674946 -0.550535583498636 1.76225360796377 -0.550535583498636 -2.91999755561531 2.088796772686 1.76225360796377 2.088796772686 7.47271093484177
-4.70860198748445 0.613927150871081 -1.77600354359134 0.613927150871081 3.29711768972281 1.16207639272026 -1.77600354359134 1.16207639272026 -7.84949714328025
-0.950741144093968 -0.812451523134846 -0.627242209350306 -0.812451523134846 -0.291395987021008 0.190148228818794 -0.627242209350306 0.190148228818794 3.76592271361897
0.609646916400692 2.86584021767046 -2.55352110066191 2.86584021767046 -6.54371013956316 -3.42051896947765 -2.55352110066191 -3.42051896947765 2.55352110066191
-5.49491000493071 -2.61360109224982 1.58692780152444 -2.61360109224982 -4.51515457964171 -1.05427203509971 1.58692780152444 -1.05427203509971 -0.612692125110306
-3.30939948265659 -3.53278394773591 0.319908616656803 -3.53278394773591 -5.01374021622473 -0.424706266940929 0.319908616656803 -0.424706266940929 -0.115828981892981
4.45826882434059 -0.195152334481 1.40729570780665 -0.195152334481 -2.89430152406328 -3.55946863595627 1.40729570780665 -3.55946863595627 -1.67940952630832
-0.603164439771608 1.9897493587868 0.783420479243583 1.9897493587868 1.00758504115104 0.538457143550899 0.783420479243583 0.538457143550899 -1.58301778254234
-2.36297401225941 -3.36311650116921 0.0879246144096525 -3.36311650116921 -4.83035850413028 -2.06897608282714 0.0879246144096525 -2.06897608282714 -7.26477126559754
-1.07813726063328 -5.73994203548423 3.38879293893888 -5.73994203548423 -11.9885826376053 -2.16892871446648 3.38879293893888 -2.16892871446648 3.13570907494046
-5.11516162575626 0.103888905279924 0.472967910879654 0.103888905279924 -1.39976630271898 -1.77157922687871 0.472967910879654 -1.77157922687871 1.45717859247893
-3.21070146151018 -1.14667909339649 3.3294164735324 -1.14667909339649 -8.66889394607748 -0.280599119325259 3.3294164735324 -0.280599119325259 -0.863381905616183
-5.36920032487095 -0.737698043746164 1.64967426611197 -0.737698043746164 -7.98337300416561 -1.54701725678807 1.64967426611197 -1.54701725678807 -2.11759923884417
-0.66874253380692 -0.180151049923497 1.03723331774134 -0.180151049923497 1.71689409699817 -2.35834101718032 1.03723331774134 -2.35834101718032 -2.34196364900546
-4.65797759567458 -1.35142275070701 -1.16034043554557 -1.35142275070701 -11.6504826070172 -3.79949183190578 -1.16034043554557 -3.79949183190578 -6.41371944802754
-0.581619615092564 2.24934610998163 3.88371807497292 2.24934610998163 0.323122008384758 4.95940166417637 3.88371807497292 4.95940166417637 -3.2353894000848
8.06239451974407 -0.168559429275127 -4.60583167785543 -0.168559429275127 5.21877505703771 0.921604152270501 -4.60583167785543 0.921604152270501 1.80818296858773
-8.04132627598007 -2.03547920451593 1.80076793965411 -2.03547920451593 -0.617349797493687 -0.0828392699512296 1.80076793965411 -0.0828392699512296 3.67451333140811
0.797851742313977 0.297828218877478 -1.94271434515492 0.297828218877478 -2.14490964971395 2.33344310937033 -1.94271434515492 2.33344310937033 3.8908934282709
-2.41649804355952 2.00438209814627 -0.629881757478208 2.00438209814627 -2.3275184644362 -0.578367264301551 -0.629881757478208 -0.578367264301551 -0.278646576728278
-0.7071833526907 0.480490431270685 -0.825457920388099 0.480490431270685 -0.0344967489117415 0.275973991293932 -0.825457920388099 0.275973991293932 4.32194982794246
1.99415971405492 0.0578416491645763 3.2666759956756 0.0578416491645763 -2.26408741015627 -4.01861743481509 3.2666759956756 -4.01861743481509 -2.72131187498102
-2.43033796358589 -5.74853933182546 3.46868669106222 -5.74853933182546 -6.25015707456764 -0.69975675112535 3.46868669106222 -0.69975675112535 2.13939967279543
3.20404561978739 0.722267910901225 0.029868221879374 0.722267910901225 -1.4716887507837 3.14702446892677 0.029868221879374 3.14702446892677 4.49380974639672
-1.17710174959258 1.87692761894033 2.07802700668393 1.87692761894033 -8.39254778183317 1.25754150469002 2.07802700668393 1.25754150469002 2.4909510828508
1.64944478167485 -1.73266385862869 -0.554793846358939 -1.73266385862869 -1.63664184675887 0.0426764497199184 -0.554793846358939 0.0426764497199184 -2.15089306588389
-0.869309721486606 0.385756188909681 1.26049909615558 0.385756188909681 -0.958957286514913 4.94691563383472 1.26049909615558 4.94691563383472 6.00638685689652
1.59489572861454 1.08101446714107 2.94749511114574 1.08101446714107 -8.69071729248391 0.42867815076284 2.94749511114574 0.42867815076284 1.09432745318961
2.34724987543646 -1.68846983964179 -2.71262367680156 -1.68846983964179 -8.01884774662666 5.89580452202789 -2.71262367680156 5.89580452202789 -8.85754669976021
-1.94802510627173 -3.97815088752043 0.33337849839133 -3.97815088752043 -0.746369772517904 -0.0771248764935167 0.33337849839133 -0.0771248764935167 0.196544040096381
-1.76270110070002 0.33985891725727 -0.930807631592673 0.33985891725727 -7.10913839606066 -0.304351269185615 -0.930807631592673 -0.304351269185615 -4.22033759937386
-2.67590792434562 0.938411814203899 1.46293894179385 0.938411814203899 -0.614680227644475 0.817524702767152 1.46293894179385 0.817524702767152 3.64095588174744
-6.24616210627457 -0.419724420934454 3.92110972188766 -0.419724420934454 -3.60079371643768 -2.33885910875975 3.92110972188766 -2.33885910875975 -2.49625576661017
-2.62823577908496 -0.295086352442174 -0.822307302138858 -0.295086352442174 9.59030645437065 -2.69315477662224 -0.822307302138858 -2.69315477662224 -1.25116613435482
-2.44782013386373 3.18621215771519 0.500690481926673 3.18621215771519 10.2742698387276 4.45311080137814 0.500690481926673 4.45311080137814 2.34161306193989
-2.40529563031307 2.85611675416603 -1.50640229189893 2.85611675416603 -8.9916822934332 0.959369342833442 -1.50640229189893 0.959369342833442 -5.36861984685877
0.817871484571846 -4.93231698977991 4.52839886396375 -4.93231698977991 -6.09389520253072 -0.642254908130039 4.52839886396375 -0.642254908130039 1.16910463745546
0.142364845634876 0.455166478297422 1.12688793305353 0.455166478297422 2.82524038731748 -1.18303181583911 1.12688793305353 -1.18303181583911 -2.58863402414966
-0.779599311264647 -4.15694473745001 -0.611558470320677 -4.15694473745001 -5.48749762558013 0.305779235160339 -0.611558470320677 0.305779235160339 -0.0413215182649106
-0.259630936751714 1.27058325684688 1.49574990995899 1.27058325684688 1.21773802193282 1.12813088446984 1.49574990995899 1.12813088446984 -1.68645227943149
6.0414874813657 -1.45477946890536 -2.13796319739682 -1.45477946890536 11.6301982956135 -2.00936390732784 -2.13796319739682 -2.00936390732784 3.24445292236535
-0.522332185625162 3.2958425233813 -0.564020669923884 3.2958425233813 0.33841240195433 0.326151083042941 -0.564020669923884 0.326151083042941 3.43807382275341
-3.37447658223874 -0.0236114979515247 -0.580449324641649 -0.0236114979515247 9.32654169085226 -2.76844813481627 -0.580449324641649 -2.76844813481627 -0.926751294597345
-0.76289489281755 -2.7787562321169 -0.868992858043831 -2.7787562321169 1.19739132183947 -0.156620805810225 -0.868992858043831 -0.156620805810225 -3.80689603800016
-10.3646710858309 -1.09580682854014 2.59710174345343 -1.09580682854014 -5.23969727220726 0.189887103862551 2.59710174345343 0.189887103862551 6.41462372735679
-0.101737787384895 0.275762950016952 2.52738082345634 0.275762950016952 -8.02389865243501 0.259699088850916 2.52738082345634 0.259699088850916 1.633159218547
-1.58754103622481 -3.6497353890236 -4.15120527715542 -3.6497353890236 10.6622688514018 -5.63416168430461 -4.15120527715542 -5.63416168430461 10.048169362727
3.72295484815003 0.750025940211248 0.0570671911030297 0.750025940211248 -0.853290381254826 1.01905698398267 0.0570671911030297 1.01905698398267 2.39138705574601
-2.12422114691739 2.52765849652573 -1.82232925265264 2.52765849652573 0.749240792129776 -3.45528995344831 -1.82232925265264 -3.45528995344831 -4.62443492578269
-1.34919852002374 -0.91454418631347 -1.23512634194593 -0.91454418631347 9.72957008536072 -2.46435239881888 -1.23512634194593 -2.46435239881888 -1.73665057315009
1.15236462798846 0.989646474499349 2.678180755788 0.989646474499349 -8.46934651357259 0.418799181930991 2.678180755788 0.418799181930991 1.61384398132643
6.22625992196728 -0.253472686299231 2.59944329353679 -0.253472686299231 -3.38413001388867 1.58824906627922 2.59944329353679 1.58824906627922 7.91967318788129
-5.55779492547692 0.593309785986861 1.23905159957256 0.593309785986861 -4.63333549149739 1.93998502115704 1.23905159957256 1.93998502115704 -6.96518092944575
0.0290084380190202 -1.23154005044386 3.93987330912874 -1.23154005044386 -7.28902933496107 -0.340189864041237 3.93987330912874 -0.340189864041237 -2.78217291909694
0.805979610010297 -0.562864448958011 4.00347248906754 -0.562864448958011 -8.01487264643027 -0.0475660097710995 4.00347248906754 -0.0475660097710995 -2.21181945435613
3.25026232931784 4.04228027623208 -6.57026208792373 4.04228027623208 0.824396039083683 2.36858197331898 -6.57026208792373 2.36858197331898 3.80816176362221
3.18669460340187 0.671598606689643 0.309968587702912 0.671598606689643 -0.233835952126758 0.163141361948901 0.309968587702912 0.163141361948901 1.53352880231967
0.367578184735923 2.88061271303254 -1.57533507743967 2.88061271303254 -5.5836876633695 -3.87332386500643 -1.57533507743967 -3.87332386500643 2.00792709076834
0.50529538241281 2.64630980907895 -2.28481390308401 2.64630980907895 3.79870283537219 -2.36869693099444 -2.28481390308401 -2.36869693099444 -0.245657438880536
-5.46063946516177 0.26831827385257 3.62350533788291 0.26831827385257 -7.30019087418705 -1.55431216294777 3.62350533788291 -1.55431216294777 -4.70403027853245
-5.75808808544062 -0.791316198876343 3.20134304165475 -0.791316198876343 -8.43028351690451 -1.75099754644978 3.20134304165475 -1.75099754644978 -4.06962616564976
-0.103637528125389 0.0681825842930188 1.05001179811249 0.0681825842930188 1.87093011300044 -2.09729629285326 1.05001179811249 -2.09729629285326 -1.74274685452956
-5.01461819920222 1.09982447460764 3.49812013509566 1.09982447460764 -6.26706148856819 -1.3444990823948 3.49812013509566 -1.3444990823948 -4.57129688014232
-3.64753081484985 0.0895599084003311 3.17259190666627 0.0895599084003311 -9.73760458607237 0.233398549164499 3.17259190666627 0.233398549164499 -1.8970416961161