9.296851306 -1.472812572 0.000847385 -0.880137949 8.620323657 0.071744392 0.000402826 0.057071789 5.433051397
9.925249098 -0.025541476 -0.013536404 -0.015263328 6.663293565 -0.000290315 -0.006434875 -0.000230942 5.206051573
9.578295566 -0.848946611 0.042718256 -0.507321939 8.390271745 0.038898548 0.020307212 0.030943321 5.196240208
9.331887248 -1.425742061 -0.006101313 -0.852009087 8.589283033 0.073285255 -0.002900414 0.058297526 5.412263713
9.830196308 0.164309288 0.085844648 0.098189574 7.072020225 0.054479036 0.040808442 0.043337409 5.039070517
9.656118725 -0.719449615 0.097229620 -0.429935839 8.382972606 0.047973982 0.046220579 0.038162718 5.203403113
9.853022911 0.102968976 -0.037632257 0.061533222 6.770703113 0.035864710 -0.017889453 0.028529940 5.159722597
10.309806968 0.126295801 -0.037203848 0.075473098 6.265999963 0.085112275 -0.017685798 0.067705776 5.091780167
10.291949928 0.089827944 -0.066118695 0.053680274 6.257292392 -0.000151392 -0.031431207 -0.000120431 5.122129451
10.020927270 0.261924740 -0.041275891 0.156523585 6.256685398 -0.039901721 -0.019621547 -0.031741332 5.258426583
9.832656010 0.159744862 0.104961358 0.095461920 7.106391892 0.057951395 0.049896057 0.046099628 5.051707423
9.913329057 -0.001523629 -0.018030120 -0.000910505 6.676822988 0.006496622 -0.008571077 0.005167983 5.211611252
9.976751047 0.228318175 -0.032256851 0.136440640 6.280566295 -0.045591446 -0.015334117 -0.036267439 5.167583524
9.354401705 -1.394372144 -0.010535391 -0.833262740 8.570915881 0.069903478 -0.005008267 0.055607364 5.395003388
9.955481832 -0.105512072 0.003347553 -0.063052951 6.605557451 -0.019214241 0.001591345 -0.015284695 5.152360465
10.054027493 -0.146621381 -0.109125573 -0.087619459 6.411883318 0.037273263 -0.051875623 0.029650426 4.920687793
9.904422975 0.014785959 -0.021472417 0.008835940 6.687360450 0.011661524 -0.010207461 0.009276600 5.212827059
9.953827515 -0.100009216 0.002009940 -0.059764499 6.611123223 -0.017998048 0.000955476 -0.014317227 5.158130718
10.406282929 0.001268216 -0.002276462 0.000757873 6.222528299 -0.000795450 -0.001082174 -0.000632771 4.949128312
9.815952166 0.158608752 -0.004214481 0.094782992 6.882390157 0.043445993 -0.002003461 0.034560757 5.015583659
10.732748390 0.188028769 0.138516846 0.112364097 6.054981204 -0.025201528 0.065847514 -0.020047508 4.884084658
10.287477836 0.094535447 -0.064001965 0.056493431 6.264943225 0.000688445 -0.030424966 0.000547649 5.140577187
9.973621785 -0.152201065 0.007843129 -0.090953822 6.539190401 -0.027352586 0.003728431 -0.021758648 5.078720552
10.217501231 0.153428357 -0.005889128 0.091687240 6.335369338 0.036181238 -0.002799547 0.028781733 5.267220754
10.295244628 0.316805860 0.004819488 0.189319989 6.123441579 -0.044963460 0.002291066 -0.035767884 5.227314092
10.169949306 -0.025492441 -0.095012620 -0.015234026 6.358948398 0.082154070 -0.045166671 0.065352561 4.984039871
9.840022210 0.120541097 0.157127918 0.072034145 7.217442098 0.059042564 0.074694762 0.046967640 5.114286054
10.067575829 0.292307485 -0.053514510 0.174680007 6.203094033 -0.037032904 -0.025439487 -0.029459224 5.281880475
9.340823565 -1.413449252 -0.007981156 -0.844663028 8.581933877 0.072219739 -0.003794046 0.057449922 5.405332569
9.720875382 -0.124274047 0.142564603 -0.074264918 7.651881551 0.044898957 0.067771718 0.035716573 5.029959835
9.927810787 0.146311953 -0.051494998 0.087434549 6.313163323 -0.046686567 -0.024479460 -0.037138595 4.942486480
10.297665027 0.083068981 -0.067737291 0.049641186 6.243379008 -0.001158790 -0.032200648 -0.000921803 5.093359425
10.152992375 0.318036661 -0.060005963 0.190055503 6.145255284 -0.037944787 -0.028525364 -0.030184615 5.279987932
10.091886527 -0.102910098 -0.127757873 -0.061498038 6.382615032 0.055867379 -0.060732962 0.044441818 4.923708464
10.723643867 0.235550440 -0.005153422 0.140762569 6.039947705 0.030933684 -0.002449811 0.024607368 5.037075989
10.404686428 0.003178412 -0.006926044 0.001899387 6.224068783 -0.002336198 -0.003292472 -0.001858417 4.948733572
9.828904528 0.165305201 0.075950717 0.098784722 7.054441676 0.052822505 0.036105110 0.042019659 5.033583263
9.807649221 0.020249137 0.201087250 0.012100680 7.411024910 0.047476409 0.095591951 0.037766904 5.141857308
9.919320596 -0.013242970 -0.015787966 -0.007913865 6.670069652 0.003078881 -0.007505212 0.002449212 5.209441888
10.000698051 0.246228520 -0.036302584 0.147143682 6.271388507 -0.042565466 -0.017257359 -0.033860309 5.224929227
9.462855916 -1.103613576 -0.028802716 -0.659508350 8.425670586 0.038034883 -0.013692105 0.030256286 5.253769859
9.988569459 -0.165669149 -0.006708127 -0.099002214 6.510937851 -0.022238068 -0.003188879 -0.017690112 5.039985609
10.388939225 0.011643276 -0.027275724 0.006957904 6.211245380 -0.008103602 -0.012966211 -0.006446317 4.936231613
9.103260774 -1.752286256 -0.189341635 -1.047148606 8.871689742 -0.060258207 -0.090008373 -0.047934669 5.328122483
10.034905600 -0.169378919 -0.083863243 -0.101219135 6.444929124 0.021556503 -0.039866531 0.017147935 4.944578060
9.705329730 -0.378143538 0.141021045 -0.225974767 8.124097071 0.034168685 0.067037949 0.027180772 5.099311687
10.315855727 0.131294081 -0.035415078 0.078460019 6.261449033 0.084738309 -0.016835460 0.067408291 5.094797211
10.729576541 0.188062242 0.140871234 0.112384100 6.057870895 -0.025979883 0.066966732 -0.020666680 4.881957713
9.676121777 -0.662305176 0.115105472 -0.395786898 8.370955033 0.054916606 0.054718320 0.043685490 5.196055020
9.799988050 0.007042527 0.199693092 0.004208543 7.433658446 0.047534928 0.094929202 0.037813456 5.131854757
9.840205306 0.095853448 0.174851324 0.057281054 7.266117354 0.054547852 0.083120034 0.043392151 5.143387990
9.694258130 -0.186728331 0.125382563 -0.111586969 7.763730025 0.038269033 0.059603798 0.030442549 5.012661434
9.936514936 -0.051222574 -0.008768654 -0.030610094 6.648666865 -0.006801220 -0.004168403 -0.005410288 5.195182035
9.829374681 0.057900311 0.195264846 0.034600642 7.339320429 0.049343777 0.092824123 0.039252372 5.160904169
10.311305322 0.314795502 0.013063953 0.188118619 6.118377410 -0.047551812 0.006210283 -0.037826887 5.215423365
9.530557976 -0.935204918 0.006230910 -0.558869033 8.395540210 0.041239793 0.002962022 0.032805752 5.219646138
9.848199092 0.110702775 -0.036939829 0.066154863 6.778030248 0.036551752 -0.017560290 0.029076473 5.147849455
9.860553429 0.090344659 -0.037554394 0.053989057 6.758540197 0.034269763 -0.017852439 0.027261179 5.175696000
10.217043411 0.321959445 -0.037688148 0.192399720 6.139703103 -0.037639980 -0.017916022 -0.029942145 5.270253321
9.110246793 -1.679711830 -0.127397351 -1.003778861 8.770077415 -0.009300124 -0.060561579 -0.007398135 5.331938657
10.406466162 0.000463230 -0.000546738 0.000276821 6.220514843 -0.000194002 -0.000259906 -0.000154326 4.948206261
9.165994083 -1.598986320 -0.058836948 -0.955538109 8.712386497 0.031321597 -0.027969643 0.024915949 5.367503067
9.705629932 -0.555816493 0.145101179 -0.332150334 8.314876822 0.053902985 0.068977545 0.042879167 5.174994607
9.838683630 0.132003176 0.146882565 0.078883767 7.192312736 0.060654132 0.069824372 0.048249622 5.097939464
10.482444888 0.268678448 0.114136040 0.160559532 6.099460976 -0.071517769 0.054257476 -0.056891513 5.049953725
9.661906522 -0.705299540 0.101616550 -0.421479897 8.381179229 0.050091833 0.048306018 0.039847442 5.202956038
9.838281809 0.083055785 0.182768046 0.049633300 7.290489143 0.052430262 0.086883450 0.041707634 5.153753558
10.303743975 0.074440781 -0.067293471 0.044485061 6.221811479 -0.002435651 -0.031989667 -0.001937531 5.054689033
10.752372072 0.187828211 0.115389103 0.112244246 6.032737890 -0.015287501 0.054853152 -0.012161021 4.910085213
9.692759829 -0.193024771 0.124186001 -0.115349658 7.774369437 0.037412488 0.059034982 0.029761178 5.013751923
10.453697525 0.279222873 0.093016435 0.166860775 6.097201222 -0.071287422 0.044217734 -0.056708275 5.084138212
9.757306674 -0.071821572 0.168432025 -0.042919847 7.554945548 0.047840863 0.080068457 0.038056823 5.077349543
10.580143942 0.255466878 -0.025613217 0.152664431 6.085988092 0.047100163 -0.012175896 0.037467605 5.129821072
9.748692223 -0.084749138 0.161396664 -0.050645231 7.577172956 0.047262254 0.076724019 0.037596547 5.066157966
10.302290514 0.076635196 -0.067641254 0.045796421 6.227514099 -0.002085456 -0.032154995 -0.001658954 5.064532800
10.341211992 0.035079525 -0.053543900 0.020963170 6.169953094 -0.011620487 -0.025453458 -0.009243955 4.933548916
10.679496434 0.248990449 -0.024777502 0.148794183 6.045711574 0.037600944 -0.011778617 0.029911092 5.077619164
10.343288549 0.309671838 0.028960852 0.185056769 6.108176382 -0.053301936 0.013767280 -0.042401040 5.189457224
10.517255344 0.256396731 0.135932133 0.153220103 6.096055875 -0.069247990 0.064618805 -0.055085932 5.003931552
10.069048262 0.137524935 -0.016055462 0.082183515 6.377657762 0.052151544 -0.007632373 0.041485917 5.108907035
10.078119847 0.297195593 -0.055724675 0.177601091 6.191628865 -0.036808091 -0.026490145 -0.029280387 5.282293084
10.012851576 -0.176214558 -0.045116567 -0.105304044 6.481187002 -0.002940963 -0.021447310 -0.002339500 4.990969279
9.840325199 0.116631094 0.160240541 0.069697566 7.225511010 0.058366984 0.076174426 0.046430224 5.119521769
10.557633827 0.243608771 0.150436712 0.145578146 6.081770779 -0.065474286 0.071513926 -0.052083996 4.949658062
9.689737283 -0.272626368 0.118488455 -0.162918770 7.911229007 0.024798058 0.056326508 0.019726552 5.048581268
10.616985913 0.254760924 -0.025060613 0.152242561 6.077263506 0.046205338 -0.011913201 0.036755783 5.118726789
9.305630504 -1.461358192 -0.000443319 -0.873292927 8.612286768 0.073109302 -0.000210743 0.058157558 5.429662177
10.179398427 -0.014239203 -0.088358157 -0.008509204 6.353634065 0.083256758 -0.042003303 0.066229735 4.992569448
10.021121291 0.118810461 -0.039951241 0.070999934 6.381969585 0.036799311 -0.018991841 0.029273403 5.029152965
10.117587021 -0.078809376 -0.125403677 -0.047095689 6.376596873 0.066974098 -0.059613835 0.053277078 4.940620155
10.396539344 0.008142670 -0.019260904 0.004865978 6.218664490 -0.005980973 -0.009156162 -0.004757791 4.942017436
10.459705659 0.277046471 0.097400906 0.165560179 6.097823014 -0.071563987 0.046302004 -0.056928279 5.077361688
9.541911496 -0.911337372 0.014497709 -0.544606029 8.394148716 0.041289948 0.006891856 0.032845650 5.212142557
9.937049270 0.184309940 -0.033426053 0.110141763 6.306127311 -0.050181180 -0.015889927 -0.039918516 5.041785948
10.267012977 0.087006201 -0.049340967 0.051994029 6.296389344 0.085666506 -0.023455486 0.068146660 5.065390775
10.367409094 0.304761648 0.041015151 0.182122489 6.101615234 -0.057948985 0.019497597 -0.046097711 5.168379612
9.711017695 -0.411615860 0.145050896 -0.245977489 8.178453486 0.041133783 0.068953641 0.032721423 5.128228836
9.931774292 0.171467689 -0.037425277 0.102467363 6.312694317 -0.050815363 -0.017791060 -0.040423002 5.010265862
9.372431467 -1.367303972 -0.013797263 -0.817087073 8.555714211 0.066098866 -0.006558881 0.052580842 5.382144452
10.147713850 -0.050002014 -0.110756234 -0.029880700 6.369045643 0.077481264 -0.052650799 0.061635400 4.964598662
9.486988163 -1.042317997 -0.017981912 -0.622878730 8.408118689 0.035929819 -0.008548160 0.028581733 5.240453020
9.523560124 -0.951276805 0.001500098 -0.568473431 8.396566095 0.040768183 0.000713110 0.032430592 5.224240939
10.197353739 0.321858101 -0.047159129 0.192339157 6.140948065 -0.037545706 -0.022418294 -0.029867151 5.275728072
10.103463061 0.147390284 -0.005088308 0.088078948 6.373979901 0.055634462 -0.002418857 0.044256536 5.165055602
9.456472991 -1.121067918 -0.031398493 -0.669938889 8.432251264 0.039857860 -0.014926074 0.031706442 5.260033081
10.220035804 0.152551949 -0.007156458 0.091163507 6.330693170 0.034707418 -0.003402005 0.027609328 5.266193765
10.085675218 0.143206859 -0.009902042 0.085578976 6.374372309 0.054480300 -0.004707188 0.043338414 5.137075342
9.121753692 -1.777794633 -0.192072258 -1.062392155 8.928536672 -0.081407419 -0.091306444 -0.064758609 5.365531054
10.299271050 0.080943804 -0.067875371 0.048371202 6.238355254 -0.001456656 -0.032266288 -0.001158752 5.083913735
9.838649222 0.125155401 -0.033834672 0.074791606 6.792265447 0.037505579 -0.016084174 0.029835230 5.120290274
9.105006610 -1.691239043 -0.138593334 -1.010667407 8.782549801 -0.017842495 -0.065883875 -0.014193487 5.325706778
9.950199145 -0.088470277 -0.000761047 -0.052868946 6.621760577 -0.015432734 -0.000361783 -0.012276552 5.169079216
10.017420545 0.259181199 -0.040324947 0.154884072 6.259883928 -0.040295349 -0.019169492 -0.032054459 5.253913841
10.004048644 0.248774560 -0.037030389 0.148665170 6.269579033 -0.042076660 -0.017603339 -0.033471470 5.231687443
9.479981391 -1.059768070 -0.021198885 -0.633306718 8.412194476 0.035810580 -0.010077430 0.028486879 5.243208822
9.928114382 0.152549874 -0.046932819 0.091162267 6.315372229 -0.048776558 -0.022310712 -0.038801157 4.960714968
10.348668697 0.030463113 -0.051100461 0.018204449 6.173966588 -0.012090232 -0.024291907 -0.009617632 4.928653257
9.106645541 -1.687509816 -0.134906919 -1.008438858 8.778336031 -0.015029978 -0.064131443 -0.011956164 5.327767711
9.534214839 -0.927215083 0.008825289 -0.554094389 8.395065285 0.041344943 0.004195326 0.032889398 5.217193432
9.129399821 -1.644820876 -0.097075606 -0.982928378 8.741004369 0.012122379 -0.046147364 0.009643204 5.346922383
9.691064145 -0.283376734 0.119908050 -0.169343080 7.931746305 0.023609601 0.057001348 0.018781149 5.053536463
9.986233608 -0.164076120 -0.003787858 -0.098050236 6.514399096 -0.023474558 -0.001800655 -0.018673724 5.045184246
9.717388506 -0.492628487 0.150766028 -0.294389819 8.267080057 0.049842349 0.071670475 0.039648981 5.171605984
9.932126335 0.127546929 -0.066794518 0.076220759 6.308279375 -0.028886813 -0.031752477 -0.022979108 4.904056599
10.612357067 0.255067157 -0.025245206 0.152425562 6.078884786 0.046443809 -0.012000952 0.036945484 5.120734180
9.389352217 -1.338288736 -0.017782179 -0.799747861 8.539647730 0.062397721 -0.008453212 0.049636626 5.370175240
10.756202614 0.188529651 0.096404374 0.112663419 6.033215369 -0.003360559 0.045828277 -0.002673284 4.933839511
9.943100017 0.194472827 -0.031523201 0.116215001 6.299804776 -0.049149456 -0.014985357 -0.039097793 5.067216301
9.345341146 -1.407174845 -0.008867867 -0.840913505 8.578266896 0.071527929 -0.004215567 0.056899595 5.401844358
10.391337239 0.298942755 0.053608916 0.178645177 6.097093689 -0.062579328 0.025484365 -0.049781092 5.146569466
9.707020446 -0.388904305 0.142512146 -0.232405293 8.142811093 0.036516121 0.067746782 0.029048129 5.108150542
10.013967638 0.256472260 -0.039417954 0.153265238 6.262779432 -0.040716080 -0.018738329 -0.032389145 5.248940051
9.228412758 -1.543335947 -0.014451348 -0.922282007 8.674225056 0.050673731 -0.006869816 0.040310335 5.410796693
9.128337291 -1.790634764 -0.184427039 -1.070065288 8.968210899 -0.091777720 -0.087672095 -0.073008057 5.388962997
10.385590860 0.182807415 -0.014202168 0.109243869 6.199000351 0.073510458 -0.006751362 0.058476673 5.118134761
10.410405703 0.199140988 -0.010413704 0.119004647 6.173978929 0.067406585 -0.004950420 0.053621116 5.122407810
9.104994534 -1.755242154 -0.190539188 -1.048915021 8.877062616 -0.062416183 -0.090577660 -0.049651312 5.331400286
9.767992739 -0.053635799 0.178119503 -0.032052213 7.526157317 0.048418020 0.084673647 0.038515944 5.090661513
9.718272372 -0.480298843 0.150508836 -0.287021748 8.256574875 0.049155128 0.071548212 0.039102304 5.169467383
9.257518097 -1.516872747 -0.002569574 -0.906467866 8.653709566 0.060316015 -0.001221513 0.047980654 5.427994917
9.124820295 -1.782255896 -0.190090749 -1.065058161 8.941754531 -0.085381954 -0.090364484 -0.067920303 5.373686516
9.615134047 -0.793234568 0.069771234 -0.474028983 8.386981770 0.039027106 0.033167535 0.031045587 5.196057734
9.689446943 -0.211984808 0.121041893 -0.126679985 7.806139318 0.034607796 0.057540350 0.027530080 5.019366419
10.741710249 0.218202765 0.023048288 0.130395773 6.044736618 0.025147801 0.010956591 0.020004769 5.007219950
10.739564299 0.220899681 0.018395620 0.132007423 6.044196501 0.026219747 0.008744827 0.020857489 5.011590937
9.283142251 -1.489607135 0.001485018 -0.890174211 8.632666021 0.068467821 0.000705941 0.054465316 5.434830495
10.191102970 0.321644265 -0.049766067 0.192211371 6.141218741 -0.037616731 -0.023657569 -0.029923651 5.276906170
9.292344264 -1.478500278 0.001262463 -0.883536865 8.624432544 0.070803809 0.000600144 0.056323566 5.434117555
9.818852728 0.152708830 -0.017492603 0.091257258 6.842295351 0.041034508 -0.008315555 0.032642450 5.040499427
9.840647381 0.104343590 0.169187740 0.062354678 7.249831763 0.056097575 0.080427706 0.044624937 5.134540970
9.821041690 0.163005661 0.027688413 0.097410540 6.960987970 0.047046148 0.013162393 0.037424637 5.012208263
9.990946374 -0.167178110 -0.009872657 -0.099903953 6.507637708 -0.020849081 -0.004693219 -0.016585189 5.034883456
9.927800384 0.144470649 -0.053042184 0.086334204 6.312170608 -0.045837410 -0.025214954 -0.036463100 4.936975724
10.083983902 -0.110994227 -0.126371770 -0.066329032 6.385826078 0.052269047 -0.060074042 0.041579389 4.919981214
10.317665031 0.055143664 -0.061069959 0.032953298 6.179077167 -0.006904545 -0.029031162 -0.005492481 4.978796751
10.319959194 0.052625043 -0.060163608 0.031448196 6.175556515 -0.007604623 -0.028600305 -0.006049385 4.971000015
9.820339600 0.041323535 0.199902249 0.024694528 7.371817709 0.048113018 0.095028630 0.038273319 5.155688770
9.563618492 -0.872271942 0.031296959 -0.521260922 8.391799009 0.039948261 0.014877807 0.031778355 5.200675298
9.537995854 -0.919258719 0.011580341 -0.549339746 8.394603919 0.041360808 0.005505010 0.032902018 5.214679404
10.028567058 -0.173937067 -0.073040574 -0.103943038 6.457050132 0.014413174 -0.034721699 0.011465504 4.957505069
9.782704849 -0.025463664 0.190842765 -0.015216829 7.484223503 0.048349327 0.090721974 0.038461300 5.108835536
10.695766762 0.246561132 -0.022007308 0.147342448 6.040245183 0.035032225 -0.010461735 0.027867708 5.065365683
10.231006575 0.048178219 -0.061255539 0.028790818 6.320656322 0.084956914 -0.029119382 0.067582189 5.037659997
9.132602395 -1.639908687 -0.093055604 -0.979992904 8.737668826 0.014573379 -0.044236354 0.011592945 5.348759381
9.445038521 -1.155728096 -0.035217504 -0.690651462 8.446937548 0.044425747 -0.016741538 0.035340140 5.276197106
9.678366073 -0.654555049 0.117613845 -0.391155500 8.368271844 0.055438520 0.055910739 0.044100666 5.194175164
9.816204698 0.157201106 -0.009142002 0.093941797 6.868031932 0.042673193 -0.004345884 0.033946004 5.021653603
10.605384414 0.226018421 0.157095621 0.135066331 6.057595361 -0.059385380 0.074679409 -0.047240346 4.894292780
10.032059068 0.270404899 -0.044397024 0.161591242 6.245099619 -0.038868816 -0.021105257 -0.030919669 5.269422881
9.934853044 0.124437488 -0.067638675 0.074362589 6.311772397 -0.023780413 -0.032153769 -0.018917029 4.905127377
9.836357162 0.128476467 -0.032753890 0.076776242 6.795870639 0.037719939 -0.015570397 0.030005751 5.112836233
9.765390971 -0.058294155 0.175702279 -0.034836000 7.533311900 0.048308509 0.083524558 0.038428830 5.087470740
9.691455005 -0.199345426 0.123058134 -0.119126817 7.784992664 0.036515130 0.058498821 0.029047340 5.015259402
9.336334879 -1.419638441 -0.007057185 -0.848361624 8.585603917 0.072810284 -0.003354813 0.057919693 5.408819976
9.822716593 0.045410118 0.199075431 0.027136629 7.363869816 0.048356427 0.094635581 0.038466948 5.157594937
9.694126343 -0.304093074 0.124270272 -0.181722956 7.973668387 0.022792660 0.059075042 0.018131283 5.061921350
10.176899467 0.155795153 0.001249550 0.093101613 6.376315411 0.049505126 0.000594005 0.039380724 5.250516030
10.375631463 0.017304319 -0.037861908 0.010340886 6.197617184 -0.010589601 -0.017998623 -0.008423899 4.928858104
9.828004048 0.140193916 -0.027581824 0.083778471 6.811391830 0.038735908 -0.013111723 0.030813942 5.082467582
9.127785705 -1.799007255 -0.177287970 -1.075068605 8.994049212 -0.095524367 -0.084278356 -0.075988469 5.403189027
9.709962824 -0.405864004 0.144461699 -0.242540238 8.169909478 0.040026889 0.068673552 0.031840902 5.123111935
10.271912555 0.109259147 -0.053087338 0.065292165 6.278926138 0.004640967 -0.025236419 0.003691833 5.187633306
10.060897479 0.134178924 -0.019674326 0.080183973 6.379722377 0.050472232 -0.009352693 0.040150045 5.094823000
9.950898148 0.204597229 -0.030650715 0.122265242 6.293370722 -0.048023888 -0.014570599 -0.038202417 5.094058934
9.432012268 -1.205762523 -0.036449595 -0.720551531 8.470554061 0.051133271 -0.017327244 0.040675893 5.305244036
10.333775034 0.145454101 -0.029852702 0.086921905 6.247310436 0.083064110 -0.014191243 0.066076487 5.102707081
10.695385166 0.191191001 0.157820276 0.114253815 6.074201249 -0.034088671 0.075023891 -0.027117122 4.870426588
9.928722593 0.134974997 -0.061890678 0.080659698 6.306675773 -0.038657886 -0.029421311 -0.030751877 4.911722187
9.136022344 -1.634905646 -0.088969331 -0.977003136 8.734389114 0.016950776 -0.042293840 0.013484135 5.350650568
9.959959803 -0.120698681 0.006898442 -0.072128316 6.588259491 -0.022547655 0.003279350 -0.017936385 5.134249527
10.618815491 0.219724191 0.158553400 0.131304962 6.054489930 -0.056972302 0.075372401 -0.045320771 4.883833874
10.255375174 0.124604880 -0.037824536 0.074462620 6.285734323 0.011524913 -0.017980858 0.009167928 5.221132438
9.156420092 -1.609222172 -0.067636599 -0.961654951 8.718592394 0.027612322 -0.032152781 0.021965266 5.361822503
10.048330888 0.128794237 -0.025832628 0.076966138 6.382371551 0.047115153 -0.012280198 0.037479530 5.073344932
9.694958555 -0.309345800 0.125605689 -0.184861932 7.984694281 0.022944940 0.059709867 0.018252420 5.063865745
9.733303872 -0.105985689 0.150515372 -0.063335980 7.616761912 0.046143211 0.071551320 0.036706361 5.045692968
9.103477387 -1.694855615 -0.142215610 -1.012828634 8.786804217 -0.020594434 -0.067605816 -0.016382621 5.323700642
10.540985087 0.251583276 -0.022487502 0.150343630 6.092635641 0.047647576 -0.010690007 0.037903065 5.134159200
10.635121893 0.253186420 -0.024566374 0.151301653 6.069104390 0.044682432 -0.011678252 0.035544330 5.108759909
10.441266644 0.283617521 0.084220130 0.169486972 6.096020283 -0.070319428 0.040036186 -0.055938247 5.097599160
10.022063224 -0.176239920 -0.061487985 -0.105319200 6.468172083 0.006924232 -0.029229881 0.005508142 4.971573598
10.577671258 0.237041144 0.153893370 0.141653398 6.071210054 -0.063232068 0.073157137 -0.050300339 4.924022386
9.513596463 -0.975578575 -0.004610974 -0.582995924 8.398453771 0.039516670 -0.002191944 0.031435029 5.230056220
9.702019740 -0.162181490 0.130775785 -0.096918024 7.721390815 0.041273190 0.062167603 0.032832319 5.012899104
9.554516690 -0.887790965 0.024180343 -0.530534933 8.392765683 0.040631727 0.011494742 0.032322043 5.204835008
10.327952663 0.045028317 -0.057483951 0.026908468 6.169052415 -0.009626558 -0.027326461 -0.007657809 4.951186105
10.644084627 0.207512969 0.161077837 0.124007659 6.058702909 -0.050610358 0.076572456 -0.040259923 4.871998841
9.838137604 0.135652002 0.143170290 0.081064269 7.183709479 0.060989335 0.068059647 0.048516272 5.092479283
9.701839888 -0.570602963 0.142124679 -0.340986580 8.324841958 0.054862047 0.067562589 0.043642089 5.176297715
9.419443510 -1.260771226 -0.031078199 -0.753424178 8.498206919 0.056166461 -0.014773814 0.044679735 5.336425594
9.693324395 -0.298943901 0.123026897 -0.178645862 7.962985408 0.022785962 0.058483972 0.018125955 5.059964319
10.277276098 0.104327048 -0.057346242 0.062344792 6.275650788 0.003053582 -0.027260998 0.002429087 5.173710774
9.314378628 -1.449612265 -0.002185010 -0.866273680 8.604381648 0.073798786 -0.001038700 0.058706034 5.424781292
10.360348118 0.024236524 -0.046411609 0.014483502 6.183011530 -0.012015751 -0.022062941 -0.009558383 4.925844103
10.019820584 -0.176542562 -0.057481396 -0.105500056 6.471614908 0.004417225 -0.027325247 0.003513849 4.976395419
10.339658840 0.149923341 -0.027950136 0.089592677 6.242403589 0.082322215 -0.013286809 0.065486318 5.104988508
9.714739045 -0.512631361 0.150286537 -0.306343335 8.283126247 0.050987561 0.071442537 0.040559983 5.173227924
10.379208785 0.015785589 -0.035351576 0.009433309 6.201262350 -0.010043792 -0.016805273 -0.007989714 4.930452864
10.172287767 0.320380890 -0.056088690 0.191456391 6.142347556 -0.037888980 -0.026663189 -0.030140222 5.279090135
10.740641870 0.188056096 0.131702228 0.112380428 6.046672168 -0.022867375 0.062608012 -0.018190718 4.890955896
9.121012886 -1.658852520 -0.108754556 -0.991313547 8.751370067 0.004402025 -0.051699251 0.003501757 5.341514037
9.993905398 0.241145466 -0.034946015 0.144106100 6.274477675 -0.043546838 -0.016612479 -0.034640978 5.210061485
9.118540615 -1.816003624 -0.162068086 -1.085225463 9.037400987 -0.095723920 -0.077043196 -0.076147211 5.428892583
9.604728958 -0.809084596 0.062443121 -0.483500800 8.387789115 0.038403965 0.029683929 0.030549886 5.194787280
9.687911053 -0.231084955 0.118738917 -0.138094040 7.838164576 0.031476924 0.056445571 0.025039509 5.027668091
10.368390807 0.170841223 -0.018740300 0.102092993 6.216194325 0.077367709 -0.008908679 0.061545069 5.114127977
10.651976161 0.204037396 0.161679897 0.121930692 6.062201350 -0.048080041 0.076858661 -0.038247086 4.870195057
9.825050671 0.049568566 0.198017155 0.029621675 7.355721122 0.048645123 0.094132503 0.038696602 5.159143711
9.890351910 0.038846497 -0.027435457 0.023214275 6.706822418 0.020063086 -0.013042144 0.015959940 5.209924429
10.291512180 0.110387029 -0.042408508 0.065966176 6.279296645 0.085728438 -0.020159966 0.068195927 5.081550292
10.287155519 0.317685588 0.000565871 0.189845706 6.125854430 -0.043762905 0.000269001 -0.034812857 5.232962088
9.095802244 -1.721175125 -0.168179169 -1.028556908 8.822281248 -0.039760125 -0.079948256 -0.031628694 5.313217874
10.308175524 0.067643573 -0.065512961 0.040423118 6.204437249 -0.003726922 -0.031143256 -0.002964721 5.025200904
9.102057749 -1.698371399 -0.145768921 -1.014929631 8.791098914 -0.023276014 -0.069294973 -0.018515786 5.321776301
9.198389972 -1.568972074 -0.032979893 -0.937601899 8.692921644 0.041528128 -0.015677833 0.033035119 5.389377857
9.433868049 -1.197665788 -0.036648978 -0.715713004 8.466607689 0.050151288 -0.017422026 0.039894738 5.300359965
9.583496002 -0.840998258 0.046704437 -0.502572083 8.389746927 0.038619226 0.022202145 0.030721123 5.195336596
10.238852671 0.321291447 -0.025922888 0.192000531 6.137008592 -0.038571654 -0.012323106 -0.030683280 5.261264188
10.160900477 -0.035849263 -0.101563672 -0.021423158 6.363539112 0.080622573 -0.048280881 0.064134273 4.975982063
10.303293985 0.315843241 0.008983226 0.188744738 6.120938863 -0.046229508 0.004270406 -0.036775010 5.221463098
10.748440165 0.188026151 0.122483243 0.112362533 6.037200174 -0.019028843 0.058225532 -0.015137212 4.901475999
9.850615810 0.106866847 -0.037362289 0.063862550 6.774398215 0.036235040 -0.017761117 0.028824532 5.153967967
9.118587266 -1.663256057 -0.112529525 -0.993945056 8.754944180 0.001737201 -0.053493778 0.001381922 5.339688951
10.746772881 0.188060447 0.124806487 0.112383028 6.039260846 -0.020099379 0.059329946 -0.015988811 4.898733776
10.498044217 0.241320247 -0.016354965 0.144210547 6.107376604 0.050647497 -0.007774750 0.040289466 5.132882496
10.535216654 0.250586282 0.143841473 0.149747837 6.091009800 -0.067667449 0.068378711 -0.053828630 4.979641221
10.231334288 0.321598702 -0.030059703 0.192184143 6.138114794 -0.038142400 -0.014289646 -0.030341814 5.264678593
10.044014550 0.126990214 -0.028052868 0.075888072 6.382954758 0.045744734 -0.013335646 0.036389378 5.066105618
10.052578987 0.130609270 -0.023690012 0.078050784 6.381609773 0.048355987 -0.011261651 0.038466598 5.080547043
10.162023380 0.154764737 0.001289631 0.092485847 6.379988951 0.052045197 0.000613059 0.041401320 5.237141047
9.927961162 0.150346032 -0.048431570 0.089845274 6.314801655 -0.048155637 -0.023023181 -0.038307222 4.954388012
9.116546905 -1.771159975 -0.193430394 -1.058427350 8.910855891 -0.075410090 -0.091952069 -0.059987807 5.353987158
9.932830567 0.174597503 -0.036280645 0.104337708 6.311326691 -0.050765493 -0.017246930 -0.040383331 5.017981837
10.108805478 -0.086837526 -0.127318000 -0.051893230 6.378252245 0.063317941 -0.060523857 0.050368650 4.934289362
10.547868520 0.252630055 -0.023292265 0.150969175 6.091198287 0.047456827 -0.011072572 0.037751327 5.133819749
9.695747943 -0.592924152 0.136625400 -0.354325497 8.338743511 0.055978774 0.064948367 0.044530432 5.179536959
9.367918592 -1.374348251 -0.012941384 -0.821296663 8.559643031 0.067090537 -0.006152017 0.053369704 5.385287255
9.710745488 -0.533702798 0.148454054 -0.318935413 8.299080159 0.052364823 0.070571419 0.041655578 5.173952037
9.826045617 0.165388972 0.055983662 0.098834783 7.018026820 0.050047778 0.026613261 0.039812397 5.023688450
10.675141306 0.249453657 -0.025026920 0.149070991 6.047648597 0.038350632 -0.011897184 0.030507460 5.080745911
10.017536539 -0.176630839 -0.053408490 -0.105552809 6.474925713 0.001928528 -0.025389087 0.001534121 4.981246008
10.062563178 0.289747190 -0.052375374 0.173150001 6.208857668 -0.037192073 -0.024897969 -0.029585840 5.281379782
9.833880461 0.156009907 0.114087793 0.093229948 7.123457735 0.059459692 0.054234541 0.047299459 5.059180678
9.381152957 -1.352965732 -0.015653696 -0.808518685 8.547752539 0.064171595 -0.007441383 0.051047721 5.376082460
10.247159237 0.132419814 -0.029696913 0.079132746 6.290581526 0.016160489 -0.014117185 0.012855471 5.234638453
10.586999554 0.233643198 0.155053614 0.139622821 6.066080433 -0.062057072 0.073708688 -0.049365644 4.913001825
10.313356696 0.060375367 -0.062978982 0.036079711 6.188243807 -0.005482332 -0.029938665 -0.004361128 4.996737130
9.703754783 -0.367427279 0.139279875 -0.219570839 8.104339637 0.031821211 0.066210239 0.025313385 5.091405825
9.839643340 0.124375946 0.153904404 0.074325812 7.209304471 0.059655413 0.073162382 0.047455153 5.108967768