-0.2713624334 3.9500234396 0.2345783757 4.4002865189 3.5467709746 2.8236725720 1.6990365139 6.7486909779 5.7431189229 2.1530956060 1.0564405451 2.9280305053 6.6210713168 0.3473051383 -0.2789111686 6.2656167681 6.1610193071 2.5498259290 0.3226706141 6.6723707140 2.6508850988 3.4070206431 1.3895080513 5.3754774312 8.1389310207 0.6935488006 2.8134186191 4.9119157307 5.8234414535 0.1400276275 0.8808089193 6.0946191536 4.0149088697 3.1398637545 1.9195853122 1.3862409172 7.6320477515 1.0974964041 1.3604993712 5.3194252176 5.4080700639 4.1198285820 3.4489689112 6.1832548889 -0.0900788948 0.4475516382 1.9365698633 2.8319213704 4.8566123089 0.9052040614 5.3759887674 8.1707042171 5.6090105562 2.7889148804 1.1697972714 7.8989418996 2.1897820057 2.4250217464 0.2536663797 4.8755163536 7.7473518455 1.7277837295 3.9660611943 5.1753217899 4.7847456612 1.1925240963 7.2756758419 -0.5406581657 3.4364545506 5.7934307377 7.0041153279 0.7752585639 0.7084579425 5.5695876830 1.5172881134 3.0659156216 2.3881768047 4.2199126582
-0.1061633057 3.4004797694 0.0109046656 4.9519203555 3.3538687191 2.6713189298 2.6767035181 5.1391760131 5.2007838280 2.2679027561 1.4455955625 2.6916673528 7.2119041949 1.3004687951 -0.0976134483 7.6471166254 5.1382135158 2.5030378474 1.0692906516 5.1253207367 2.4189253135 3.9089112314 1.5857293306 4.8856412457 8.9191727309 1.7227590077 2.9831048297 6.0283211343 4.9763962670 0.2041699246 1.1332172638 5.0824017273 3.9679873332 3.5936063493 1.6956324437 1.1563826997 8.6732022766 1.8720038949 1.4128092949 6.2044369938 5.0496184718 3.8402904211 4.4496791236 4.7075588419 0.5319308606 0.4475365196 1.7814313831 3.4666597255 5.4224397703 1.6461562972 4.6373282605 9.4750580587 5.0368807166 1.9599719642 1.7062345884 6.4846118480 1.6482006863 3.2127380969 0.2146457472 4.2783437182 8.1515578882 2.8660584223 3.6286350864 6.8251608339 3.7755919981 0.8072710343 8.2954042904 0.4064148205 3.5529649125 6.5843699924 6.2584988415 0.9151982801 1.8127997407 4.0250324354 1.6166427190 3.1659946934 2.6654305310 4.0881343962
-0.0370109844 4.1093665721 -0.0968594300 4.7904329507 3.9318916229 2.9892544781 2.1241635822 6.9019762040 5.4452261200 2.0454688167 1.2590554767 2.7386897118 6.9379128469 0.7615360963 -0.1604524798 7.0190026721 6.3954820707 2.4786612910 0.6308139240 6.3161528588 2.5622802700 3.6178550888 1.5160610951 4.9995420436 8.3910781187 1.1804478262 2.7287823836 5.4984138962 5.9463843912 0.2511425930 0.8542678647 6.0293502701 4.0266467485 3.2131053288 1.8397935524 1.2063907925 7.9172938970 1.6022230006 1.3597323723 5.8768652324 5.5641519838 4.0172065043 3.9594983298 6.0653924490 0.2570848294 0.3314175826 2.1115509684 2.5932583098 5.1178438834 1.3787622444 5.0894547089 8.6574202553 5.6242651125 2.4023227706 1.3309237161 7.6514302858 2.1067367421 2.9799052952 0.1684069547 4.5348727722 7.8585551520 2.1699193518 3.8264558704 5.9547383839 4.9945315284 1.4158633081 7.8120711280 -0.2374117104 3.1596932176 6.2817861323 7.2947288062 0.6883239954 1.1547832091 5.4260508415 1.4284133528 3.0492197811 2.5630138836 3.9888518047
-0.2513529490 3.9590606021 0.1974684378 4.4260668199 3.5821459356 2.8758017081 1.7194014087 6.7217393044 5.7215183307 2.1442654131 1.0777254007 2.9294293963 6.6635988333 0.3427283565 -0.2977981620 6.3163702896 6.1784827286 2.5212770453 0.3320708596 6.6258772740 2.6785429949 3.4166877351 1.3964683345 5.3256015799 8.1968434894 0.7417891900 2.8093818392 4.9839022448 5.8101345721 0.1348397551 0.9213230311 6.1293322628 3.9774845544 3.0748540706 1.8846052536 1.2912587340 7.6868756819 1.1042122810 1.4402182390 5.3968901163 5.4276351265 4.0904900257 3.5170902329 6.1769514602 -0.0564246842 0.4159001617 1.9712155298 2.7538799348 4.8439058947 0.9521100257 5.3505437202 8.2258749770 5.6398930654 2.7495279716 1.1689226841 7.8482650457 2.1208087958 2.4600682813 0.2905677547 4.8868584948 7.7499992644 1.7519797643 3.9608984568 5.2332483207 4.7756105816 1.2375486413 7.3504245691 -0.5238890008 3.3819513558 5.8306632777 7.0261720101 0.7844539910 0.7621616448 5.5529686199 1.5553571765 3.0904940859 2.4678420521 4.1999665621
-0.0039932743 3.6093915011 0.2268792217 5.0419906242 3.4033973763 2.3096035052 2.8645680742 5.7357341040 5.2278717167 2.2077967792 1.4018403053 2.5830857878 7.2046460527 1.5965055586 0.0258655290 7.5576949555 5.8911494793 2.6331927024 1.2004227137 5.2768228799 2.3139128237 3.9044527191 1.8464716826 4.7501063785 8.7422148439 1.9598753578 2.8745071249 6.1401762262 5.4846474509 0.4302552520 1.5655821986 5.0380410170 3.7855079214 3.5680424526 1.9018893009 1.2272915862 8.5329820863 1.9249722756 1.2741789348 6.4111768315 5.3395124025 3.9398087866 4.5675617145 5.2573140126 0.8352010928 0.3950776000 2.1592977372 2.9000275472 5.4447066133 2.0335513119 4.6409940048 9.5034146075 5.4206936476 2.0617708665 1.7936623021 6.7242578462 1.7555508674 3.1975687314 0.3806146660 4.2740583831 7.9795881021 3.0431545064 3.5573793355 6.8343261985 4.3598848429 1.2659071280 8.2701451616 0.5578187657 3.4815091524 6.7573590812 6.8330881683 0.9500711662 1.9571912767 4.3461077212 1.3349735659 3.2373817611 2.9057371751 3.8595630333
-0.0330029948 4.1374206357 -0.1574995367 4.8362308488 3.9311376261 2.9967626708 2.2591969379 6.9279992986 5.4835827999 2.0969584659 1.2516674735 2.6892895136 6.9748032412 0.9225488512 -0.0899616603 7.1303645825 6.4352120816 2.5829201632 0.7415103192 6.3228231903 2.5505368139 3.7128578249 1.5971695246 5.0293287521 8.4402144262 1.3560231403 2.8343928794 5.5999610677 6.0245155051 0.3549364190 1.0141362271 5.9800802367 4.0739679512 3.2708252839 1.8120851989 1.3396880227 7.9862150157 1.7024069180 1.3513495570 6.0460025479 5.7632123592 4.0583352363 4.0160376215 6.1295963745 0.3376833829 0.3662519351 2.1280382382 2.6041440510 5.2955667568 1.5342269128 5.0032789929 8.8663817209 5.5733996872 2.3480397659 1.3788995803 7.7851415948 2.1492505033 3.0929448355 0.2134846284 4.5591136003 7.8428113469 2.3464476289 3.8640640610 6.0846318498 5.0108432185 1.4220706463 7.8385782356 -0.0247758172 3.2419880646 6.3387390393 7.3717752393 0.7253353880 1.4162773932 5.3742759403 1.4865230024 3.1657890255 2.6074977552 3.9922770502
-0.0745070515 3.4234333023 0.1323140877 4.9301758344 3.3482629347 2.5370578375 2.7292834674 5.3500311075 5.2011382134 2.2211366022 1.4350173668 2.7105388136 7.2659848835 1.4743867214 -0.0926492699 7.6821839907 5.4016775124 2.4848273459 1.0947547821 5.2182423747 2.3623633785 3.8241849731 1.6525934633 4.8665416288 8.7993408918 1.9212890431 2.8351585713 6.0364851231 5.1317040734 0.2132352889 1.2799027040 5.0957621563 3.8932050445 3.4373521274 1.9553554832 1.1739172907 8.6223594711 1.8825661140 1.3032302893 6.0985807861 5.1495534288 3.7998661677 4.4966583085 4.8715960675 0.6529676865 0.4534662313 2.0419218525 3.1671210095 5.3903731986 1.7594989367 4.5638893478 9.4511976431 5.1620663628 2.0934337582 1.7649956020 6.4900042716 1.8267118629 3.2816707558 0.2531825590 4.1959757547 8.0820303776 2.9961800803 3.7805479777 6.9000819596 4.0863644992 1.0663097314 8.2309638911 0.5557245461 3.4796235526 6.5606065211 6.4437369564 0.9784192355 1.8094221626 4.0852431610 1.4862386546 3.1994232256 2.7515547434 3.8154990595
-0.0309003068 2.9714740860 -0.0625651988 5.0913103611 3.3074579316 2.6227344384 2.9794112274 4.9760117345 5.1000641155 2.2672166429 1.7057851684 2.6293742525 7.3236846035 1.7191051137 -0.0390328817 8.1344241099 4.7796914894 2.6366767087 1.2094317477 4.6661016796 2.2786290503 3.9583109137 1.7675168571 4.8668743455 9.1997692019 1.6133584225 2.6814317866 6.3661186437 4.7632995246 0.3725377621 1.4841398581 4.6741271510 3.8272785149 3.7481990868 1.6893586089 1.2876151998 9.0611705846 1.7699690959 1.1777142235 6.4440660945 4.6721972733 3.8937976299 4.7671897488 4.7862273871 0.8000264787 0.3200394803 1.5343797481 3.2465445837 5.5119450249 1.7808723429 4.6471834661 10.0353834845 4.7673382168 1.7415114465 2.0546708032 5.9188524234 1.6058975142 3.2453779237 0.4863574468 4.1706407272 8.4437311448 2.8225315305 3.4814618992 6.9583830907 3.4968886103 1.1872395261 8.6741453098 0.3195766727 3.3353756661 7.1373647054 5.9408887286 1.0079026273 1.9329992625 3.4563616848 1.6241194364 3.4639453352 2.9883827246 4.1470378429
-0.0213894023 3.1260197308 0.0540939632 5.2857537115 3.1486054679 2.5293241695 2.8248859441 4.7825475208 5.0180048188 2.3605803272 1.6204980180 2.7066893290 7.4593778261 1.3912842540 -0.1133094682 8.0293108424 4.9054823619 2.5439871748 1.1642744387 4.8531460031 2.3362220963 4.0506030538 1.5027234868 4.8836843692 9.0341072017 1.7167780699 2.6973112542 6.3620112995 4.6254132557 0.1792085870 1.2103645613 4.6533800486 3.8833381116 3.8154625812 1.6872070574 1.2588399697 8.9220250312 1.6728077618 1.1697121099 6.5886550483 4.8042921528 3.7511718357 4.7824180624 4.4795287714 0.3657135755 0.2715560896 1.6169969336 3.1275469942 5.5474095861 1.4195572374 4.4596651871 9.9291613704 4.9272282837 1.9920216442 1.8951466899 6.1527464897 1.6599257306 3.2495735883 0.2632560975 4.2457882653 8.3917951430 3.0113248108 3.4951614366 6.9912497356 3.3233710318 0.9063070109 8.3302282440 0.4406184210 3.4964774342 6.8968468049 5.9506760367 1.0049035127 2.0000831337 3.6584182292 1.4738010759 3.4511929714 2.7266231694 3.9544968602
0.0264573073 3.3111723766 -0.0639279742 5.2237459101 3.2369799078 2.5981263461 3.0259525902 4.9145692944 5.0108247931 2.1661365377 1.4702308538 2.6334155768 7.2050321222 1.6314300377 0.0505416917 7.9802728909 5.0186324643 2.7446543203 1.1572626987 4.6864025341 2.3782063292 3.9941059400 1.6004951487 4.9673753096 8.9253396596 1.8063547528 2.8531035102 6.2102267927 4.8040259577 0.1599716311 1.2662898941 4.8278515688 3.8926182763 3.8811433077 1.5281711670 1.2335113688 8.8062434269 1.7920886202 1.2683865884 6.3477886968 4.8096073165 3.8569427301 4.6998903269 4.8542112919 0.5348936811 0.3603133655 1.3751333827 3.5054495130 5.4405903232 1.4258761325 4.4689232222 9.7160305942 4.9475407854 1.8898037502 2.0686034275 5.8554257520 1.6003004322 3.1272015928 0.4759074889 4.1859972401 8.2697461025 3.1097262090 3.5509545958 6.9083620555 3.5430728071 0.9168366623 8.0121784915 0.7338696814 3.3905841668 6.9270956305 6.0523712297 0.9047309847 1.6648567993 3.2754652529 1.7311121406 3.4738955186 2.9705152565 4.2325758108
-0.0053755413 3.6286508629 0.2232806427 5.0522457731 3.4095176478 2.3141050316 2.8793721194 5.7789969765 5.2546519347 2.2111697881 1.4005513542 2.5837413253 7.1904376006 1.5963076649 0.0338018363 7.5624007151 5.9362556134 2.6645846340 1.1995422422 5.2820558325 2.3169617211 3.8975646132 1.8674963827 4.7719684145 8.7387082799 1.9475665461 2.8850796656 6.1413366843 5.5029697461 0.4445626458 1.5616568199 5.0474746816 3.7852260577 3.6044170202 1.8970107295 1.2428521264 8.5394859937 1.9344415712 1.2939925326 6.4184278789 5.3601296622 3.9871959631 4.5968739622 5.3150350155 0.8503799718 0.4014245681 2.1330720255 2.9332404092 5.4130846792 2.0630190411 4.6576070063 9.4887577000 5.4451437914 2.1025420074 1.8086778096 6.7656166436 1.7416595018 3.1984979463 0.3914098149 4.2751863767 7.9744543556 3.0356851756 3.5736044951 6.8320651552 4.4015206328 1.2837194865 8.3105250354 0.5785661206 3.5018231842 6.7703577425 6.8488292361 0.9944425324 1.9752704453 4.3808418302 1.3672257959 3.2689968714 2.8880606349 3.9142844421
-0.1039501603 3.3987182388 0.0253228554 4.9472945817 3.3536835361 2.6646843530 2.6854541044 5.1714055782 5.2079866402 2.2630115574 1.4450309003 2.7087992229 7.2181724050 1.3287659120 -0.1024030103 7.6610356947 5.1784734759 2.5058731265 1.0842068590 5.1277515407 2.4243706252 3.8948360063 1.5875722875 4.8744496503 8.8842800960 1.7601262924 2.9766295247 6.0210970584 4.9989464430 0.1971608209 1.1357659740 5.0836744703 3.9774439111 3.5765169248 1.7511482196 1.1167510377 8.6703942342 1.8938420418 1.3933273002 6.1792170920 5.0588631014 3.8556902787 4.4963532039 4.7212862020 0.5554001862 0.4589677837 1.8249275006 3.4482464190 5.3909385387 1.6702167856 4.6523411045 9.4613856554 5.0596191456 1.9963147079 1.7211620762 6.4850187341 1.6513606275 3.2295122917 0.2364399841 4.2887532165 8.1603986907 2.8953049321 3.6598280589 6.8190518937 3.8353480641 0.8259688758 8.3074392171 0.4275561966 3.5430860214 6.5738048435 6.2804368421 0.9469120632 1.7996384370 4.0615035678 1.6123657650 3.1884460303 2.6617248432 4.0914569412
-0.0056853673 3.3389330267 -0.0780503957 5.2059202597 3.1794263754 2.5588165867 2.9867458056 4.8869203015 4.9683334633 2.1781487594 1.4664843592 2.5588465271 7.1922113009 1.5737625700 0.0584974416 7.9203392491 4.9953750354 2.7038574187 1.1754825491 4.6793244132 2.2991071266 3.9292175824 1.6374467291 4.9116074997 8.8701790108 1.8087022921 2.7772364442 6.2329880129 4.8184858376 0.1528109097 1.2315912613 4.9570963273 3.8579351817 3.8649510761 1.5901473230 1.2969859125 8.8528031851 1.8779807828 1.2765076095 6.2234097929 4.8215437586 3.7885735394 4.7029915155 4.7760825874 0.5699896789 0.2932308570 1.4470257053 3.4784522183 5.4208548861 1.3823194990 4.4257311791 9.6523842069 4.9811955409 1.6689473793 1.9725077408 5.8930882077 1.6267062182 3.0918071953 0.4835390630 4.0954527621 8.2925281086 3.1365666672 3.4219132060 6.7935173326 3.5213418672 0.8080451805 7.9472397283 0.5990924320 3.3273899547 6.8826390603 5.9299303968 0.8893380660 1.7259990397 3.3869807571 1.7394239371 3.4073567330 2.8756207552 4.1972111185
-0.2361826517 3.9666547717 0.1719081539 4.4418131477 3.6021827216 2.9020426811 1.7347966118 6.7090565483 5.6944122217 2.1369996656 1.0927010972 2.9252622104 6.6914664584 0.3421243732 -0.3064371121 6.3539212902 6.1903348619 2.5015304914 0.3550316352 6.5924046506 2.6816027467 3.4098579953 1.4189932395 5.2870059396 8.2312503128 0.7674218155 2.8205119786 5.0361546470 5.8053958817 0.1185605231 0.9447326342 6.1410779979 3.9751133440 3.0293163641 1.8677869532 1.2563270622 7.7160112428 1.1162038112 1.4629092806 5.4554221273 5.4411795245 4.0812425371 3.5400484783 6.1854896191 -0.0293844267 0.3806012730 1.9875720743 2.7081540537 4.8838476355 0.9654929200 5.3218703343 8.2293992805 5.6557629230 2.7158739096 1.1776868660 7.8261737545 2.0725203160 2.4659464203 0.2653865428 4.8783634884 7.7632033979 1.7607495624 3.9411471346 5.2761367567 4.7587788587 1.2690058480 7.4096312365 -0.5176616248 3.3346304653 5.8473840450 7.0504016309 0.7600931291 0.7729298975 5.5470090665 1.5837263901 3.1160068906 2.5064807792 4.1860463289
-0.1149887526 3.4038783758 -0.0180292067 4.9626627478 3.3439042916 2.6626718337 2.6408145534 5.0353612441 5.1535501234 2.2749518692 1.4408170709 2.6158598070 7.2133901234 1.2140490226 -0.0689199748 7.6059600419 4.9977647310 2.4840199834 1.0126507210 5.1349425072 2.3282023732 3.9082427739 1.5197172104 4.8943412487 8.9707689931 1.5970059194 2.9191906253 6.0100973137 4.8469221611 0.1935716447 1.1417650252 5.0517956447 3.8800803934 3.6726863961 1.5368077666 1.3067968068 8.7025510879 1.7298381907 1.4569694025 6.2484873525 4.9987900209 3.8109474741 4.4638652068 4.6810636982 0.4536956761 0.4916194197 1.6591512511 3.4769214741 5.4431510063 1.5842107353 4.5219774002 9.5186797449 4.9424898643 1.8490272873 1.6292338489 6.3716010381 1.7119374317 3.2185998995 0.2514310042 4.2320880428 8.0996249624 2.7909122754 3.5801486665 6.8008519141 3.6516433823 0.7946328017 8.2065773505 0.3128534907 3.5850735720 6.6165724895 6.1615154611 0.8350314509 1.8431480956 3.9117532923 1.6334166456 3.1178766788 2.6845223474 4.0284189065
-0.0967615347 3.3496344213 0.0363306607 4.8817401696 3.2763027598 2.4443897313 2.6158027888 4.9022457969 4.9448313453 2.2318495449 1.5882395846 2.4908385605 7.2720459858 1.2679879355 -0.0145980571 7.7739882589 4.7632370622 2.3056242718 0.9821078069 4.9249857188 2.2007052748 3.9438241567 1.5428541068 4.6590826720 8.8746446533 1.4373549781 2.6257582344 6.0393683372 4.6706134589 0.1959085087 0.9663774981 4.7829923454 3.7200127831 3.9424412334 1.6046247394 1.2959193627 8.8202860237 1.3007681782 1.0480088805 6.1409511892 4.6173302702 3.6270931590 4.6013118598 4.7174972403 0.5432583472 0.3942937602 1.6827596681 3.0622237627 5.4019762969 1.6346402023 4.1713295482 9.5511415288 4.6622080574 1.6394012373 1.7117140317 6.0766462047 1.4779483684 3.1104606702 0.3970500466 4.1148514333 8.2590045691 2.6598155575 3.3689062793 6.7319886675 3.5262749956 0.9702252586 8.0920988738 0.1753587302 3.2121454493 6.8260786876 5.8978091777 0.8503133133 1.6785280565 3.7179536392 1.4225211751 3.0267157941 2.7794682210 4.1430610811
-0.1025354511 3.3982629512 0.0376149830 4.9435846671 3.3529617195 2.6566254673 2.6914014265 5.1963193444 5.2117712224 2.2585610468 1.4437957450 2.7187653667 7.2241719910 1.3493169956 -0.1045694104 7.6702422823 5.2079091022 2.5068880462 1.0903447042 5.1375789270 2.4228103201 3.8814982757 1.5813320039 4.8665123781 8.8594755014 1.7848294116 2.9593766152 6.0129563910 5.0127834115 0.1910887193 1.1405398934 5.0835876385 3.9786369661 3.5617144524 1.7922913655 1.1026099505 8.6689417396 1.9029608154 1.3834130128 6.1597299890 5.0661301879 3.8653763673 4.5352938747 4.7346753791 0.5711869622 0.4724545142 1.8583139889 3.4291426372 5.3735933740 1.6876639812 4.6555176091 9.4560608880 5.0749568978 2.0226575781 1.7275385479 6.4755911463 1.6637345606 3.2451624568 0.2578379173 4.2929899201 8.1587865002 2.9229265746 3.6889836505 6.8149899315 3.8807961592 0.8453730992 8.3092773992 0.4383666152 3.5373186050 6.5663648141 6.2968746492 0.9687104222 1.7936353677 4.0808308583 1.6056122522 3.1990477370 2.6695317545 4.0786847900
-0.1144139705 3.4039705486 -0.0167139914 4.9621052667 3.3451939803 2.6646883421 2.6438758161 5.0435168028 5.1583867990 2.2749143185 1.4411578197 2.6221248894 7.2121491869 1.2197801793 -0.0715453869 7.6083126444 5.0088176446 2.4859681947 1.0157728244 5.1367523194 2.3376305133 3.9107746775 1.5260079105 4.8958475362 8.9713533329 1.6056356645 2.9241573620 6.0131433194 4.8589753367 0.1964281007 1.1406447689 5.0557365280 3.8892541889 3.6638002641 1.5469512063 1.2995344797 8.6991225210 1.7436755560 1.4594379356 6.2478534979 5.0045454793 3.8122919786 4.4532016338 4.6826358804 0.4590352136 0.4869589133 1.6672460935 3.4793721677 5.4494749175 1.5873550366 4.5329784389 9.5184237133 4.9507138169 1.8571750469 1.6342819707 6.3830170701 1.7060460741 3.2152488953 0.2434374409 4.2354190694 8.1014611227 2.7981734492 3.5822727533 6.8054660178 3.6566834597 0.7928790329 8.2140541526 0.3190145631 3.5839396637 6.6143611066 6.1714063552 0.8387184292 1.8429632892 3.9174333567 1.6315484715 3.1174405959 2.6859670497 4.0312022134
-0.0032688361 3.1181781163 0.0081778791 5.2069693818 3.1041057905 2.4647305895 2.9471502008 4.6768728158 4.8632109251 2.2250195670 1.5524728866 2.4397542162 7.4503271682 1.5317459989 0.0426751309 8.1899809301 4.6855319108 2.5459266688 1.1516316350 4.7134231285 2.1937518238 4.0844427198 1.5422862472 4.6786308223 9.2781555886 1.5481187775 2.7701356171 6.2983168520 4.6502667009 0.2514518510 1.2230634494 4.6971992662 3.7799401673 4.0440635064 1.5813886880 1.2637074248 9.1425352947 1.5315232334 1.2181209638 6.4305444645 4.7264632251 3.6865248046 4.8334924608 4.5983802103 0.7550257970 0.3283722536 1.5495498943 3.2290121281 5.5595741793 1.5098602104 4.1507318937 10.0523498573 4.6284377828 1.6474014091 1.8734218607 5.9622917297 1.6076718513 3.3356015696 0.3133958349 4.0132316484 8.5245821240 2.7674104517 3.4451055826 7.1000321383 3.4475340986 0.9120452392 8.5022908147 0.3892180164 3.3407552675 7.0911682797 5.8477774355 1.0297826135 1.8289592754 3.4600966936 1.5215164642 3.3751243303 2.7601441808 3.9663751865
-0.0183821594 3.4974649743 0.2115809930 4.9690207960 3.3595562883 2.3469458080 2.7717357497 5.5016751190 5.1254857333 2.1880302863 1.4124035585 2.6052953295 7.2653726748 1.5628873228 -0.0327856939 7.5935685674 5.6274353585 2.4802541515 1.1851816358 5.2131548167 2.2957144373 3.8702607946 1.7700831544 4.7084789989 8.7518179242 1.9390068142 2.7661758124 6.0429135294 5.2649737874 0.3548482071 1.5057145994 5.0604097081 3.7916750921 3.4147598829 1.9092454705 1.1496672246 8.5268797329 1.8652690770 1.2801704445 6.2148734001 5.2386475766 3.8613240780 4.6085987560 5.0453882011 0.6772957093 0.4781890518 2.1711533046 2.8615472851 5.3763882249 1.8384539275 4.5109975956 9.4834048329 5.2499681291 1.9674715597 1.7741744346 6.5966398106 1.8418629658 3.2855984621 0.4496632755 4.2011610509 7.9524833722 3.0187983927 3.6154168175 6.8707910338 4.2358492029 1.1521060507 8.1418937126 0.6224397190 3.3877869650 6.6349191450 6.6589199785 0.8188433290 1.8143246686 4.1738365241 1.3195387638 3.1937633865 2.7389248273 3.7190670691
0.2228637897 2.8511586392 0.0281928664 5.3611735352 3.2019488058 2.3999865544 3.2556300479 4.7117099289 4.8017738367 2.3901272353 1.1882471968 2.1093128630 7.7646687861 1.6647603380 0.2651497934 8.6036431616 4.6994906917 2.5863348621 1.0864625706 4.3668336032 2.1891929970 4.3655894979 1.7189225665 4.6117300227 9.7196500776 1.5825827873 2.9235766412 6.5142555963 4.7969354410 0.3553516101 1.2194883713 4.6951021849 3.6991549754 4.2086939953 1.5835836932 1.3012427180 9.5250708507 1.6661671486 1.4638781685 6.7697834294 4.6662347034 3.7324692106 4.9958896274 4.7932136910 0.8344181750 0.4286229441 1.4736579837 3.2454520947 5.8959077663 1.6562470337 4.2967946147 10.3241672623 4.6905957096 1.8051432208 1.8230755440 5.5799003575 1.2355819982 3.5933722500 0.5452842570 3.8898642162 8.9893526263 2.7981096082 3.6709459893 7.2770351136 3.6377796833 1.1528948832 8.8711231458 0.4330122339 3.5618560643 7.2533149568 6.1284977873 1.1020720976 1.8130645879 3.0904034025 1.6526669145 3.7894784158 3.0667288353 4.0645101980
-0.0226340342 3.1280560004 0.0561197836 5.2914134566 3.1543741766 2.5415277005 2.8320237195 4.7908984990 5.0450530218 2.3641800614 1.6241777856 2.7177984055 7.4536780410 1.3886896541 -0.1111109853 8.0222096178 4.9178626579 2.5530013993 1.1619940747 4.8658308147 2.3516262087 4.0428441703 1.5015471043 4.9101054083 9.0421684892 1.7399439887 2.7037002919 6.3640833434 4.6351961329 0.1736350216 1.2118863582 4.6480717570 3.8844370905 3.8095176034 1.6919513002 1.2666982383 8.9202777282 1.6769861125 1.1765007629 6.5974269902 4.7967152052 3.7670854414 4.7786966467 4.4918313630 0.3729831656 0.2899614775 1.6207255370 3.1430395582 5.5353021089 1.4246560214 4.4745800321 9.9402198671 4.9520684511 1.9972830807 1.8789418794 6.1544859032 1.6661188598 3.2636310302 0.2694950920 4.2612302818 8.3812676038 3.0229674596 3.4963580864 6.9811042411 3.3337328826 0.9196427602 8.3415391403 0.4432811796 3.5131587316 6.8808126513 5.9436562543 0.9918858105 1.9933355536 3.6610744483 1.4837050492 3.4591710254 2.7433441320 3.9743589309
-0.1166674310 3.4048203243 -0.0235311585 4.9668239197 3.3320478646 2.6276462718 2.6067919523 4.9487515417 5.0909197259 2.2707437131 1.4500274113 2.5489915301 7.2341084668 1.1695747786 -0.0414747765 7.5975912055 4.8840077703 2.4518910571 0.9799292441 5.0391985074 2.2434814343 3.8748146242 1.4874255728 4.8592644999 8.9334370785 1.5177386093 2.9004565622 6.0067601911 4.7371036995 0.1482725786 1.1504104133 4.9959880263 3.7761626543 3.8065731088 1.4574113298 1.3220461802 8.7608566568 1.5553494653 1.3291007968 6.2361509914 4.9140039129 3.7446389323 4.5598312968 4.6691985019 0.4188180969 0.4752456510 1.5924264532 3.3968542923 5.3301466255 1.5750418028 4.3940111238 9.4727573885 4.8478452350 1.7533754662 1.6462951220 6.3351030043 1.7174276215 3.2324438253 0.3032901424 4.1807009129 8.1342824594 2.6887774804 3.5558835624 6.7522403735 3.6110727624 0.8599093603 8.1470487868 0.2776506597 3.5544848084 6.6488775987 6.0276903902 0.8278945942 1.8230127261 3.8855746830 1.6393744275 3.1634274110 2.6489784678 4.0505836803
-0.0227503715 3.1564638757 0.0849019006 5.3269478436 3.1965770277 2.6741202264 2.9350689202 4.8690037005 5.3294006412 2.3675307938 1.6635013477 2.7611833569 7.3491855549 1.3615287818 -0.0302209825 7.9937313106 5.0691238342 2.6273797543 1.1408564675 4.9212437509 2.4227738933 4.0120430224 1.6240996354 5.0532432961 9.2060420045 1.8585873700 2.8466481754 6.2221266522 4.6692433162 0.2137981660 1.4447134088 4.6676951961 3.9555708097 3.8006623623 1.7048483280 1.3188635360 8.9069217362 1.7334823634 1.3472177426 6.5525463663 4.6971679884 3.9642807281 4.7084726403 4.6816722857 0.5175675152 0.4720157045 1.8084896989 3.2952692597 5.5361737419 1.5427112280 4.6557369419 9.8108843910 5.1206359265 1.9429452422 1.8633395262 6.2543807381 1.8368359540 3.2568357771 0.3754673098 4.3605250011 8.3494119179 3.0704032901 3.4088248146 6.9387093624 3.5420375076 0.9924410473 8.4673586051 0.7142029592 3.5583784319 6.9592372092 5.9746848804 0.9472566242 1.7989320333 3.7411028494 1.6530703661 3.3820685344 2.7955476704 4.2832481912
0.0740982826 3.0461119955 0.0331970431 5.2357122950 3.2462503489 2.5460105039 3.0711028664 4.8671772898 4.8978173556 2.2408483582 1.4141873469 2.5727031709 7.4546033334 1.7322279679 0.0811838806 8.1089375021 5.0231288914 2.7038275965 1.2884089037 4.3975670492 2.3663358445 4.1423487114 1.6867581013 4.8522167878 9.1306793887 1.6996310112 2.9842861922 6.4215568213 4.8471074202 0.3016715503 1.5856702157 4.3415581063 3.8748332331 3.9601477286 1.6571496669 1.1228887872 8.9571958301 1.7109940238 1.4038756454 6.6386810585 4.7272019632 3.9900103190 4.9668206030 4.8759646538 0.6562288014 0.3353815563 1.2786235402 3.2381844814 5.6034642064 1.6788707941 4.3571459726 10.0970837354 5.0517254573 2.1124987654 2.0881890955 5.5273231608 1.6040924181 3.3112608813 0.5804975644 4.0264935584 8.7161801962 3.0601869591 3.6396441099 7.0486482576 3.5850379380 1.0475243751 8.4118753122 0.5816859986 3.8128832550 7.3265098270 6.1156020841 1.0169431760 1.7298186013 3.0021780449 1.6304324726 3.4845900606 2.9704730970 4.1153457578
-0.1033392250 3.1400021113 0.0439145967 4.8700605131 3.2506511750 2.4551408523 2.7976716760 4.9534439600 5.0097616152 2.2448816219 1.6992704605 2.5596145398 7.2919245870 1.5067928897 -0.0204628599 8.0002024110 4.7805116461 2.4416313204 1.0707550606 4.8095028100 2.2019571831 3.9390862859 1.7041339249 4.8239983279 9.0604841766 1.4929183653 2.5951556019 6.1248215309 4.6925360084 0.2961727678 1.2182884243 4.7981316939 3.7439691029 3.8377802651 1.7178215440 1.4081722141 8.9087769698 1.6049955370 1.0972943981 6.3386542969 4.5818066453 3.7936402786 4.6861737141 4.8321023853 0.8377568936 0.4250124614 1.6408398066 3.0756227962 5.4249762913 1.6755229339 4.3061280842 9.7606853492 4.7472356361 1.6762122552 1.7785685875 5.9773944533 1.6290152084 3.2409484651 0.4655265709 4.1368939992 8.2671737457 2.7145142601 3.2548468435 6.8198081776 3.4691914549 1.0801827527 8.3365031994 0.2624331571 3.2564905250 6.9132715146 5.9576809280 0.8790988260 1.7514965734 3.4811203766 1.5154245854 3.2153038296 2.9415675404 3.9993416504
-0.0230754015 3.6865494154 0.1910004553 5.0710344211 3.4166702754 2.3458771631 2.9087215394 5.9097368522 5.3411889046 2.2155600017 1.3859923453 2.5958471856 7.1371573518 1.5763930827 0.0439680486 7.5909023352 6.0562896555 2.7499250837 1.1639991418 5.3849229368 2.3409637561 3.8666221299 1.8190784162 4.9132768792 8.7621163499 1.9026782059 2.8695890513 6.1191537217 5.5386808610 0.5130195740 1.5273124556 5.1179722991 3.8220503416 3.6595278668 1.8586998479 1.3412515234 8.5479922081 1.9393325999 1.3797458266 6.3936069287 5.4302595902 4.1205839051 4.6703278971 5.5183460218 0.8526857063 0.4737195041 2.0167913014 3.0577178914 5.4073828279 2.0911469328 4.6845222044 9.4837643177 5.4764876923 2.2430263600 1.8097259555 6.8086270883 1.7421558902 3.2520079692 0.5177117871 4.2900500799 7.9052599864 2.9918881882 3.6878637328 6.8606326313 4.5067844691 1.3494828920 8.3855342908 0.5646549297 3.5978920194 6.7776473727 6.8909578387 1.1037457191 2.0141823709 4.4114369035 1.4278716708 3.2420126534 2.9115601148 3.9726841726
0.0511128706 3.2540058452 -0.0438069049 5.2290063350 3.2529711532 2.5966813168 3.0278784063 4.9102565518 4.9879166828 2.1585894487 1.4638602384 2.6557607355 7.2335579673 1.6707536417 0.0406061744 8.0279459643 5.0163764226 2.7317057846 1.2062835573 4.6612857257 2.3511118687 4.0250625964 1.5850142586 4.9312865102 9.0063083529 1.8529065255 2.8653390285 6.2345318487 4.7797375041 0.1862857149 1.3401924172 4.6501378798 3.9099955436 3.8790003225 1.5101658149 1.1463241304 8.8149518913 1.7247214443 1.3061359611 6.4527160473 4.7732532377 3.9472384308 4.7749223392 4.8746418807 0.5450432068 0.3667207665 1.3407757625 3.4159801197 5.4876517604 1.4943972143 4.4557018559 9.7367603671 4.9426769716 2.0418851008 2.0669572416 5.6853419482 1.6204150881 3.1679509385 0.5186518955 4.2471562123 8.3140829139 3.0319136705 3.5852143204 6.9383885583 3.6128491592 0.9210700072 8.0045034721 0.7199865971 3.5044135828 6.9897510396 6.0727886791 0.8796623432 1.6449458628 3.2242295961 1.7622173174 3.5102643890 2.9548071928 4.2555670929
-0.2454978147 3.9619874022 0.1873388240 4.4322837123 3.5902557513 2.8865113076 1.7251835444 6.7162262844 5.7112119460 2.1415575115 1.0835442796 2.9280247601 6.6746486953 0.3422367280 -0.3016412819 6.3307300762 6.1830948091 2.5132354225 0.3404578188 6.6118868579 2.6816473447 3.4143461797 1.4040456818 5.3106776955 8.2111160591 0.7525546304 2.8120886899 5.0044848287 5.8081261153 0.1285101670 0.9303693304 6.1354823377 3.9727521860 3.0573061836 1.8767825064 1.2735103063 7.6998337429 1.1076153582 1.4535874117 5.4193758802 5.4331109634 4.0855462025 3.5272597912 6.1796627618 -0.0462312791 0.4010186105 1.9785254132 2.7347102262 4.8562825922 0.9584627057 5.3398262728 8.2286337798 5.6470070022 2.7363719333 1.1718444819 7.8386548115 2.1012104210 2.4638850583 0.2846064618 4.8852295212 7.7542236178 1.7556918989 3.9533606347 5.2497677265 4.7685590968 1.2509246352 7.3731148686 -0.5209127030 3.3632323574 5.8378570950 7.0353868030 0.7772358035 0.7683822761 5.5511281516 1.5667056311 3.1000484996 2.4847472572 4.1942094173