-30088.2242147897
-30088.1256352075
-30088.6493572059
-30088.3638936086
-30088.1789289476
-30088.8068635539
-30088.3641572868
-30088.2204237016
-30087.7901058189
-30088.1717041928
-30088.1186417493
-30088.1327220006
-30088.2273322603
-30088.4393031175
-30088.1371526919
-30088.2605068658
-30088.1932421281
-30088.1456822319
-30089.0452469913
-30088.348424353
-30087.7134169674
-30087.7812252522
-30088.1672110514
-30088.0326014385
-30087.9212184986
-30088.5838737245
-30088.2477805163
-30088.151610637
-30088.4068482527
-30088.3179715647
-30088.4442807574
-30087.9126654208
-30088.2111420394
-30088.211930897
-30088.3222543622
-30088.9284851799
-30088.1875203934
-30088.4090374074
-30088.12240549
-30088.3583831702
-30088.4948110468
-30088.1930032123
-30088.2253832459
-30088.3333172807
-30088.211464222
-30088.4312876004
-30088.2239153285
-30087.6669976357
-30088.5986643286
-30088.5473849101
-30088.0669417792
-30088.3996549271
-30088.1263052875
-30088.084249435
-30088.0391773382
-30088.6619481789
-30088.3995727487
-30088.2436984026
-30087.9743032554
-30088.1988361055
-30088.9822057303
-30088.4463037867
-30088.3233679875
-30088.3053256248
-30088.4937869469
-30088.8096867335
-30088.0189811955
-30088.1297235798
-30087.7651290467
-30088.3538490757
-30088.5822923357
-30088.4832928821
-30087.7661894737
-30088.5177087343
-30088.0854754432
-30088.2317267605
-30088.1772222505
-30088.1412681395
-30088.113464242
-30088.1783845841
-30088.1230527124
-30088.2793179498
-30088.2164002285
-30088.4089091058
-30088.5089058561
-30088.0981092741
-30088.252855845
-30088.5390346931
-30087.9737412045
-30088.3623588874
-30088.4191730985
-30088.6016533615
-30088.7054609281
-30088.2686044253
-30088.3626727705
-30088.1500578201
-30088.3285469915
-30088.3468931692
-30088.3995990077
-30088.6218738583
-30088.4953144571
-30088.64792616
-30088.2391958733
-30087.9664744082
-30088.5288817228
-30088.0613580061
-30088.105051847
-30087.8968218728
-30087.9704250909
-30088.3492552522
-30088.1714659573
-30088.148509085
-30088.1951976732
-30088.3335102093
-30088.4651522863
-30088.3981679617
-30088.2818627571
-30088.1701222598
-30088.6746761611
-30088.3879261463
-30088.4690398386
-30088.2086092051
-30088.2079075599
-30088.0195920907
-30088.0641169669
-30088.2897520136
-30087.6235523707
-30088.1909822239
-30088.4228618718
-30088.201510439
-30088.3489314369
-30088.2267553792
-30088.096711426
-30087.7968194081
-30088.1933017211
-30087.9339519231
-30088.313901152
-30088.4626496566
-30088.303122048
-30088.0225015304
-30087.8558143383
-30088.4971630616
-30088.2685837447
-30087.9838768956
-30088.0062828736
-30088.155140904
-30088.2950093863
-30088.2052543153
-30088.3157722058
-30088.1203850458
-30088.1159455108
-30088.1781942406
-30088.4507731181
-30088.2281369005
-30087.9431300461
-30087.9216488464
-30088.2119352508
-30088.7116119222
-30088.6899488146
-30088.2930195549
-30088.5438089279
-30088.3513211394
-30088.46229414
-30088.4053657773
-30088.5981489452
-30088.5410450691
-30088.3897894449
-30088.0276657042
-30088.1520277873
-30087.937299874
-30088.3192896835
-30088.4645721399
-30088.3131136549
-30088.3867093899
-30088.1788195579
-30088.3832151779
-30087.6712256023
-30088.1686200561
-30088.2154641573
-30087.7398994808
-30088.3145807559
-30088.0385861712
-30088.1715010599
-30088.1715103118
-30088.6325833012
-30088.2570628588
-30087.4185132017
-30088.2509544505
-30088.4218217172
-30088.090950643
-30087.8735679885
-30088.1399444424
-30088.4582056317
-30088.1115397179
-30088.3796581076
-30088.4382553437
-30088.1841430542
-30087.8805275684
-30088.0544932577
-30088.5074975317
-30088.3340265451
-30088.4154311269
-30088.6401739128
-30088.5070492244
-30088.7282584778
-30087.9991532226
-30087.7823011898
-30088.2984902647
-30088.3617052703
-30088.4792558032
-30088.3960703733
-30087.9358516849
-30088.281503431
-30088.2515339166
-30088.3313599669
-30088.2714108699
-30088.1276560599
-30088.1635297612
-30088.3206128363
-30087.8169608559
-30088.32876822
-30088.3644635508
-30087.5550893803
-30088.5141270377
-30088.3269706369
-30088.2946206719
-30087.7858541784
-30088.1459551619
-30088.2395519341
-30088.2493621772
-30087.8544837023
-30088.2443280737
-30088.1551422646
-30088.2060069818
-30088.3159003713
-30088.6360998265
-30088.6223753639
-30087.727775591
-30088.6192353079
-30087.9844000342
-30087.8247328313
-30088.3867756496
-30088.3044896915
-30087.8356007804
-30087.834065923
-30088.1751593565
-30087.7930601573
-30088.0833691471
-30088.1369794915
-30087.834702533
-30088.4146161464
-30088.0026165497
-30088.3354990884
-30088.2820136442
-30087.8528727892
-30088.3391924876
-30088.4198314776
-30088.194857259
-30088.1761599186
-30088.1254406462
-30088.3204175948
-30088.1641062341
-30088.0974168808
-30088.3444936706
-30088.0847676755
-30088.3082098939
-30088.0339697623
-30088.5216009126
-30088.2758244181
-30087.9807897657
-30087.8879372245
-30088.6946090338
-30088.0678525437
-30088.199217881
-30087.9512497828
-30088.1784575106
-30088.2656615156
-30087.9609672351
-30088.1445637085
-30087.9231257435
-30089.0212926863
-30087.6833862275
-30087.8084973035
-30087.9475531182
-30087.9268994163
-30087.7959203444
-30087.8143887012
-30088.1571356335
-30087.8140350894
-30087.7560084757
-30088.1511045055
-30088.2858267734
-30088.3267461431
-30088.1714251402
-30088.414239541
-30088.1231676804
-30088.1087897368
-30088.5931451824
-30088.4252206894
-30088.1138857461
-30088.5938729505
-30088.5541497927
-30088.3535253964
-30088.3691851316
-30088.4682300283
-30088.1254524831
-30088.3727623383
-30088.1443890115
-30088.2183910123
-30087.5815620976
-30088.6336010064
-30088.368281442
-30088.3182025893
-30088.3119211166
-30088.3746446849
-30088.0143582558
-30088.0586357806
-30088.4743887776
-30088.1595524113
-30087.9431816116
-30088.2826078044
-30088.1063427544
-30087.6377718081
-30088.1461429204
-30088.5360996747
-30087.7202747769
-30088.1644689617
-30088.1827862953
-30088.1579191849
-30088.4619674675
-30088.6301624416
-30088.6930431555
-30088.6829571252
-30088.2494310219
-30088.379623141
-30088.4235942658
-30088.1996410178
-30088.2848641712
-30088.2230100063
-30088.386539591
-30088.2396543849
-30088.3142038784
-30088.1190871995
-30087.9586154925
-30088.2390355984
-30088.5073935843
-30088.1371731004
-30088.4453459465
-30087.8391333604
-30088.2506850579
-30088.4786908952
-30087.777007762
-30088.1493025686
-30088.3756241581
-30087.5449987241
-30088.4273086178
-30088.2291233126
-30088.4177488554
-30088.1181225564
-30087.9664837961
-30088.9831136377
-30088.1761234553
-30088.480061804
-30088.3000618574
-30088.3698622866
-30088.0528437045
-30087.833429177
-30088.5664765433
-30088.0749673646
-30087.6842516851
-30088.5579325813
-30088.3465225504
-30088.0921358342
-30088.4358097219
-30088.4262183943
-30088.2306302783
-30088.0667923888
-30087.837787486
-30088.232750044
-30088.0063541674
-30088.1651076125
-30088.1555217272
-30088.4617631102
-30087.8748288273
-30088.5817683808
-30089.0342389037
-30088.181873626
-30087.7249062881
-30088.3808084683
-30088.0239966591
-30087.789883502
-30088.1134445138
-30088.4822615712
-30087.4301900087
-30087.6710709057
-30088.4779967332
-30088.0553304155
-30087.7900507159
-30087.9641942315
-30088.1132483198
-30088.4926133205
-30088.1030662333
-30088.5066973814
-30087.9848741923
-30087.7204896106
-30088.3838320597
-30088.4482404199
-30087.4890190857
-30088.1863643183
-30087.9092321623
-30087.8780009927
-30088.3411708903
-30088.4608738426
-30087.9557140801
-30088.0161154301
-30088.4589731284
-30088.1616853746
-30088.4546375408
-30088.1585827342
-30088.17314313
-30088.4596340926
-30087.6031707825
-30087.9358810732
-30088.883537303
-30088.1063545913
-30088.432567215
-30088.5712143149
-30088.4556280347
-30088.1471596732
-30088.5021390687
-30088.4680888013
-30088.2925309747
-30087.7220667816
-30087.7860608487
-30088.1576576836
-30088.6038030597
-30088.0726046013
-30087.9577037755
-30087.7701626059
-30088.3280491595
-30088.0816444905
-30087.9885237812
-30087.7886453847
-30088.2578621928
-30088.315382811
-30088.6383395943
-30088.2900543319
-30088.0250642972
-30088.240415759
-30088.3590152903
-30087.7272978954
-30088.5722120198
-30088.2276511775
-30087.7821241798
-30088.3927681375
-30088.2710173935
-30088.0600115875
-30088.0176594032
-30088.2534648354
-30088.2033968672
-30088.8552449614
-30087.8900324999
-30088.6034599243
-30088.1820246491
-30088.3053190941
-30088.6099125565
-30088.0382951456
-30087.5838999624
-30088.1676902436
-30087.7778379809
-30088.494758801
-30088.4602708386
-30088.6045491955
-30088.1143027604
-30088.6316143043
-30088.4328210971
-30088.6975286777
-30087.6370123388
-30088.3917564188
-30088.4633200087
-30088.1062958148
-30088.0443932136
-30088.5483846558
-30088.1664786574
-30088.1574548229
-30088.4389825676
-30087.9517523768
-30087.8795123122
-30088.4338457412
-30088.082021368
-30088.5883645529
-30088.1952382182
-30088.2987178878
-30088.0461052169
-30088.624546287
-30088.1699785838
-30088.2160502902
-30088.3128631742
-30088.451471634
-30088.1350989138
-30088.3150532814
-30088.3026160526
-30088.4773432521
-30088.441556355
-30088.2388500168
-30088.4042854859
-30087.8899587571
-30087.8418985798
-30088.2866714144
-30088.5268537954
-30088.4105405635
-30088.5114384183
-30088.7251557013
-30088.2589343208
-30088.1575646208
-30088.4020454459
-30087.5342262869
-30088.1766781591
-30087.6274796516
-30088.2824543323
-30088.201733164
-30088.1374388195
-30088.5060912481
-30088.2792304653
-30088.1645399833
-30087.8618379832
-30087.9579625556
-30088.331386634
-30088.2217937941
-30088.3264913086
-30087.4539217247
-30088.3499049237
-30088.4479824561
-30088.2297423713
-30088.2196718515
-30087.4685863401
-30088.3128935149
-30088.1951584889
-30088.0066638328
-30088.5643856216
-30088.2465124665
-30088.3503884697
-30088.1261459649
-30088.5466325157
-30087.7649969355
-30087.9681383835
-30088.5635879203
-30088.2500655911
-30087.8402868504
-30087.6385984895
-30087.7319465498
-30088.2435854755
-30088.493289387
-30088.1369797636
-30088.603509449
-30088.2082090619
-30087.8507436356
-30088.3350839789
-30088.3529965435
-30088.1874439294
-30087.6225013315
-30087.9964348068
-30088.1683030437
-30088.275907957
-30088.1158606113
-30088.1132732182
-30089.012044358
-30087.775461748
-30088.1660480374
-30087.9413146395
-30088.1721707317
-30087.742017886
-30088.0660360487
-30088.3043156748
-30088.2132355461
-30088.3890403159
-30087.6880929781
-30088.1047085756
-30087.4447954394
-30088.1700877014
-30088.4626972765
-30088.0761117387
-30088.5177207073
-30088.2877685768
-30088.3403450252
-30088.3349797594
-30088.4364090523
-30088.1932877072
-30087.5335103558
-30088.1494307341
-30088.2000853795
-30088.276235854
-30087.8322222167
-30088.401504756
-30088.358519091
-30088.082492805
-30088.1278976968
-30087.9949166844
-30088.4334351217
-30087.7189182901
-30088.142745989
-30087.6549408219
-30088.1837348837
-30088.2182982215
-30088.8331359955
-30088.2832421015
-30087.8002853202
-30088.4606033616
-30087.7666437676
-30088.1948697762
-30088.0558902895
-30088.2970992195
-30087.7125413056
-30088.1114963157
-30088.3491310323
-30088.1385663226
-30088.2664388084
-30087.7568846819
-30088.216351248
-30088.3265484525
-30088.7230600177
-30088.5494842673
-30088.0302578593
-30088.4317919631
-30087.9228215204
-30087.8021086181
-30088.4271909286
-30088.1116228486
-30088.1359628748
-30088.3495171616
-30087.9244967884
-30087.6854381008
-30089.0417650244
-30087.4981380239
-30088.5028752723
-30088.1511276352
-30088.4471432574
-30088.4661800597
-30087.7596616022
-30088.0403072903
-30088.373632694
-30087.9779961104
-30088.1493255622
-30088.726598176
-30088.5045080906
-30088.7184856503
-30088.0734801272
-30088.6116836085
-30088.1283227384
-30088.2704066343
-30088.3631843443
-30088.5440950555
-30088.0874176548
-30088.1761811434
-30088.5002726409
-30088.2980389641
-30088.5393453109
-30088.4704785038
-30088.0291088592
-30087.6759352102
-30088.2708251452
-30088.4216576326
-30088.1883138769
-30088.3314086752
-30088.0288118471
-30088.4868494081
-30088.1902856128
-30088.3813241238
-30088.5018461383
-30088.4527502963
-30088.4746793951
-30088.513268519
-30087.7598734427
-30087.9585609337
-30088.1601975929
-30088.2961968905
-30087.8207854139
-30088.1208250536
-30088.4306542557
-30087.8995992013
-30087.8011226141
-30087.5713745689
-30088.1273145572
-30088.6139882755
-30088.040936009
-30088.0459629014
-30088.1239949061
-30088.1609725727
-30088.4635676321
-30088.1765562522
-30087.7796090329
-30088.8605196134
-30087.6819599435
-30088.35990483
-30088.8136927914
-30088.3071106906
-30088.3794936149
-30088.1873855611
-30088.2321143864
-30088.291897358
-30087.5738986955
-30088.2235389953
-30088.3024263894
-30088.0740980974
-30088.4600342358
-30088.3697367061
-30088.9490752072
-30088.143076335
-30087.6856151108
-30088.5741241628
-30088.1240706898
-30088.2414059808
-30088.6435195507
-30088.6227463909
-30088.2394515241
-30088.4419842538
-30087.7041555777
-30088.348409931
-30087.8702479292
-30088.5817738231
-30088.1165011669
-30087.6256122714
-30088.3620489499
-30088.2389155962
-30088.5943090127
-30088.1637455474
-30088.0592715743
-30088.2454162564
-30088.2041325266
-30088.0837159561
-30088.3515706677
-30088.1578024481
-30088.3651926795
-30088.2277427438
-30088.1320036204
-30088.2715105996
-30088.0944192763
-30088.1546013026
-30088.5362479767
-30088.4039509221
-30088.1273776875
-30087.9614540465
-30088.182907522
-30088.5225141262
-30088.2672478025
-30087.8700782663
-30088.6530408091
-30088.7822229781
-30088.1241951818
-30087.9933050911
-30088.1340159012
-30088.3227724667
-30088.1344495144
-30088.2035725166
-30088.478661779
-30088.2659085949
-30087.783584478
-30087.7883460596
-30088.4167001292
-30088.3158400981
-30088.2828207334
-30088.2630018764
-30087.7616351068
-30088.139507836
-30088.1473628061
-30088.7892016061
-30087.9033629419
-30088.1081328543
-30088.2809197471
-30087.6926389096
-30088.1771717734
-30087.9167600517
-30088.4799152708
-30088.1327338375
-30088.0644965655
-30088.4571060202
-30088.2883193349
-30088.2162621308
-30088.232862427
-30087.5215259243
-30087.6191955582
-30088.3451516416
-30087.8375214949
-30088.0155586854
-30088.738214982
-30088.4683139753
-30088.2777394182
-30088.2116065375
-30088.029730639
-30087.6597504316
-30088.3620039151
-30087.8109694565
-30088.2953566034
-30088.595482231
-30087.9801326111
-30088.1308838726
-30088.1504166021
-30087.7040403375
-30088.4380832318
-30087.9520945598
-30088.2036151024
-30088.5754591526
-30087.7947376022
-30088.5609319546
-30087.8392130897
-30088.0624942168
-30088.2766430721
-30088.1247995463
-30087.7428479688
-30088.2510929564
-30087.6950897016
-30088.5023505011
-30088.2512962253
-30087.8899813426
-30088.2708852823
-30087.8194989964
-30088.2338995883
-30087.9404079567
-30087.7770839539
-30088.3629198498
-30088.1729433986
-30088.4654676661
-30088.0886384929
-30087.7970622695
-30088.0330681135
-30088.1403625451
-30088.2391094772
-30087.8993035497
-30088.5614024392
-30088.1033108635
-30087.8620363541
-30087.418152515
-30088.0651639243
-30088.1262194356
-30088.3200430303
-30088.2000924545
-30088.2263485692
-30088.05487204
-30088.4952249317
-30088.1835350162
-30088.4252368801
-30088.1047703454
-30087.9894481515
-30087.8383145703
-30088.1583008244
-30088.407830311
-30088.6355675721
-30088.0943977793
-30087.7320449189
-30088.4083120883
-30087.8241320043
-30088.1781221305
-30088.0077207224
-30088.229196103
-30088.1246267541
-30088.4522368177
-30088.6453997203
-30087.7189075416
-30088.2513424846
-30088.0555853861
-30087.9717475635
-30088.7711634611
-30088.5072090912
-30088.0965606751
-30088.0143696846
-30088.0071748624
-30088.3978177514
-30088.514508133
-30088.3308572368
-30088.169304286
-30088.2729889933
-30088.1683882153
-30087.65254282
-30088.3209731149
-30088.3207306616
-30088.2652638215
-30088.1848851083
-30088.6126030807
-30087.9721517884
-30088.4007129051
-30087.739497841
-30088.1616680953
-30088.2725409581
-30088.3043223416
-30088.4599353224
-30088.3921122074
-30087.907553765
-30088.3273530927
-30088.5175389354
-30088.5421490344
-30088.3740256262
-30087.8102099871
-30088.2741551366
-30088.0561175044
-30087.7508864796
-30088.3005886695
-30087.635615171
-30087.8838047698
-30087.757265505
-30088.5995707393
-30088.1300512046
-30088.4883258971
-30088.139366745
-30088.4032155348
-30088.6074331925
-30088.3453094675
-30088.6733569539
-30088.6504116465
-30088.6287893559
-30087.6420494354
-30088.518823312
-30088.2621628138
-30088.1668628819
-30088.4310207929
-30088.2968056088
-30088.454683392
-30087.7922710276
-30088.1384630554
-30088.191963738
-30087.518840026
-30088.2713382156
-30088.1975756749
-30088.2044057287
-30087.7337448132
-30088.1876097827
-30088.3573642404
-30088.2012920677
-30088.4423207224
-30088.6240334887
-30088.3845530249
-30088.284114634
-30088.1361219252
-30088.1257927613
-30088.3694026865
-30088.2679818292
-30087.6113177306
-30088.7614304983
-30088.1104293579
-30088.178487307
-30088.4439324518
-30088.4538262338
-30087.8639901305
-30088.4109937688
-30087.6973898787
-30088.5708058723
-30088.2270344318
-30088.0810795825
-30088.2891937723
-30088.2326033747
-30088.795395322
-30088.3126858922
-30087.9844744573
-30088.4974408896
-30087.5268673801
-30088.2717067936
-30088.2782148009
-30088.5180714619
-30087.754501238
-30088.1856672991
-30088.1799501903
-30088.0160412791
-30088.2339789095
-30088.1108021537
-30088.9154781451
-30088.2255346772
-30088.2515956864
-30087.633576223
-30088.3859738666
-30088.1321407657
-30088.3503084683
-30088.3182386443
-30088.1689038707
-30087.9538303731
-30088.5858168884
-30088.3139429214
-30088.1037923687
-30087.7965278382
-30088.2273728052
-30087.4275110494
-30087.6766688287
-30088.1699125962
-30088.0771120287
-30088.255024319
-30088.2277461452
-30088.2116537492
-30088.0550819757
-30087.5332785149
-30088.1037591709
-30087.8973503176
-30088.1452969189
-30088.3196417986
-30088.0421943988
-30088.3605525967
-30088.2611346321
-30088.3242527652
-30088.1234248279
-30088.2335938686
-30088.2853434995
-30087.9916481907
-30088.2591873865