0.269561515165247 0.290198464020808 -0.288061878398311 -0.154065821094853 -0.101502215238864 0.0873079333542442 -0.0513240776627212 1.09883364436137 -1.63063186268232 -0.523221279719159 0.715787808089004 0.128667448756377 0.756746488715508 -0.379928118190732 0.448112710337988 0.673808657145329 0.0306953563330225 0.569853610758617 1.48995865392083 -2.09810239871439 1.60606138513379 -1.35418930768376 0.788097990236089 0.377260600039901 0.303652268577775 0.0566729979142766 0.68332610479731 0.940791357172953 0.312324337947354 -1.98255271150552 -0.625377069043749 0.429923964646977 -0.489663515716431 -0.159877539676191 -0.63495288070732 -0.875707513835242 0.748718223244694 -0.52486601356117 1.6412965359718 0.661341898581715 0.264498244327241 0.447975156389969 -0.89664990958846 0.678947518377199 0.716668153356324 -2.57139082397219 0.148656994170609 -0.295792153166782 0.501693701188949 -0.117172309575124 -0.246937875924002 -1.47449347640059 -0.0925015590551393 -0.453620524682769 0.529608925110894 0.107281023716751 -0.585954364651758 0.225775393853954 -1.40392547285496 0.786202316855262 0.372956832683105 -0.350871582165507 -1.03637900975719 0.266025735925707 -1.55177514105028 1.50660936649586 0.823185045608566 -0.186143144662643 -1.26488697063833 -0.476458850926997 0.893337301987948 -1.12083122030649 -1.10126924912695 1.05760165561011 1.05995087135413 0.824492450890203 0.568883534037355 0.211727150553399
-0.00123387176923739 0.131560195427702 0.381617589204622 0.0381482092138069 -0.020522791934215 -0.358807287970365 -0.148189310747345 0.594816695556914 0.639491132551207 -0.359020689422431 -0.345150623478843 -0.520740937781707 1.40974876139454 0.429403830746338 0.741174867579418 0.272864866799163 0.0782334865479378 0.22173516443495 -0.833503391481255 1.87630552783547 -2.04098897105627 -1.24392374896027 -2.38173966796979 0.510293522597045 -0.936307612687908 -0.365487524750595 -3.43203785171557 -1.15299081913291 -1.47011540420085 -0.896899306466176 0.431098443963892 -0.270068536446542 -0.589759595363304 0.119618198748025 0.22490276189213 1.63040689127201 0.37107170081979 -1.10929391505519 0.572992411875276 -0.299657547661201 0.0085771957119732 0.620580678575918 2.35830381765978 0.570867396211024 -0.180988599709597 1.64123354397691 0.254418753814756 -0.355696511863675 -0.345686183990475 0.202540346597029 -0.812439382611378 0.676568992072299 -0.0938195058542872 0.216727172286335 -0.655740496130245 -1.93543778465217 1.74912340460751 0.93927697819383 1.69637107987704 0.0907519242583773 -0.948264778868394 1.03677495943934 1.43984119434793 -0.425493184859674 1.03049710009584 0.822994269852623 -1.09217166240415 -0.697935876738001 0.603580039041533 0.162256323091274 0.00855019914273587 0.138929230388759 0.221153066980157 -0.426041343770283 0.0453184980032406 -0.199159861908149 0.971792674623998 -1.2371998034489
-0.160699778042105 -0.104738204004778 0.182065634267074 -0.380687621671942 -0.486011779784262 -0.122125537254715 0.583333897664455 -1.36798584011494 0.516567782397983 0.38539967999968 -0.336784001006921 -0.686621486015547 -0.541945071701436 0.120728657629321 0.449256079322734 -0.892543345742188 -0.557952494598071 0.263299082432737 -1.24226898782112 1.38559557367336 -1.65011232993379 -0.467514758983579 0.479906955594061 -0.163169578462046 -0.783125222182574 0.396414023138326 0.735355435692584 -0.40450630904476 0.417007777483107 0.847042813729232 0.865080635742697 -0.516884799253884 1.14016796296555 -1.67413850522446 0.44103575254506 2.78950767679879 -1.04795642419707 0.105824494528851 -1.91520964098792 1.10987678384054 0.164421190833925 -0.426357075075268 -0.945876996596899 0.618162043082437 0.357278510820982 1.64713962199549 -0.544652956151031 0.65773772803344 2.38730970297891 -0.0650139093678774 -1.10533493245409 0.927793923191188 -0.498375180054224 0.0419660383243312 0.477994055830959 1.67027748160316 -0.0392476123572241 -0.667388101650143 0.0190256393373679 -0.951438546969971 0.265506887575984 -0.760471501049892 -0.0265363420093751 -0.0591114308918652 0.370209096155112 -1.08235956648221 0.278587882367293 1.2024346500258 0.701877118736468 -0.415233460108757 -0.408668922910972 -0.360220108427118 0.266115210269465 -1.38379091729739 0.146477985367882 0.488857989512425 -0.35971205870509 -0.299866578240153
0.163325901453439 0.133383877957229 -0.037506205086325 -0.0975067229917394 -0.106603795494169 -0.074314613135411 0.315589637274154 1.19279147549423 -0.970758834577301 -0.461820539755969 0.593130824085588 -0.404013428823541 0.0862239568218198 0.0215391484884545 0.676515256044008 0.884097790444019 0.0617830628056276 0.680049749732632 1.61745599423341 -0.15008806945037 -1.29264304335687 -1.38457253225436 2.39783965053238 -0.42468380200292 -0.275488161998481 -0.583205085462665 2.08743284033143 0.652697597111923 0.0599547522928026 -0.815244454710228 -0.0299674774043476 -0.571405784934671 1.84349826845754 -0.435276998661464 0.379797763327843 1.76738311270909 -0.505135378101434 0.500847551575997 -1.80348601041544 0.499453757272801 0.0909221311996641 0.901531917747301 -1.11616518470155 0.561711959697005 0.527021882447408 -0.640430098940299 -0.231015042277644 0.364463454890859 2.86841967712022 -0.815514163292418 -0.445614884908077 -1.76106283018535 -0.265117879868783 -0.175938441490934 0.38140213087109 0.531496113855674 0.0576106787524531 -1.06601404369465 -2.68254701237032 -0.818244159217769 0.572840202646814 -0.322022276947951 -0.567411578238463 0.316399534351274 -0.492331290977445 0.225917832895453 0.679024908542346 -0.232439946913008 -0.491750479073568 -0.456126320528359 0.420495220008204 -1.41832878531853 -1.28962919778925 0.115214672640143 0.43474529480258 0.482264913084304 -0.608617855971401 0.173768688654803
-0.125209831012533 -0.0890562826000901 -0.357704028174199 -0.150499959963877 0.0666642996339193 0.341068227989793 -0.276267205853615 0.256247578547947 -0.557962264785033 -0.198148647557574 0.0347093605133381 0.0500089590755886 -0.0498096986835988 -0.214445576520506 -0.387925530439561 2.07601200599313 0.0378268214847912 -0.917605675071205 -0.428708861921114 1.98388994156841 -0.31344045325268 -1.01125188866201 -1.37861966018244 0.834376023443079 0.576653660884224 -1.77626112733542 -3.15898478026229 -1.65147629945574 -1.74199553899831 0.505393259615196 -0.29856585782328 0.653380481758536 0.137906446079939 -0.287500606868358 -0.0887670336439759 0.324489506266059 0.160275032019438 0.0428137305983832 1.42873840530626 -1.27160937348861 0.259962306475004 1.2930590476333 2.14488771031286 0.796789599979592 -0.973882209082967 1.85975663089299 -0.653675130028498 0.575926553286099 -0.458089870997554 -0.4709482083702 -0.766623119293438 0.328367242049272 -0.247567024542323 0.551286913098283 -0.176303537951096 -0.860748072045381 0.604745776612219 1.17198123437518 2.37285214026668 -0.431646859984685 -1.52522362954009 1.02715852436682 1.64981125390925 0.254248803983653 0.933955825842062 -0.429822663234791 0.0440044078568409 0.910656501039334 -0.0254425952899886 -0.366229544739347 -0.193580313822252 0.109649265614322 -0.279006714855746 -0.749012871514655 0.220686926217992 -0.0622857132138082 -0.912230272470778 -0.306106128166357
-0.13143601120921 -0.0875203063655778 0.342040104482337 -0.0563726932202843 -0.0532619171135947 -0.0161506332686843 0.417954457177696 -1.1827310111353 0.122007266570437 -0.469856261422096 -0.000663087162505362 0.760451703565785 0.435342818868366 -0.885766692643252 0.442884374762359 0.529051767343872 0.0906261973787864 -0.122803279697663 0.462936912171478 0.215528267502014 -0.114653915330556 0.550619455062663 -0.514361519915835 1.29585049289244 0.786503135769621 0.426992394337987 -2.81268744536632 -1.30641232210864 0.627653008385548 -1.64955980015007 0.168561693224381 0.784133608321134 -1.38643221020953 0.686690648654831 0.424928056676972 -1.89018536396602 0.172023167620972 -0.0579909447134246 0.882436344440099 -0.15528683735493 -0.530178681276893 0.846316991682023 1.05359202230291 0.0554326983904589 0.328018600640836 -0.84134602339979 -0.217540926016203 0.999839024739381 -2.13038181088618 0.521911046225508 -0.321614757307559 -0.113286603376231 0.498996872477232 0.429118181332789 -0.479323058367985 -1.44854771648206 -0.0911589296784029 -0.146023414563962 0.71442460989761 -0.363462524947612 0.760997034264379 0.127960138642359 -0.0462273825008973 -0.114271592488119 0.261963909251314 -0.453949882827464 0.135223501318116 -0.577702670431732 0.710545074343115 0.00852268835313212 0.164698098501245 0.763536768654153 -0.323448724244415 0.777554672953089 0.96333272115557 0.0994260505094217 -0.136538105684882 0.382509247320004
0.293278644015696 0.238097142274235 -0.0601416713959982 0.276048147977518 0.230360439751184 -0.213289866246965 -0.449050648286347 -0.439440898078592 0.345334714370023 -0.206423995914455 0.0205225348240318 -0.769987406040775 -0.470869275543954 -0.237303186028475 0.152333412680366 -1.65828097756464 0.460969247939352 0.442680743497255 1.70918005209451 -2.38490906519826 0.220089402152206 0.726152948015037 0.981815858006359 -1.59078004139455 -0.403741920470069 -0.66857235115402 1.49344069713208 -0.715795007174134 -0.270773532568911 1.14739533021566 0.380149490058478 -0.0951145698471292 0.46836476524928 0.617044899336378 -1.12013342326926 -1.23435667904293 -0.403048751416128 0.123870544068179 0.0273045872368144 0.612143093693429 0.0951027427787014 1.43213765903851 1.76667914502745 0.239987930561581 -0.608535580712773 0.16352284785378 -0.308761305028393 0.137275497690336 -1.36439478218601 0.0112256877092465 0.580665608183074 -0.443898160214766 0.0344144551331932 -1.05932532227837 0.264045730404786 1.30919399718081 -0.73267326226131 0.125790128696044 1.9728306041477 1.07252175954194 0.00845763947677933 -0.773542982764422 -1.44608408670651 -0.806673429642652 0.0957899982984287 -1.00082375674109 -0.0457249892028998 0.566085918133819 -0.245813533092813 0.251324175649609 0.213781718027451 -0.959141568059021 -0.65262689181154 1.22362798531783 0.389685963864018 0.426712401348468 -1.51912600443502 2.01172289023172
0.47480486111839 0.452010757825674 0.113587936510956 0.153359282311385 -0.0108677903342145 -0.269444015811519 -0.322966128430525 0.107722224791143 0.512967982722823 -0.549154184128534 -1.03807105187292 -0.554628831259681 1.29163002923501 -0.300869822175048 0.716257805503916 0.136807300046705 0.285761256478925 -0.0331795549232229 0.747998571841881 2.35121426146787 -0.231306348115224 1.3417660007411 -2.97962960154665 1.58596179656114 -0.537918983342509 0.297282106678499 1.31171701940868 -2.30223605711679 -1.2078303643307 -0.385888703568151 -1.13286243421975 -0.0184882790544535 -0.795617691764509 0.146376683955696 -0.0367335889857711 0.47072812205337 -0.538579242292999 -0.315387805780332 -0.652617121624578 0.337138555949571 0.519645648401221 1.62171168198594 2.28506135398836 0.0684504440766974 -0.685379129610263 2.68931775193504 0.83493549520175 -0.287873416634017 -0.77307941310409 -0.558618409972591 -0.822719676176952 0.484838586018262 -0.147435206579982 0.921453328962982 -1.28556480001302 -1.43269558813608 0.671811939462499 0.673453073761946 2.0457578507345 -0.0362828748345993 -0.0239264165395838 -0.481853279680981 -0.238859988187827 -0.117081035460083 1.00062423923891 -0.955436353208744 -1.77993394630261 -0.813911081300087 -0.0395201491514295 0.235853084595156 0.485273102227892 -0.0998299706072487 0.0279694741706023 -0.55086730927928 -0.462098218753839 -1.66307119738808 1.44458153479582 -1.37551556894051
0.0500292707800624 -0.0175801658873465 -0.0727341568392029 -0.200302202452163 -0.117384682586457 0.0012014758861526 0.577300550105187 -0.424068023114126 0.868388101139545 -0.99002872858872 -0.372105540866488 -1.13597295321625 -0.66831061298751 0.292588817394136 0.490855735635988 0.739136240936725 -0.127226089069287 -0.465592346143698 1.05743067733828 0.243210806708151 -1.78269042457683 -0.084273776082152 0.255009335905595 -1.04276279849618 1.715069160841 0.311645052843306 2.67600484375848 -1.52492512461738 0.315191630710541 0.532377487563727 1.06935441919495 0.0944121448265923 -0.405841225116 0.584270292951715 -0.134145181209722 -0.490138655335008 -0.21043157234019 -0.231930611640064 0.167675434422847 -1.02686130499503 -0.493268714705438 1.93490762345439 1.56003352013507 0.411027651731765 0.335646802666571 -0.579089008539614 0.35150484454676 0.16317472066571 -0.753418454504004 0.280674331504063 0.0290647635510881 0.192458027872529 -0.376728381960651 -1.19942646088221 -0.816930583291736 -1.90083049688157 1.33105401917792 0.333035077425497 1.52915381580068 0.00425414509143611 0.60030574085832 -2.439455247677 -1.37540218334971 -0.363338597839304 2.40129392584385 -0.964687948931284 0.646290411346264 2.0558386267979 -1.29067717889602 0.218432584131584 -2.33442342384299 -0.859895237567665 -1.85153887521714 1.48801490093574 1.51596560606297 -0.273696875352039 -1.06041958321812 1.03525081027326
-0.0717612519059264 -0.309376312586638 0.178904978784841 -0.275031534313096 -0.340635768661629 -0.0870824477235667 -1.72261200228591 -0.0930003528105717 -0.223246458091874 0.0861864187350707 -0.0314564024753319 -0.646688675020061 0.571891723180943 -0.152914224584244 0.0859205668056289 -0.48889038539551 0.0955130906311087 -0.636951398161432 2.43959177318428 -0.493412182187671 -2.35864628842382 -1.14240893532243 0.929051963317648 -0.953936629510065 1.14746912083824 2.170778191542 -1.03738585323465 1.50336052222079 0.792125878366298 1.04555167265349 0.633662958918143 -0.431116441676717 0.77682165182075 -0.225838128738657 0.586980491392959 -0.226834173588423 0.657563664439405 0.221085961222338 1.27896349605904 -0.172158664687525 -0.00997047579480242 1.29297214439138 1.35022158333642 -0.367382426800872 0.720394965461991 -0.883466070723866 0.528899815225593 -1.08769151746167 0.567199719447496 0.475204153232919 -0.0823009696463615 -1.0331687320096 0.711042582547631 -0.360778037524689 -1.39562004260664 -1.67340471276157 1.05351000415447 0.214276398019952 0.893321361156589 0.426163728217492 0.93939781997994 -0.653649933230543 -0.577503924260108 -1.25430714370931 1.2238781535261 -1.21626537811136 -1.44230148169109 -2.39726012417942 1.63477467906443 -0.127346159524847 -1.41777651264499 -0.676025718255171 0.308181264455066 1.2401984795157 0.980428491457744 -0.184092176731156 -1.49672502261244 0.696931090142006
-0.143671884828299 -0.103488905624548 -0.364914940372581 -0.131598504845001 0.0721885690304257 0.359688661678418 -0.146111346246621 0.425276440975226 -0.654580672093772 -0.167184353972911 -0.0953976481588463 0.0622952262905871 -0.187148702589188 -0.120990395795831 -0.297310388798653 1.85603830342336 -0.069827269107801 -0.820884166578997 -0.992024932051183 3.09707059126323 0.262527237662733 -0.248473595048331 -3.45218886232486 2.13748602235853 1.22462788682035 -0.568269040699477 -2.9152201582195 -1.3217438023336 -0.958296703996984 1.09010603919222 -0.163743448390976 0.694311651595436 0.460345241524695 -0.782112979391265 -0.133518089472866 0.768583841550617 -0.0258223470305936 -0.0244550350762689 1.07757063220969 -0.902310190271886 0.343451639388174 0.345850991617914 1.20533485289244 0.638542653085335 -0.903997347294127 1.5794042013383 -0.52035141585414 0.354157193196781 1.30778451915644 -0.649363649366205 -0.758212273870003 0.913882976728469 -0.338238473313355 0.420734589588775 -0.446851070668963 -1.36481104357264 0.784290445532893 1.08810983572976 2.2811476227795 -0.241116644265884 -1.39437280110787 0.871659314000559 1.51350326183834 0.548690614468202 0.338675303514633 -0.062517626599066 -0.545186202671014 -0.289929526769168 0.287630447510881 -0.379062428203855 -0.00921071520340911 -0.211350227024809 0.00164627650311044 -1.40291940070804 -0.595249926215627 -1.74810087740887 1.3389326465221 -2.09941546042005
0.0714635183137661 0.159707332734904 0.349452591064356 0.0674687973971916 0.0133571311280791 -0.383155365210417 0.147439063232731 0.491758963709614 0.775614519510566 -0.323939804694351 -0.317432603067422 -0.819147130181212 0.817719911554199 0.275290187157407 0.843699095796552 -0.315857803195245 0.137842425644319 0.180807337030432 -1.46161199911146 2.66179899191561 -1.34616721285734 -0.786289734317555 -2.36565279802655 1.10642739362256 0.691517892344648 -0.670493478442985 -3.51911232902346 -0.618697089373702 -0.697260191176519 -0.168549866155953 0.634424262170635 -0.195519695934225 -0.62951474322219 -0.336057921849528 -0.0161812293804866 2.87666468647549 0.134993901924507 -0.986047634511856 0.978235855815307 0.0655247873019209 0.196049085801459 0.00052579032466982 0.651786912842984 0.610665738580689 -0.269636848448928 0.809316779436261 0.106044066625315 -0.588141343870164 1.26731254810676 0.0140245891636991 -0.929774700042658 0.9930906537606 -0.0665506569329393 0.0251595169782715 -0.648064728720615 -1.64283096954521 1.84941257400198 0.494900850148472 0.877903749020244 -0.211467469268354 -1.36888572575619 1.19970439699027 1.33521457616266 0.241565558645774 0.191052149390722 1.00555047034927 -1.21858219797229 -0.625476056464286 0.63373957775274 0.246741186633844 0.134664543779811 -0.285235466154255 0.821064657927612 -1.44902054210898 -0.506167161266666 -1.07834453386116 1.96260250394932 -2.30443409207307
0.0245133990878582 -0.270949653044412 0.0666509299043922 -0.217530641608874 -0.196440407500309 -0.107907087012873 -0.73403543201197 0.556945908230793 -0.0735839059947207 -0.361665581877139 -0.452305148985453 -0.0502521853089077 0.133783684292125 0.0424067251783577 0.0595845136289764 0.100105335613469 0.083080270611679 -1.16177575987292 -2.0149779051512 3.21526799913882 0.428463064585963 1.26024844582299 -2.63898534824897 -0.177855969237334 0.423157853065554 -0.239296818389105 2.26182245007869 -3.17166056940486 -2.62925449914492 -0.487885598799515 0.235094095334312 -1.62397322315748 -0.864681600738351 -0.459323228546425 0.327700041123835 -1.01513810908127 -0.358289210951191 -0.495372647334667 -1.92606971801664 0.635324662032246 0.0551609329268032 -0.373112898564315 0.00384276879829591 0.268754703410326 0.219992985833502 0.498284677269733 0.146156597638866 -0.895168697822972 -0.649251035105958 0.823974888091396 0.461850107427038 0.927466621927958 0.106493752335754 1.41609218383476 0.177044272388932 -0.584354882201992 -0.312098852316677 0.513515113192699 0.561145288853205 1.38026927911793 -0.459840534235048 -0.51262036975512 0.136284337934051 0.531961740397473 -0.620785338281755 -0.00970282409407808 0.527237597891124 1.314475040344 0.437599732056607 2.2853686006573 2.89436800814059 1.38243131864856 1.18689053967931 -1.86229327996056 -0.26433009426742 -1.03726603988928 1.73070145998032 -0.5314773448123
0.0697395945353255 0.0573391703989805 0.10329298766494 0.0193822511614838 -0.0610731815897775 -0.175815285713175 0.430333284058651 1.3333669823861 -0.469454912426101 -0.663193349011029 0.31569890910202 -0.652496022728284 0.0517765915851754 0.184038183592682 0.82966062268296 0.977479437656295 0.0973946229518587 0.483894991645872 -0.180946176529366 1.69441215739114 -2.14821548741418 0.299266225962351 0.740990519578055 -0.521788147557932 -1.35733170834298 -0.762249932187174 1.21261029974681 -0.445728527609057 -0.0615712040146604 0.864934597158633 0.0424733167158097 -0.878931418422545 2.42391885063601 -0.33753064897897 0.775148121638219 2.39864491962621 -1.02352684302894 0.847811573177038 -2.85263336898115 0.365166651241946 -0.201703710060855 0.589749825176342 -0.0957162076758467 0.0664570688262499 0.404149183000278 1.59200414297682 -0.551526025568671 0.718952834444351 0.802126693162719 -0.123416487484625 -0.458739074210166 0.0816941896139797 -0.820488474007032 -0.0267782826917782 0.0765375877794673 0.371859743531337 0.590353519886526 -0.475725058464108 -1.61155017332501 -1.19809180192116 0.454331948559718 0.096527904524249 0.214592643545304 0.251715754458642 0.731577715770641 -1.01300640855225 0.331830259106963 -0.436505471116854 0.192348241824297 -0.338714898482848 -0.0693022501136808 -1.26619617569125 -1.04614688272762 -0.804523217180444 -0.319813186253788 0.118702115165239 -0.929780870687055 0.0759246371026884
-0.0280219246479777 0.0969338815035417 0.263833871613819 -0.114480365956887 -0.219078959132181 -0.21576403754002 -0.29642181600547 0.0901209758687735 0.0242269783437593 -0.457343223025504 0.350746626616466 0.750669175314911 1.02268352162801 0.78521938462484 0.172433001253013 1.2074138458339 0.0291745495993199 -0.0421897241837262 0.499453243052435 -3.09214153194086 0.435541822150173 -0.775510646996548 0.338652163598144 -0.617969724665394 -1.79424187088821 0.352888097332444 2.71044449568962 -0.154466141650115 0.118868208343594 -0.882894000566218 -0.0827737952732896 -0.278165707446457 -0.191561741773849 0.934811488531794 0.698490720513374 -1.84301824374548 0.379800848650042 -0.751649536443501 -2.76512617523492 -0.764018336027311 -0.654468314943708 -0.149281514805632 1.48985375296608 0.111251576276103 0.392531916481998 -1.02585806106013 0.493056341694104 -1.01243382417423 -1.96558446785422 0.378516069064529 0.124739833597621 -1.47888337566876 -0.337525249665123 0.144985717864516 1.17594484495959 1.39546629071708 -0.904157269828085 0.360277186887791 0.315244852518466 0.365539203897421 1.309261617159 -0.937999140583264 0.407847455875608 -0.424754764413487 0.845994318402091 0.991394497881946 0.541657879626787 0.489733963906631 -0.502069853386989 -0.123340382870394 -0.792672237505625 0.897845471940398 -0.786432430469237 1.22192154503185 0.00374583825922475 1.35097363062231 -1.04857863084045 1.44068605840996
-0.217573321899288 -0.684387969853979 -0.0571057143526235 -0.104978344915898 -0.14184640252749 0.0217342951175129 0.542940859441018 -0.17167324066162 -0.169884268006826 0.0622445755844942 0.00688618203698376 -0.386780104573349 -0.700316974144733 0.211599623902525 -0.922274024667796 -0.529248713744213 -0.0211329143989786 0.688152834266761 -0.70428624115317 -1.64707611578023 -0.904057768187182 -0.878840658527871 2.67607092107556 2.07794598879125 2.02689521925328 -0.909180945697877 -0.436335264175567 2.21256990916211 0.90094519230921 0.134894400283603 1.21205776996308 0.720701697910563 0.196108992474148 -0.499020526614088 -0.385825711573263 0.191922981581263 0.270219717234271 1.21209633649056 1.49658258357094 0.983225078920548 0.19673582710082 -1.82440346648088 -3.38157972114991 0.23482027298919 1.05850874033649 -1.67772056429698 -0.516032736106718 0.0552936017813409 -0.0990905217203292 -0.205231261774532 -0.175961581407423 -0.278903870782461 0.390185786060183 -0.141274075259658 0.264662794844497 1.3287461981734 0.767196217891819 -0.431250138971988 -2.01505246710433 -1.20236985825963 -0.619651996594154 -0.108832683672439 -0.515107910777702 0.712917172893435 -1.23721085918677 0.574301102707828 0.891736276877083 1.18829847504259 0.128863366715985 -0.634788587300248 -0.267579452762861 -0.31770693963291 0.497238238824058 -0.44225059816074 0.796944894530252 1.08054179748689 -0.31377341093994 -1.135189538488
0.145306591373165 0.187915405155528 0.309188879263076 0.0847013503168346 0.0338714384262481 -0.389699590703728 0.247365964379051 0.285156019107642 0.850374704593485 -0.290562532040237 -0.175077122377172 -0.994623801783096 0.39025674847075 0.157280726825744 0.833867973721051 -0.765947176621772 0.16678891851113 0.126384310329449 -1.47896565092739 2.59723579669891 -0.827092606173032 -0.419492747403858 -1.20125554272559 1.56402335595816 1.40212852978448 -0.495317368645276 -2.62750923522128 0.229092629437763 0.0165008173382199 0.38021685292648 0.777093417284405 -0.0908138878125316 -0.598739682732372 -0.483846140711062 -0.247279318247308 2.98856212353182 -0.0405285352899894 -0.833299760216151 0.981543321212154 0.318626622758262 0.304188343309774 -0.537921554444341 -1.04002328949405 0.537746719519757 -0.191419559842533 0.0111094739064344 -0.0432158509249278 -0.743395528231826 1.92114811488958 -0.106600453061787 -0.882039366317219 0.972987722755571 -0.0432104516110803 -0.18470795561995 -0.554558897289847 -1.16021972904412 1.74200196675289 0.0059279323841503 -0.0834638790050322 -0.480846950423886 -1.19140873692891 0.595637905482095 0.808848324682447 0.77921303363481 -0.448122994745316 1.13555180673615 -1.12529799551945 -0.254549365787828 0.508418675141059 0.316887272368829 0.216686548877387 -0.586295806975064 1.01954986271501 -1.84073536242873 -0.760524208637451 -1.23076356423253 1.92415167604987 -2.42416644774244
-0.0314355765504917 0.100152900997364 0.277963361732269 -0.101948558516921 -0.199370692258383 -0.225047772035462 -0.363790083321025 0.136419320780238 0.0788011858324713 -0.471368583519753 0.289165652414843 0.674174782046223 1.19871169457288 0.766164434726586 0.190101870153568 1.19433516503424 0.0166147171493831 -0.00319793645879864 0.648039017702294 -2.61764494593214 0.0535686495621674 -0.963700902937931 0.0508247696869222 -0.610981212775491 -1.96411714003862 0.384656888680379 2.38821987302748 -0.402559727847657 -0.166295266959361 -1.00802104209976 -0.0520609554478085 -0.27069022886955 -0.260222501980415 0.975860671942789 0.681794499435913 -1.80346081361748 0.403373995797892 -0.796455613851599 -2.64573551899904 -0.800519754517641 -0.617739353941235 0.0795789441366895 1.98837934247748 0.156317592079429 0.334023151859584 -0.74658909381751 0.470324201955543 -0.939459526423911 -2.1781389989772 0.397699316944206 0.0499961035664279 -1.40320556434196 -0.314438812094095 0.149230864099539 0.91070818018616 0.875818328324206 -0.583166004714817 0.549030771240592 0.683292166253126 0.438942618543526 1.24194554321063 -0.901269665360424 0.47442716625925 -0.542061028394064 1.02610874348877 0.942914830176106 0.429153919648255 0.447307955464532 -0.413005086150853 -0.117834111186713 -0.767896071810523 0.875556590157696 -0.795889200117981 1.24918628019027 0.0963013904528387 1.39568072060988 -1.08004737460458 1.38849629076037
-0.0797679201213507 -0.142941691907975 -0.0422881973838966 0.164915356606059 0.0237510673946327 0.101037360027615 0.229504777061453 0.337383581954173 0.0815306675374565 0.355228828440411 -0.201703195840488 0.15749412827781 -0.0919708836369884 -0.484818017203605 0.148870909843042 -0.166570117745216 0.543307755672462 -0.619238820529731 -2.06019947261537 0.0553257405542425 0.947397546220418 0.778014643070856 -1.03005872723346 -0.354552114438196 0.14064672641262 0.974892137882627 -2.02658900102508 1.23002720066781 1.36876951195338 1.73436810830312 0.251735294832566 -0.310958054433762 -1.48688155924814 -0.80656930001845 0.0414507895171731 -0.119411225050539 -0.138050427782538 0.533113336908082 0.0446520684083535 0.180106197560811 -0.35123436463402 -0.429426970662827 -0.564357880592447 0.0158253888869203 -0.647865468328625 1.158588879152 0.334678525716593 -0.0413109215775054 0.580714973338251 0.313765440524261 0.735786609469831 0.737607463787343 0.387078866606242 1.46976187769893 0.231331030692812 -0.218462923133203 -0.288158294717016 -0.203469799909342 0.320138430635552 0.307827737953148 -0.022139500766256 0.787914413565275 0.0301705944490856 -0.237456680807853 -0.555731833945663 0.0640173502977453 -1.31130230068316 -2.51162659032515 1.46285229863527 -0.626144028720273 -0.426695946296742 -1.09240614689124 0.772043259065743 -0.171977659118544 -0.0393129183437601 -0.50246606017932 0.36881324497045 -0.0983256189252717
-0.199003796026939 -0.0347191307003001 -0.421643216976248 0.0513798705724783 0.04541208610993 0.251021814074151 0.787305062431061 0.551200009856357 0.00592099040920356 0.689101570842816 0.0731571030905877 -0.301632410978457 -1.5694139280594 -0.456504529607865 -0.710204917570725 0.316849734282079 0.119087266219691 0.528390737062832 -0.71257830167196 -0.0905812030967241 -0.40252476086274 -0.467067387264789 0.315502476922045 0.856808629818197 0.340217707503725 1.10850330124182 1.92900514497838 2.43837718467879 1.42219520825368 -1.14305608165358 -0.72094235304205 -0.269836108840918 -0.17836221918808 0.666129033082951 0.267696695006406 0.329342975194564 0.141007966220033 0.376642250049275 -1.51395963241355 0.504093567639056 -0.133463582114025 -1.93163846747484 -3.2449148601447 -0.251394623839809 0.952063067604994 -1.64710362656984 -0.739979048117296 0.957636702156678 0.957194472641552 0.657480874960411 -0.00997638932901631 -0.41561064074753 0.404252027073563 0.58311586822909 0.14136946313763 -0.207153160394046 -0.673063551834378 -1.06930582537032 -2.76145875558157 -0.838549950157353 1.00733635768186 -0.605958565346433 -0.683532050054064 0.300117003558602 -0.568658819737227 0.34858690107748 0.756678097406773 -0.49176024926053 0.146778804282241 0.231930097419697 -0.416133602860185 1.18616831717467 0.735041504158881 0.356261640046376 0.667596103788362 -0.0181887456910108 1.33020966933625 0.0657075926421851
-0.39600778904885 0.162268664380068 -0.0232191064255658 0.344760844441093 -0.079898789204606 0.369080125340625 -0.514634570930407 1.39665362554315 0.0998862777373723 -0.127258227842188 0.12558726876149 0.958839463593746 0.00384302590847912 0.363983944399168 -0.629194126823724 -1.45664977257545 -0.0140888667095023 0.606104861040681 0.376441961216552 2.38957252970137 -0.288763532088299 1.91953680537139 -1.16566378006346 1.23762634924285 -0.815302561611634 0.666579233013756 2.84089037558328 0.0160997254524082 1.75004848704671 1.98040892679789 0.553848501853631 -0.967726991296857 -1.48801798625794 -1.31994685926313 0.239785841957576 -1.03611058672592 -0.62411825758674 0.219948505771806 -3.4474940303794 0.316458669693413 0.161553898070737 0.0318765205147014 1.50691712738517 0.0233144943035377 -0.620188842656702 1.44447586251052 -0.836238015389905 -0.537744148417925 -0.618900463528623 0.547001400564495 -0.459601164654478 1.45457952138022 -0.849040302742611 0.279042710281396 0.310476744170788 -1.15498213750189 1.61109148875816 -0.773383317340647 0.11884224021509 -0.112295186509763 -0.48923774125303 0.840987868914575 0.0795599179831317 0.24224715774147 -0.114149979371459 -0.293048273291537 -0.266257392200781 -1.12212936962154 0.37036181960394 -0.523357805226445 -2.39213643244836 -0.953844069844108 -0.140115022553736 0.573074687133904 -0.169232236582199 -0.424516423273649 -0.883148282537415 -0.406015545820218