-3.02901935429365 3.35518030859535 -3.75352442491464 3.35518030859535 -0.777974079522906 -5.02341338633519 -3.75352442491464 -5.02341338633519 -14.5034686646452
-3.18903323295828 -3.19977795409359 0.376065239735647 -3.19977795409359 -3.53716219774214 0.943386515679708 0.376065239735647 0.943386515679708 -10.525528824144
2.60787203779924 -0.902126708900732 -0.028515499419276 -0.902126708900732 -0.829541801288029 1.45169815225405 -0.028515499419276 1.45169815225405 8.06210938126804
1.38385339095319 2.92768983288362 0.215977118819284 2.92768983288362 -0.501280226395374 -4.01824096371186 0.215977118819284 -4.01824096371186 -4.04757118972435
-1.75291436058883 -6.67506291426219 -1.37260625741868 -6.67506291426219 -4.31452986010267 0.620732766093799 -1.37260625741868 0.620732766093799 2.63811425589865
-10.8772949389925 0.246140039543885 -1.06049697888589 0.246140039543885 -7.29255329925234 -0.70176096380597 -1.06049697888589 -0.70176096380597 -7.69842251339385
-1.59175986023725 -1.55309362881448 2.88493048893202 -1.55309362881448 -3.91173374560329 -2.2834557779112 2.88493048893202 -2.2834557779112 -11.8683849228216
-2.70294660412511 -4.42076460538002 0.576710702930262 -4.42076460538002 -3.08468393773731 -2.44024564335972 0.576710702930262 -2.44024564335972 -6.51416288647919
-7.2524922359671 -0.0905789549765973 4.26132810912628 -0.0905789549765973 -14.5193947602259 0.835796720920421 4.26132810912628 0.835796720920421 -8.8623272994148
3.27160519062044 0.715599375446835 -0.908893459619256 0.715599375446835 -11.9821768986457 -0.791683217089171 -0.908893459619256 -0.791683217089171 -14.260579507827
-0.95139258294687 -8.20576102791675 -1.86754840356237 -8.20576102791675 -1.60767728136855 -1.46232563675167 -1.86754840356237 -1.46232563675167 4.90451685699694
-0.624377554267705 -5.41270748768624 -0.331566011576643 -5.41270748768624 0.648060840808894 0.389697714905016 -0.331566011576643 0.389697714905016 -8.74989786394467
-0.424172491457691 -1.84212053433054 -0.832186030859851 -1.84212053433054 0.698874676401719 1.06043122864423 -0.832186030859851 1.06043122864423 -4.76285111836779
-2.45555733327051 3.33881305878059 0.369796824837054 3.33881305878059 -1.95007965903281 -1.65477428092552 0.369796824837054 -1.65477428092552 1.3275439970769
-5.97574480447693 6.3901984427209 -1.30256857733821 6.3901984427209 -5.41750112847484 1.65781455297591 -1.30256857733821 1.65781455297591 -5.23776358127719
5.68229257561764 4.30872550927189 2.77880138494154 4.30872550927189 3.78027823734925 -1.3201285781738 2.77880138494154 -1.3201285781738 8.36411300054342
1.02576938838328 -5.49519315205326 -0.459010251524449 -5.49519315205326 2.26272659202193 -0.0495644872538138 -0.459010251524449 -0.0495644872538138 -8.10487115485189
-6.55215993849559 5.72175363526563 -0.809222468963891 5.72175363526563 -6.5860540733213 1.65657583960671 -0.809222468963891 1.65657583960671 -6.21321859023846
-6.75078964271702 1.70619957488522 -4.02647097801166 1.70619957488522 -3.12836592628427 -1.72420168059913 -4.02647097801166 -1.72420168059913 -3.85845132468182
7.53326039726718 -2.2263607067983 3.42728462081676 -2.2263607067983 8.26058051420794 -0.374231571798005 3.42728462081676 -0.374231571798005 14.1108559897169
-10.9020370199126 0.374225389895291 -1.36027959184161 0.374225389895291 -3.7877945548661 0.229683308083882 -1.36027959184161 0.229683308083882 3.52841081901275
-7.29257691656113 0.210899587606815 4.31517097387669 0.210899587606815 -14.7030094850202 1.25505931056212 4.31517097387669 1.25505931056212 -9.68690752880321
4.12140960495533 5.75219805947377 -6.35366756551289 5.75219805947377 6.17177987983783 4.53065689772422 -6.35366756551289 4.53065689772422 1.68659490353237
-7.2379230412248 -4.71677700834667 -2.68709488567517 -4.71677700834667 -2.90623247334305 -2.04244741904051 -2.68709488567517 -2.04244741904051 -11.7972613943538
5.2191379074204 -2.80271815185883 -0.244518665741349 -2.80271815185883 -5.64653187779184 -2.14929852407943 -0.244518665741349 -2.14929852407943 -9.7622536213206
1.01567291981047 4.81690424345755 -0.185033482420916 4.81690424345755 -6.34745294043926 -2.74332250024054 -0.185033482420916 -2.74332250024054 0.995560584764713
-4.74509493554083 -2.67393124352349 -2.52437237736031 -2.67393124352349 -4.26469372907729 -1.43667153253719 -2.52437237736031 -1.43667153253719 -2.97984710612999
8.95406038807179 -1.85745842647113 0.417568173392735 -1.85745842647113 -1.13751329993193 -0.460764880985087 0.417568173392735 -0.460764880985087 -7.38252302614052
0.189140719921807 3.08752245618837 0.610045420592871 3.08752245618837 -1.03095012126393 -3.18076083924842 0.610045420592871 -3.18076083924842 -1.26804200961662
2.97865162956696 -5.25699331487836 0.919740393455628 -5.25699331487836 8.54611568639861 -1.43330101924303 0.919740393455628 -1.43330101924303 5.47642376407843
1.51153737119867 3.18157354602687 0.164297540347682 3.18157354602687 -5.08742501405997 2.12040472660478 0.164297540347682 2.12040472660478 7.30834117711275
-5.77944158027749 -0.453690251351345 3.92993852859746 -0.453690251351345 -11.914478222425 0.165535632249815 3.92993852859746 0.165535632249815 -6.63573083845863
-0.449833083346413 -3.90471548603439 6.11690832057359 -3.90471548603439 10.4447544694818 1.58571296960471 6.11690832057359 1.58571296960471 -2.10949121733683
4.78481748608474 0.118729962433865 5.59020239792779 0.118729962433865 5.33691181140221 0.455131522663147 5.59020239792779 0.455131522663147 6.64887789629641
-10.8029205862196 -4.23324695164594 4.76850846524348 -4.23324695164594 1.89071462407648 -0.897529762344164 4.76850846524348 -0.897529762344164 -2.71497665071908
-11.0334423968646 1.72422540719675 -3.58046807294918 1.72422540719675 -8.9971761967181 -1.25416395627885 -3.58046807294918 -1.25416395627885 -6.13280173835876
-2.16673087344554 -5.5485731311952 -0.757811400963866 -5.5485731311952 -5.27419314119104 1.05178996168261 -0.757811400963866 1.05178996168261 1.77258184018559
-2.47156155856447 -3.84491038686114 -3.97082012663707 -3.84491038686114 -0.282131083571982 0.743800129417043 -3.97082012663707 0.743800129417043 -5.21359589146241
-1.89095069461645 -4.5348396635398 -0.0215125221230541 -4.5348396635398 -1.25633129198636 0.669039438026981 -0.0215125221230541 0.669039438026981 -9.60964363236825
-1.00975542084255 0.568242929138116 -0.799219371557566 0.568242929138116 -8.32946020229432 0 -0.799219371557566 0 -12.7098364510101
2.83923592851368 -0.196881323510073 1.53878297585504 -0.196881323510073 6.64733521219535 3.61380850390199 1.53878297585504 3.61380850390199 8.27160613115345
1.17603061706092 2.41137408263447 -5.36883542571289 2.41137408263447 4.76139004611794 3.83692771757614 -5.36883542571289 3.83692771757614 1.52168135494491
-12.3617929683124 1.71768882673238 0.373756365076027 1.71768882673238 -9.42144369199623 0.493040311376887 0.373756365076027 0.493040311376887 -0.636181046937918
4.60688795890336 1.11499281465486 4.04283277031326 1.11499281465486 2.52906605488772 -0.710971888874039 4.04283277031326 -0.710971888874039 6.29905352467368
0.0658438431384206 7.59598517660507 1.61616705885214 7.59598517660507 -3.25627733339098 -2.36838308500925 1.61616705885214 -2.36838308500925 4.59909267981998
0.481196206455093 -0.323303701212016 -1.48368830323654 -0.323303701212016 -12.1401792920233 -0.170423656452845 -1.48368830323654 -0.170423656452845 5.726736102864
-3.01008056140024 -4.25230343974072 0.657043505899097 -4.25230343974072 -3.47822405935334 -2.53372401962339 0.657043505899097 -2.53372401962339 -6.40822744347213
-10.3429454810829 0.752214216806028 -1.59944496626124 0.752214216806028 -5.3921882278411 -0.0870984882617506 -1.59944496626124 -0.0870984882617506 3.8145178836453
-3.97917244655378 -0.243462524690461 0.0733005450680959 -0.243462524690461 -11.3013733235346 -2.98699721152491 0.0733005450680959 -2.98699721152491 -4.9242259026103
-1.27583684892327 -3.33770115321608 -3.86949420907441 -3.33770115321608 -1.30149353144275 0.471149988085009 -3.86949420907441 0.471149988085009 -2.08052370976153
-9.63629692230246 0.213375146136697 -2.24846928187057 0.213375146136697 -3.68244203816558 0.917742564028806 -2.24846928187057 0.917742564028806 -11.6094434349644
9.33222347860389 -1.66403076907262 1.48750699583295 -1.66403076907262 -0.887326166818075 -1.25684926546645 1.48750699583295 -1.25684926546645 11.2692776836205
-5.59741324462847 -0.0407006703589517 0.948968261527138 -0.0407006703589517 -7.68171599511584 1.44166058692497 0.948968261527138 1.44166058692497 -11.3512027490571
-9.28183309189379 -0.436682838157165 -4.47599909111094 -0.436682838157165 -0.806005025747533 1.09635265750097 -4.47599909111094 1.09635265750097 -14.9052860236943
4.36583633763632 -2.91534465967162 -0.129251733680023 -2.91534465967162 -3.34208054229772 -1.67822092301997 -0.129251733680023 -1.67822092301997 -8.72551783081168
4.63802616461198 -1.05397914516866 3.36910778345069 -1.05397914516866 0.258962934930875 -2.72687970482212 3.36910778345069 -2.72687970482212 -3.42607962913548
-0.675491220786637 -2.33955848215308 2.80060804554713 -2.33955848215308 -3.23378019348015 -1.62546776303578 2.80060804554713 -1.62546776303578 -10.7799821171252
-1.9717815462958 -0.492945386573949 2.68859732677233 -0.492945386573949 -3.661572500272 -2.99211391850563 2.68859732677233 -2.99211391850563 -12.0093550729086
0.997677033635567 -2.53748022397806 3.20946930035243 -2.53748022397806 -6.01492062840616 -2.30249017886555 3.20946930035243 -2.30249017886555 -10.1849632710606
4.03890877996264 4.075342235452 1.1138227821031 4.075342235452 0.528285104595629 0.804138410443593 1.1138227821031 0.804138410443593 -0.931655504656332
-3.27677002456732 1.25752797160027 -3.46469948296227 1.25752797160027 1.35149270079775 -1.5394221591927 -3.46469948296227 -1.5394221591927 -1.33150020522382
7.42601811531814 -2.19631701855876 -0.506438691256679 -2.19631701855876 -1.30152119618297 -1.73711095135711 -0.506438691256679 -1.73711095135711 4.92531307507143
-5.95915362991171 -3.55157236407478 -3.47617295078183 -3.55157236407478 -3.14337554038537 -0.493996156057254 -3.47617295078183 -0.493996156057254 2.55838009242283
-2.80653345556545 -4.51701094251793 -2.68725015713324 -4.51701094251793 -3.1328745550498 -2.88305481682385 -2.68725015713324 -2.88305481682385 1.07805094243452
-5.35560447244294 1.0972949013088 -3.52543738016827 1.0972949013088 -7.08912907799684 1.7838592340543 -3.52543738016827 1.7838592340543 -2.41807555315939
-9.8053766184378 0.251487083988787 -0.487256225228274 0.251487083988787 -8.89373593897845 -1.65038398867641 -0.487256225228274 -1.65038398867641 -8.14189434413697
-10.9684593028359 0.823326318568635 -2.85281416265939 0.823326318568635 -2.69599010197965 1.24767377687852 -2.85281416265939 1.24767377687852 -14.6146187136399
-1.19318433135384 -0.776580988542159 2.97082675043862 -0.776580988542159 -4.39658090909024 -0.758379871623202 2.97082675043862 -0.758379871623202 -1.72101672200359
-10.9067206134082 0.015896113118467 -1.15048118694905 0.015896113118467 9.62310947909196 2.25923507696212 -1.15048118694905 2.25923507696212 0.995494084043996
9.74851199925835 -1.02293380263011 1.60511041380439 -1.02293380263011 -1.57211254920341 -1.23741992253642 1.60511041380439 -1.23741992253642 10.5192478367239
-7.55127450290654 0.200047143641356 -0.198026465422756 0.200047143641356 -0.693092628979648 3.53416620433062 -0.198026465422756 3.53416620433062 -2.59859218911903
-4.26880670358612 2.32355725933709 0.595484523749705 2.32355725933709 1.62532246482272 -0.331603146558659 0.595484523749705 -0.331603146558659 -4.24078390246849
-10.3384297657079 -3.80943735288838 2.26835615226074 -3.80943735288838 -2.35488744962218 -0.455319445639985 2.26835615226074 -0.455319445639985 -4.75098027894029
-4.07905755124348 1.1884603855655 0.845231158300023 1.1884603855655 3.56304626399402 -0.228819484843653 0.845231158300023 -0.228819484843653 -3.8712521007222
-2.5997024513566 -0.707719310080698 3.27700402604701 -0.707719310080698 -6.71420812514954 -0.533324293843047 3.27700402604701 -0.533324293843047 -3.17561157474605
5.69747251426127 2.31042333681767 1.97839821443486 2.31042333681767 17.9273919629773 2.20629711500531 1.97839821443486 2.20629711500531 16.6896651753964
-1.28626590205204 -1.44168117797566 3.74428118705451 -1.44168117797566 4.53976200724249 0.73617762279608 3.74428118705451 0.73617762279608 -1.99994920859602
0.971060802412128 -2.98473425583517 0.545838387882186 -2.98473425583517 2.58608824221335 -0.872932552905218 0.545838387882186 -0.872932552905218 -5.49518197238695
-2.77280526062211 1.652479902795 -6.41586325455636 1.652479902795 -8.89658368974498 0.106030792794352 -6.41586325455636 0.106030792794352 -0.348101093324854
-1.84452934928259 -2.66750470822998 -2.00830554011789 -2.66750470822998 0.638727144257678 -2.49144530308203 -2.00830554011789 -2.49144530308203 -2.65317429153189
8.4642748977504 -2.16437141023098 0.787231006760176 -2.16437141023098 2.88993941385067 -0.83245054239653 0.787231006760176 -0.83245054239653 -5.29274110289152
-2.66966592844444 5.25647318689173 0.377916372913785 5.25647318689173 -4.8118656893461 0.921550085821849 0.377916372913785 0.921550085821849 -1.24692193629842
-5.53435550150053 -2.11200271497558 -2.4140418129237 -2.11200271497558 -4.40114114152976 -0.946994765747115 -2.4140418129237 -0.946994765747115 -4.42839278946493
-6.20133571805519 0.208098514028698 -4.04107495337633 0.208098514028698 -4.90716114985767 0.0574748276841165 -4.04107495337633 0.0574748276841165 3.99945525057059
2.2810224044932 3.26825855627914 3.14274197952396 3.26825855627914 0.59620373958711 2.69860640023639 3.14274197952396 2.69860640023639 -4.80342284120789
-7.6097455075285 -1.32253833671719 -0.123601713711887 -1.32253833671719 -6.21098611402232 -1.42759979337229 -0.123601713711887 -1.42759979337229 -6.20480602833672
-0.825797829042944 3.10275494989922 -2.66446742898322 3.10275494989922 -0.318025701152461 -5.23272540215561 -2.66446742898322 -5.23272540215561 -12.6755958030766
2.06727140765928 4.49923689405767 -1.40437443580752 4.49923689405767 -5.5066791005193 -2.40577198903039 -1.40437443580752 -2.40577198903039 0.733417926304071
-3.18933962570776 3.89785874960634 0.644290761392191 3.89785874960634 -12.855708182919 -3.27765362415404 0.644290761392191 -3.27765362415404 0.0742640441480096
2.87386617849966 2.23147256212915 6.25289637730307 2.23147256212915 -1.90928133658109 -0.562840227346301 6.25289637730307 -0.562840227346301 2.46814389447618
-13.6605512500061 1.46576717792036 -1.28030275948962 1.46576717792036 -11.6124656830344 -0.119654463503703 -1.28030275948962 -0.119654463503703 -4.3115491682501
-7.26968323516308 0.430122924747149 -0.801684512322151 0.430122924747149 -2.25965987226319 3.28145423809445 -0.801684512322151 3.28145423809445 -2.72007314382352
6.29230472728166 -1.30248118428917 3.24455054456129 -1.30248118428917 -0.737986356903405 -2.55317385230441 3.24455054456129 -2.55317385230441 -0.243406026487439
9.11070218969457 0.711588812306304 -2.22741096372887 0.711588812306304 -4.6598225825266 1.26942713331097 -2.22741096372887 1.26942713331097 2.22938212387377
-0.427036017451291 -4.22949548384772 -1.26884864515432 -4.22949548384772 -2.1229206800569 -0.655878285176386 -1.26884864515432 -0.655878285176386 -4.60953710703404
-2.26693155701302 -2.98044418736783 1.1660834987513 -2.98044418736783 6.51131240386653 -0.085621515642578 1.1660834987513 -0.085621515642578 -2.90501570930175
-0.644716608512379 0.144680498760652 -0.799550124729919 0.144680498760652 -15.4960428935751 -1.97222364100047 -0.799550124729919 -1.97222364100047 -3.19566224455545
7.46922609432699 2.07162738958374 -1.3386201580754 2.07162738958374 -8.89800222205315 2.2911375765595 -1.3386201580754 2.2911375765595 2.38325345859397
-6.27080611960456 3.65996223329737 -0.926942539492585 3.65996223329737 -2.77551562684742 0.475423250914535 -0.926942539492585 0.475423250914535 1.12348622981479
-0.0560594708685441 4.23048792661549 3.57379126786969 4.23048792661549 -7.315760948345 -2.21835334722667 3.57379126786969 -2.21835334722667 1.19326587991615
-1.21625146173148 -0.393340898262095 0.181143834725965 -0.393340898262095 7.24575338903859 3.71862415001731 0.181143834725965 3.71862415001731 1.62253120533114
2.87200499087447 -0.813173640337768 3.08177271338199 -0.813173640337768 1.1420687114298 -2.33852164721339 3.08177271338199 -2.33852164721339 -4.7236583438729
-0.63032412462475 -2.94357246434238 4.76038905884901 -2.94357246434238 -2.43066165704969 -0.84867169720718 4.76038905884901 -0.84867169720718 -8.78539997230248
2.9264727097683 -1.80569592730385 -1.82022451522468 -1.80569592730385 6.14559269051344 -2.17513716300509 -1.82022451522468 -2.17513716300509 -3.25647920682728
3.99343292551932 -0.121877498376239 2.25343715082876 -0.121877498376239 5.45077662950754 2.54127549805775 2.25343715082876 2.54127549805775 8.44066504712038
-6.09340758456784 -4.99421298539772 -2.79369768531827 -4.99421298539772 -0.761144422636179 -1.93687868441776 -2.79369768531827 -1.93687868441776 -11.2832219299726
1.38484963916907 -3.0994253829022 -1.91241140647157 -3.0994253829022 5.66922821034838 -2.08757839952123 -1.91241140647157 -2.08757839952123 -2.90571129647082
-9.21056452117717 4.16459176383957 3.88233682332359 4.16459176383957 -1.31008896918739 2.54562002955923 3.88233682332359 2.54562002955923 -3.49623336695739
-4.91288692258516 -0.546329334129802 3.75499490099662 -0.546329334129802 -10.4842230053342 -0.0652333533289316 3.75499490099662 -0.0652333533289316 -5.63860797836952
2.20360786829926 -3.98656578499488 2.09897920013389 -3.98656578499488 0.292533215074611 -0.209257336330744 2.09897920013389 -0.209257336330744 -6.00013382744275
3.38873972046166 3.1338690430977 1.11310867256914 3.1338690430977 0.418716112812224 1.85171349268511 1.11310867256914 1.85171349268511 0.915453861552191
-7.15253305299011 4.32978003831823 0.0255068043494447 4.32978003831823 -8.31309265088984 1.68982578815071 0.0255068043494447 1.68982578815071 -8.12816831935637
2.39603003798868 0.863063993100554 -0.976084277911341 0.863063993100554 -11.7561645345911 -0.805526393560517 -0.976084277911341 -0.805526393560517 -14.3412466853542
-0.599699176686426 0.757299301617671 -0.835075986648675 0.757299301617671 -9.26975280277414 -0.261984623262329 -0.835075986648675 -0.261984623262329 -13.3407482376864
-0.217370756181739 -0.388162064610249 0.214783009084338 -0.388162064610249 7.74512706252317 4.38364358299841 0.214783009084338 4.38364358299841 4.08087717260242
2.79661213659622 3.52245040105631 -0.236770770759708 3.52245040105631 -8.61690346043526 2.14258140097309 -0.236770770759708 2.14258140097309 4.93919353756931
2.9716827893935 2.98544058008514 2.79676230774269 2.98544058008514 13.3725725522708 2.41154416837687 2.79676230774269 2.41154416837687 15.5030647108042
3.4830282567184 3.49603433684057 1.10031437833598 3.49603433684057 0.418795779934027 1.53471745441662 1.10031437833598 1.53471745441662 0.208097281954796
5.3577836397424 -1.15752986320196 3.4078507829391 -1.15752986320196 -0.121708956533539 -2.77082092533802 3.4078507829391 -2.77082092533802 -2.50668659413757
8.92526536291597 2.88812299232622 1.41927633949906 2.88812299232622 1.50276318299901 -1.95411393067058 1.41927633949906 -1.95411393067058 -0.224370891906102
1.09987573524828 2.69881402878102 2.75453460567685 2.69881402878102 1.76367739044217 3.5200868795501 2.75453460567685 3.5200868795501 -4.77985644415165
1.67116600382239 2.56818893234471 -5.75077713080058 2.56818893234471 5.32479363963017 4.0857551196393 -5.75077713080058 4.0857551196393 1.78994986193722
-9.86950460249782 -2.61099374512855 -2.70156339932033 -2.61099374512855 -3.53480421788464 0.0957450630027318 -2.70156339932033 0.0957450630027318 -7.86144598384593
9.49858577676732 0.232000177430126 3.72350697991161 0.232000177430126 12.1656291387946 2.72839878085182 3.72350697991161 2.72839878085182 14.8997799901612
-8.48506901930197 -1.68959606503827 0.249318443743453 -1.68959606503827 -6.28859413475221 -1.31664864092617 0.249318443743453 -1.31664864092617 -6.10315066419923
-9.50819750683507 4.09653238930847 -1.63065852389949 4.09653238930847 -2.77344522926645 1.72876318306092 -1.63065852389949 1.72876318306092 -1.52990238746342
-8.11216686916219 4.15096842012289 -3.39388611443156 4.15096842012289 4.79019358587809 0.912893439844157 -3.39388611443156 0.912893439844157 2.88250598182739
8.72302887213619 -0.590116368648487 -2.52086623251518 -0.590116368648487 -0.768339433005413 0.138617938944275 -2.52086623251518 0.138617938944275 2.08917036551729
-0.623082901622627 3.17399495185544 0.639059386279618 3.17399495185544 -1.33669921630153 -2.70268865447422 0.639059386279618 -2.70268865447422 -0.149113856798578
-5.19889111460189 -2.71635452839582 1.63672559532832 -2.71635452839582 8.33611793893928 1.1650233119542 1.63672559532832 1.1650233119542 -1.31751327425187
1.01420074572592 -0.0452992888909842 -1.33884564944464 -0.0452992888909842 -13.9043650623715 -0.822937081519546 -1.33884564944464 -0.822937081519546 3.52831127917554
1.53376849667984 0.942436064224961 -1.00403319260568 0.942436064224961 -11.3585104734041 -0.759697916695503 -1.00403319260568 -0.759697916695503 -14.3007999723897
-4.78733002986284 0.772663914969542 -6.69376539394576 0.772663914969542 -3.34024469083053 1.2213931301924 -6.69376539394576 1.2213931301924 -6.94600962735506
-13.8977384372154 1.95928279263779 2.1151653742194 1.95928279263779 -4.58241037235587 5.16831386864536 2.1151653742194 5.16831386864536 -3.68474171290317
-0.238461107371066 -1.68978474361221 -3.91199558040636 -1.68978474361221 -2.49356313138882 -1.17791564244501 -3.91199558040636 -1.17791564244501 -3.8606031003695
3.63135251411603 -2.32299756417716 -4.99721757174451 -2.32299756417716 0.858543750509332 0.0431325807672153 -4.99721757174451 0.0431325807672153 -2.48936608999357
3.33370221994192 1.72333227445382 4.19799538807501 1.72333227445382 2.38009000099872 -0.543795397579178 4.19799538807501 -0.543795397579178 5.10432105070697
-2.78093377512602 2.14349051684777 -0.66546274215862 2.14349051684777 -1.00636646270304 -0.969007150862553 -0.66546274215862 -0.969007150862553 -2.34196186100034
-10.3145847821374 -1.85776213886693 -2.08772156913001 -1.85776213886693 -5.83941924038841 -0.679543035496527 -2.08772156913001 -0.679543035496527 -9.8727526183735
-7.60995291643442 2.75804112008173 -6.90577220492419 2.75804112008173 -3.08079061285726 -1.15763041210394 -6.90577220492419 -1.15763041210394 -13.4487846493734
-11.6448901803249 3.66791333277955 3.29123760086264 3.66791333277955 -2.591315318861 3.50762578728299 3.29123760086264 3.50762578728299 -4.10603262380347
-5.9554748624628 -0.156175040099549 -2.71744569773215 -0.156175040099549 0.46071636829367 4.0527422905833 -2.71744569773215 4.0527422905833 3.49051214622492
10.2667958975001 0.736556752969441 2.0959894738841 0.736556752969441 -2.78991593246946 -1.02075871553 2.0959894738841 -1.02075871553 6.82795215051736
-11.9245252641749 0.391466809999279 1.51921575486767 0.391466809999279 -5.01807713957625 -2.22710133357103 1.51921575486767 -2.22710133357103 0.0182549289636969
-11.9861512408108 -0.312541024565673 2.17561024892469 -0.312541024565673 -4.32686665177932 -2.16952178740717 2.17561024892469 -2.16952178740717 0.00811794869001749
-6.03344952972366 3.55270466327104 -5.23683102734987 3.55270466327104 -1.73491747664628 -4.03388362443642 -5.23683102734987 -4.03388362443642 -15.729205597206
-0.969867855220672 -3.08669196385518 5.19322023538542 -3.08669196385518 -0.821607800919423 -0.321230117652707 5.19322023538542 -0.321230117652707 -8.06164045263043
-4.14143452123702 3.45966189185327 -4.27778904711378 3.45966189185327 -1.07746811624178 -4.78042926014964 -4.27778904711378 -4.78042926014964 -15.1273315178561
8.34880651723713 -5.65039448926654 2.1046345966004 -5.65039448926654 10.1576089416246 -0.179612390272123 2.1046345966004 -0.179612390272123 11.7635550193518
-8.11309366972883 -0.578200760124336 -2.16425343809386 -0.578200760124336 -4.18909878777829 0.34509215327579 -2.16425343809386 0.34509215327579 -8.88555160222695
-0.384852131778155 -0.153940852711262 3.17716815456854 -0.153940852711262 0.806051409335357 -0.0213806739876753 3.17716815456854 -0.0213806739876753 6.5510385098237
0.725138185401738 2.38580676211051 -4.90642794742246 2.38580676211051 4.05260326714661 3.57053957206264 -4.90642794742246 3.57053957206264 1.17656223884902
1.37834978611616 2.89376236608982 0.359065910668917 2.89376236608982 -3.56556310218005 2.21810070622895 0.359065910668917 2.21810070622895 8.22376763144939
4.97554064908248 -0.0256980645363815 5.17717161698332 -0.0256980645363815 6.74080000531237 0.541636129459117 5.17717161698332 0.541636129459117 7.92291097398592
9.84968410469019 -0.814203573416667 0.0792412236901866 -0.814203573416667 18.3562294678317 -0.499219709248175 0.0792412236901866 -0.499219709248175 12.2170156624345
10.3232081611211 -0.646559867589849 -0.0316359568239682 -0.646559867589849 20.2885345606711 -0.144339053009355 -0.0316359568239682 -0.144339053009355 13.5817117139898
-6.04727389878039 -2.4426608855682 -4.58260879199068 -2.4426608855682 -0.0372569820487047 1.03155269047351 -4.58260879199068 1.03155269047351 -11.2469514559527
5.25043271159434 -1.22518730763894 1.52047558051597 -1.22518730763894 -1.28476301181588 -0.437751913300169 1.52047558051597 -0.437751913300169 6.01973636987925
5.91695707072947 -1.24035992861243 3.36632130938657 -1.24035992861243 -0.455748115732335 -2.71118339302134 3.36632130938657 -2.71118339302134 -1.43716025131503
-2.42763284441006 7.38905739523821 1.82873662289306 7.38905739523821 -5.35200904312185 -1.51426603166172 1.82873662289306 -1.51426603166172 2.58386664132754
-0.641764602698165 -0.137687678397061 -3.03379630366405 -0.137687678397061 -3.15281446634626 -0.865798791276433 -3.03379630366405 -0.865798791276433 1.00115278020914
-5.29717149802265 -3.55186065763368 5.3094192933938 -3.55186065763368 6.7893612340745 1.13700367028848 5.3094192933938 1.13700367028848 -3.44367179852185
2.26048072464796 -1.4209316785332 -2.33772736811614 -1.4209316785332 -2.76258390719116 0.323216218722145 -2.33772736811614 0.323216218722145 -1.69332773707891
9.43296817279335 2.27341319272358 1.39902350321451 2.27341319272358 1.40946397711909 -2.18205904605845 1.39902350321451 -2.18205904605845 0.428059430088021
5.51136030320484 0.0910323787693108 3.2719637854798 0.0910323787693108 2.68935656135621 0.163858281784759 3.2719637854798 0.163858281784759 5.50875937809715
-3.00417425938762 -0.389914603352574 -0.0837400490421636 -0.389914603352574 -11.3232247564201 -3.02249239511559 -0.0837400490421636 -3.02249239511559 -3.79447097222304
8.37187111143995 -3.52577665530994 3.03989970460815 -3.52577665530994 9.14504921560019 -0.464751865888668 3.03989970460815 -0.464751865888668 14.0207187904686
-8.39073453767376 -0.603960326619191 -0.203934655741545 -0.603960326619191 11.124243288671 0.500032088597058 -0.203934655741545 0.500032088597058 10.5242047823545
5.79402308052952 -0.0247079875502325 -0.543575726105115 -0.0247079875502325 -11.5530431786962 -0.500336747892208 -0.543575726105115 -0.500336747892208 -13.3999652480761
11.6698893625499 0.8656447537023 3.57390361728089 0.8656447537023 11.8714252808176 2.02303674146835 3.57390361728089 2.02303674146835 14.4933116079957
2.98590567225433 -4.39354691774566 1.86619104515896 -4.39354691774566 1.52067910308381 0.091709959933526 1.86619104515896 0.091709959933526 -4.36368786102312
-3.26446785660149 2.34210390570193 -0.268536340135316 2.34210390570193 -0.371280678969698 -0.80794411901582 -0.268536340135316 -0.80794411901582 -3.00527191090567
10.0725400302259 -0.403656982697123 1.7491802583542 -0.403656982697123 -2.11742873379719 -1.19916811233999 1.7491802583542 -1.19916811233999 9.50600391415973
0.876841327455226 3.00364795149556 0.466404961412354 3.00364795149556 -0.746247938259767 -3.62196767176794 0.466404961412354 -3.62196767176794 -2.58521607182848
-6.88932280293077 -1.94576819704396 -4.65029289197827 -1.94576819704396 -0.172233070073269 1.05900063355861 -4.65029289197827 1.05900063355861 -12.3402667233577
-0.170800412668211 0.595361438443479 1.36396329545043 0.595361438443479 2.76940669112028 4.25781028722898 1.36396329545043 4.25781028722898 -2.54004613696583
-9.64334151192727 -2.0813120238485 -1.61785337093842 -2.0813120238485 -16.0212128822495 -1.78155206944335 -1.61785337093842 -1.78155206944335 -12.3454330158205
-7.91076266708435 2.54394618401362 2.52020796145673 2.54394618401362 -3.20861641560661 1.39462057521742 2.52020796145673 1.39462057521742 5.99983575125452
5.73874540112126 -5.79606916206476 1.23989171818528 -5.79606916206476 6.58374009947356 0.690008233579138 1.23989171818528 0.690008233579138 2.88529596748938
-12.2208941023139 -0.0621447190699139 1.56982964259217 -0.0621447190699139 -5.33363806278305 5.63355388090307 1.56982964259217 5.63355388090307 -1.99403489885202
0.154506410271044 0.139309058441105 -0.939702921484548 0.139309058441105 -15.3594569161248 -1.71730075678308 -0.939702921484548 -1.71730075678308 -1.42095239609928
-4.51014082354534 1.11500703693204 3.35754927975042 1.11500703693204 -7.84054573722812 2.42837674897372 3.35754927975042 2.42837674897372 -9.47547178576331
-3.36901286307922 -1.60390315589356 -1.90591036590914 -1.60390315589356 -2.56093951736186 -2.94048911913819 -1.90591036590914 -2.94048911913819 -2.46095064377562
6.7587291394834 -1.89666338926021 -2.30863539511211 -1.89666338926021 2.1733015960883 -0.547305804875717 -2.30863539511211 -0.547305804875717 1.38319103414045
2.24243419886258 1.45221818012687 3.38327586829558 1.45221818012687 -0.423890712037033 -1.94152412550296 3.38327586829558 -1.94152412550296 -2.34709857220506
-3.72628740607822 -3.59063656835006 0.37406746161403 -3.59063656835006 -4.63062632426599 -2.5115958136942 0.37406746161403 -2.5115958136942 -5.67061608018191
-2.7414777991248 2.81450492552338 -3.89412217255093 2.81450492552338 -12.3534265980721 -1.45067399737706 -3.89412217255093 -1.45067399737706 1.73883509073359