9.039356048 0.266027755 0.365352859 0.158975505 8.947068406 0.057607838 0.173679796 0.045826332 5.246081980
8.717532478 0.500818538 0.075497876 0.299284111 9.188386570 -0.208870885 0.035889840 -0.166154242 5.301142187
8.701193657 0.517803545 0.061993203 0.309434180 9.191696673 -0.220025972 0.029470049 -0.175027977 5.304142057
9.484343696 0.065982774 -0.000200064 0.039430641 7.373526451 -0.061541241 -0.000095106 -0.048955307 5.175976736
9.436522998 0.207529974 -0.006745068 0.124017821 8.586006341 0.179177417 -0.003206440 0.142533450 5.207607074
9.051695357 -0.242008980 0.091321509 -0.144622127 8.597294674 0.387569309 0.043412007 0.308306658 5.245371728
8.938366533 0.358642566 0.280096944 0.214321183 9.095027631 -0.092653033 0.133151223 -0.073704358 5.274726883
8.448622834 0.689750468 0.014006897 0.412187928 9.405207143 -0.317203003 0.006658535 -0.252331120 5.257903344
9.694083239 -0.051599333 -0.045542955 -0.030835241 6.543875874 -0.061944925 -0.021650005 -0.049276432 5.176299498
9.044043433 -0.236352333 0.092805448 -0.141241772 8.621070426 0.376455600 0.044117436 0.299465838 5.246397784
8.720914481 0.498180750 0.077500744 0.297707795 9.188166041 -0.207225771 0.036841954 -0.164845573 5.301017423
9.045462644 -0.237407128 0.092837505 -0.141872107 8.616913964 0.378496224 0.044132675 0.301089130 5.246263242
8.361577503 0.595533495 0.213639700 0.355884814 9.142292293 0.024715514 0.101559078 0.019660890 5.194849973
8.460979074 0.146669638 -0.056000136 0.087648298 9.093330607 -0.173766250 -0.026621092 -0.138228933 5.408295836
8.970423227 -0.190742883 0.048867934 -0.113986024 8.743223571 0.272613171 0.023230618 0.216860452 5.219013066
8.395803117 0.238362438 -0.012016910 0.142442991 9.121932798 -0.070618426 -0.005712545 -0.056176097 5.470877400
9.001288943 0.288901452 0.356708140 0.172644596 8.984159607 0.013092078 0.169570308 0.010414588 5.240212760
10.134988882 -0.043723227 0.044740957 -0.026128560 6.147946135 0.085656351 0.021268755 0.068138582 5.126862000
8.502660944 0.097697678 -0.063012355 0.058383148 9.075503084 -0.204694400 -0.029954529 -0.162831899 5.352637281
9.523564509 0.133955922 -0.010133464 0.080050709 8.066131367 0.092148566 -0.004817200 0.073303061 5.177182367
8.416596714 0.203992375 -0.026164992 0.121903788 9.110768557 -0.108706528 -0.012438196 -0.086474717 5.454737404
9.474112959 0.063022787 0.013270365 0.037661783 7.248452533 -0.079579142 0.006308406 -0.063304237 5.177156222
8.377307691 0.662499373 0.183036565 0.395902948 9.189610912 -0.040100249 0.087011097 -0.031899259 5.173274797
10.258156744 -0.013625769 0.019013916 -0.008142622 6.125605290 0.069398695 0.009038750 0.055205816 5.045380593
9.182047232 0.196766859 0.287358509 0.117585892 8.883791320 0.175263036 0.136603193 0.139419607 5.275441180
9.050562801 -0.241194610 0.091837809 -0.144135468 8.600944189 0.385917729 0.043657444 0.306992846 5.245572554
9.947899345 -0.072370951 0.051892237 -0.043248151 6.239747651 0.057268128 0.024668298 0.045556097 5.179756449
9.513919439 0.072442184 -0.034065939 0.043290719 7.649337609 0.008809701 -0.016194113 0.007008010 5.178951262
8.583125557 0.636545610 -0.041467943 0.380393241 9.332577331 -0.349288033 -0.019712844 -0.277854370 5.283332530
8.668346073 -0.041996775 -0.138624573 -0.025096850 8.987069398 -0.028853843 -0.065898725 -0.022952880 5.277331431
8.407070582 0.695308055 0.101170449 0.415509086 9.341920062 -0.197669260 0.048093952 -0.157243486 5.217717240
8.396970635 0.691323728 0.133479995 0.413128093 9.296787500 -0.140950179 0.063453119 -0.112124148 5.189838494
9.384192980 0.205323979 0.005582895 0.122699541 8.735521685 0.203082035 0.002653971 0.161549282 5.218560770
10.282981793 -0.006714149 0.012877123 -0.004012308 6.132159964 0.061675125 0.006121469 0.049061810 5.026368900
8.594016096 0.003140174 -0.105476465 0.001876536 9.005800956 -0.133344808 -0.050140927 -0.106074168 5.283692279
8.892812640 -0.150630818 -0.036138743 -0.090015459 8.841973485 0.186359670 -0.017179473 0.148246845 5.205661236
8.640458971 -0.029139199 -0.129876558 -0.017413292 8.992138953 -0.064469298 -0.061740133 -0.051284540 5.282151059
8.312543968 0.449847571 0.128998992 0.268824375 9.173143693 0.026506563 0.061322959 0.021085647 5.381986910
8.656940049 0.573585795 0.004318344 0.342769090 9.229444301 -0.275069287 0.002052835 -0.218814263 5.312849287
9.034179889 0.268904387 0.364990903 0.160694552 8.951531373 0.051891564 0.173507731 0.041279106 5.245112514
9.161760262 0.202414037 0.309663479 0.120960588 8.885559678 0.164276161 0.147206429 0.130679683 5.272243847
8.844252454 0.440680604 0.155286790 0.263346288 9.181128368 -0.166067892 0.073819534 -0.132104982 5.315218953
9.727280074 -0.057945544 -0.031676528 -0.034627673 6.483981476 -0.042418361 -0.015058245 -0.033743289 5.178148885
8.471326825 0.680486938 -0.008220883 0.406652136 9.403367012 -0.345968447 -0.003908006 -0.275213680 5.267914399
10.354016330 0.004124899 -0.005501578 0.002464998 6.176156489 0.032856399 -0.002615315 0.026136865 4.967312781
8.347195538 0.550905447 0.205103465 0.329215543 9.154450432 0.032041718 0.097501161 0.025488796 5.239297931
10.393547309 0.001813569 -0.004750371 0.001083770 6.208855145 0.007869307 -0.002258210 0.006259938 4.946564909
8.404586086 0.695183950 0.108194299 0.415434922 9.334255204 -0.187132322 0.051432918 -0.148861480 5.211923757
9.033416344 -0.228787119 0.090436817 -0.136720877 8.647424334 0.361495845 0.042991446 0.287565536 5.246461767
9.484417188 0.196510787 0.020216232 0.117432866 8.419319614 0.153336376 0.009610301 0.121977217 5.210315924
9.074612362 -0.252984084 0.096789360 -0.151180739 8.518525893 0.385507218 0.046011290 0.306666290 5.234029992
9.014616116 0.280265074 0.361516305 0.167483583 8.969847279 0.029475192 0.171855992 0.023447156 5.241786076
8.584754588 0.011049530 -0.099516284 0.006603088 9.010798848 -0.147400646 -0.047307602 -0.117255416 5.283874423
8.312683953 0.453983578 0.132173061 0.271296011 9.173654585 0.026559280 0.062831834 0.021127583 5.377030670
9.523059396 0.083940349 -0.046650127 0.050161907 7.780735813 0.042030032 -0.022176327 0.033434378 5.179740462
8.401362457 0.694452493 0.118150904 0.414997811 9.321651089 -0.170670823 0.056166044 -0.135766558 5.203156525
9.044566224 0.263157395 0.365506333 0.157260207 8.942711221 0.063287772 0.173752753 0.050344650 5.247074700
9.524494513 0.090520058 -0.044058674 0.054093874 7.862045676 0.058102909 -0.020944414 0.046220155 5.178134361
8.663370818 -0.039864917 -0.137425588 -0.023822873 8.988038858 -0.034921532 -0.065328757 -0.027779652 5.278405499
9.061384358 -0.247431970 0.083744905 -0.147862851 8.568454041 0.400115086 0.039810276 0.318286671 5.241926108
9.498536257 0.039880043 -0.021138748 0.023831912 6.993215894 -0.102807119 -0.010048843 -0.081781809 5.201069907
8.430745521 0.693506415 0.045417695 0.414432444 9.389116778 -0.271481073 0.021590459 -0.215959883 5.248091832
9.352427596 0.198922893 0.038356280 0.118874316 8.804574968 0.209937386 0.018233635 0.167002630 5.242267426
9.478002385 0.064786890 0.009242812 0.038715993 7.306420977 -0.072301030 0.004393806 -0.057514587 5.174688608
8.836008225 -0.125552860 -0.082623052 -0.075029124 8.893337729 0.139030904 -0.039276974 0.110597388 5.214288958
10.365813233 0.004257054 -0.007096248 0.002543972 6.185982892 0.026605606 -0.003373382 0.021164435 4.958738304
9.597072989 -0.024951603 -0.065846887 -0.014910826 6.729176558 -0.112597566 -0.031301996 -0.089569991 5.197817644
9.482125603 0.197852365 0.018332268 0.118234579 8.429632026 0.155272144 0.008714711 0.123517097 5.210301063
9.247900787 0.191243983 0.197232084 0.114285477 8.876507988 0.200857322 0.093759299 0.159779550 5.270988054
9.407197909 0.206278397 -0.005249957 0.123269891 8.669544911 0.192141298 -0.002495701 0.152846059 5.206819362
9.117431486 0.222579801 0.345564940 0.133011446 8.896479612 0.133454478 0.164273104 0.106161409 5.262070664
9.518684952 0.077378234 -0.040386558 0.046240453 7.704860188 0.023666854 -0.019198780 0.018826693 5.178715248
9.894056778 -0.074360056 0.033609965 -0.044436820 6.283719226 0.039783215 0.015977354 0.031647062 5.181797541
9.226213757 0.191539601 0.229648349 0.114462135 8.880404712 0.193925202 0.109169197 0.154265133 5.275260493
8.902826690 -0.155066834 -0.026402825 -0.092666377 8.831433450 0.195423872 -0.012551256 0.155457307 5.205268750
9.552622313 -0.004187384 -0.048950857 -0.002502338 6.826728411 -0.117801840 -0.023270038 -0.093709927 5.202555889
8.411462316 0.212357020 -0.022373695 0.126902415 9.113375508 -0.098969599 -0.010635906 -0.078729109 5.459400050
9.127159776 0.217410090 0.339408466 0.129922079 8.892907333 0.141082708 0.161346467 0.112229573 5.264370634
8.778604851 0.469811136 0.103961723 0.280754400 9.190412972 -0.188531458 0.049420855 -0.149974476 5.306578653
8.961125868 0.327258146 0.319502070 0.195566170 9.046960203 -0.049583271 0.151883454 -0.039442887 5.249539152
8.350070968 0.307619506 0.027827440 0.183830316 9.148373773 -0.010941883 0.013228483 -0.008704135 5.470098586
8.405789756 0.695275819 0.104733245 0.415489822 9.338134242 -0.192415806 0.049787618 -0.153064426 5.214828480
9.512071504 0.027966215 -0.028689065 0.016712328 6.945092505 -0.107765955 -0.013638079 -0.085726503 5.201741412
9.651747121 -0.041030311 -0.062536091 -0.024519300 6.625524720 -0.087407216 -0.029728125 -0.069531375 5.182901619
8.923896748 0.375942358 0.256784446 0.224659364 9.118591346 -0.113472958 0.122069033 -0.090266354 5.290292930
9.381711768 0.205082486 0.007410498 0.122555227 8.742254940 0.204059345 0.003522769 0.162326720 5.220541313
8.948615789 0.344633464 0.298199721 0.205949484 9.074183522 -0.074116210 0.141756839 -0.058958541 5.262279270
8.427167883 0.187913046 -0.034423920 0.112294942 9.105853189 -0.128025264 -0.016364288 -0.101842536 5.444431577
8.333307396 0.525903943 0.196698257 0.314274896 9.166440853 0.031549818 0.093505531 0.025097495 5.267787526
9.074306153 -0.263122156 0.135700818 -0.157239149 8.455918421 0.293567399 0.064508843 0.233529285 5.253386694
9.055044980 0.257416870 0.365191878 0.153829727 8.934336192 0.074494279 0.173603269 0.059259290 5.249099975
9.997451279 -0.066101068 0.059626598 -0.039501332 6.207910301 0.068953899 0.028345023 0.054851985 5.175579640
9.520927570 0.080349218 -0.043748238 0.048015883 7.737845291 0.031995174 -0.020796840 0.025451771 5.179127293
9.369235671 0.203047831 0.018766482 0.121339337 8.772960679 0.207737361 0.008921126 0.165252537 5.230857503
8.355758333 0.571530109 0.209411680 0.341540633 9.146734329 0.030372922 0.099549181 0.024161289 5.217727595
8.393867898 0.687106242 0.144142799 0.410607765 9.274668096 -0.117249195 0.068521954 -0.093270305 5.182499690
9.688714136 -0.050378908 -0.047907952 -0.030105928 6.554111448 -0.065192832 -0.022774266 -0.051860102 5.176531555
8.830918986 -0.123097385 -0.086302128 -0.073561756 8.897535465 0.134813524 -0.041025916 0.107242514 5.215608063
10.400101113 0.000552108 -0.002161348 0.000329934 6.213802984 0.002966372 -0.001027452 0.002359713 4.946341122
9.519244145 0.163895085 0.009890095 0.097942051 8.187497459 0.111155427 0.004701509 0.088422787 5.201953268
8.711320347 -0.060205470 -0.141918952 -0.035978182 8.975110960 0.019786789 -0.067464792 0.015740149 5.264427814
8.581721557 0.013639904 -0.097518083 0.008151069 9.012613427 -0.151885120 -0.046357707 -0.120822760 5.284011505
8.328968499 0.348056371 0.062059674 0.207994979 9.159820738 0.010426666 0.029501648 0.008294286 5.451931536
8.783425223 0.467995500 0.106452723 0.279669394 9.190555019 -0.187132309 0.050605016 -0.148861469 5.307229079
9.511318390 0.175338122 0.023269005 0.104780295 8.262215445 0.123135642 0.011061515 0.097952901 5.211120265
8.597167801 0.000482230 -0.107447109 0.000288176 9.004303511 -0.128478865 -0.051077722 -0.102203370 5.283689657
9.699483248 -0.052776196 -0.043175959 -0.031538523 6.533694127 -0.058697852 -0.020524793 -0.046693425 5.176246122
9.477285947 0.200360806 0.014303428 0.119733598 8.450274983 0.159004578 0.006799499 0.126486202 5.210320266
10.349735957 0.003950686 -0.004714200 0.002360890 6.172688503 0.034961940 -0.002241015 0.027811796 4.970698304
9.844072645 -0.071090655 0.011950381 -0.042483059 6.332164906 0.018410965 0.005680918 0.014645698 5.184236661
8.555249519 0.651913384 -0.042883003 0.389576868 9.363485714 -0.362611547 -0.020385529 -0.288453063 5.280630597
8.632840362 0.593757866 -0.015434622 0.354823716 9.257299239 -0.300487531 -0.007337241 -0.239034166 5.304004923
8.953557849 0.337641430 0.306948945 0.201771116 9.063365974 -0.064441009 0.145916006 -0.051262037 5.256666655
8.441679470 0.691886434 0.024475483 0.413464360 9.401801026 -0.301418091 0.011635045 -0.239774415 5.254412363
8.517000859 0.077510892 -0.062429919 0.046319728 9.065829944 -0.209725985 -0.029677654 -0.166834463 5.328363103
10.066725747 -0.055130057 0.056678724 -0.032945167 6.174511099 0.080533977 0.026943676 0.064063797 5.159031140
9.823283299 -0.069024955 0.003280640 -0.041248618 6.354309037 0.008450896 0.001559536 0.006722584 5.184893395
8.457126988 0.686351265 0.004107429 0.410156598 9.405857727 -0.331330522 0.001952571 -0.263569389 5.262032371
9.005605687 0.285986495 0.358527816 0.170902647 8.979313565 0.018533031 0.170435337 0.014742800 5.240623568
9.039208611 -0.232830594 0.092066009 -0.139137216 8.634042360 0.369593521 0.043765925 0.294007138 5.246645436
8.369643702 0.647586087 0.201441443 0.386990919 9.162330435 -0.013497116 0.095760326 -0.010736791 5.171204970
9.463802773 0.205134834 0.004185504 0.122586509 8.501213546 0.167299228 0.001989686 0.133084495 5.210210109
9.008865839 -0.213494481 0.079595841 -0.127582150 8.689018062 0.327302240 0.037837912 0.260364940 5.239407260
8.529009486 0.061066662 -0.064099116 0.036492822 9.054981907 -0.208795231 -0.030471149 -0.166094059 5.308995554
8.703519859 0.514855699 0.064456269 0.307672577 9.190893658 -0.217985391 0.030640931 -0.173404720 5.303398357
8.780856540 -0.095876993 -0.119140491 -0.057295125 8.936312703 0.090111218 -0.056636470 0.071682375 5.233689002
9.524261569 0.094938854 -0.038778475 0.056734502 7.901039261 0.064725373 -0.018434337 0.051488245 5.175496594
9.076115390 -0.255249378 0.107331145 -0.152534456 8.499763827 0.366398554 0.051022596 0.291465581 5.236880175
10.403000818 0.000129708 -0.001015003 0.000077512 6.216041357 0.001251579 -0.000482508 0.000995615 4.946572531
8.523132844 0.068796224 -0.062799075 0.041111930 9.060563830 -0.210029026 -0.029853141 -0.167075529 5.317971885
9.502015919 0.066282039 -0.022435823 0.039609478 7.536641079 -0.022737675 -0.010665441 -0.018087543 5.181378285
9.491444413 0.045641622 -0.015945857 0.027274973 7.022313595 -0.100070132 -0.007580270 -0.079604569 5.199979067
8.738926386 -0.073153840 -0.137016072 -0.043715998 8.962642169 0.048585380 -0.065134083 0.038649077 5.252972821
8.318471129 0.382515863 0.086626954 0.228587625 9.165475357 0.020925605 0.041180331 0.016646064 5.434565311
9.336613151 0.195194809 0.059325673 0.116646451 8.825628908 0.210555548 0.028201971 0.167494371 5.249130800
9.376836913 0.204449441 0.011431136 0.122176925 8.754943541 0.205749208 0.005434082 0.163670986 5.224586680
8.749812329 0.481596974 0.090943998 0.287797498 9.188756078 -0.196820164 0.043232548 -0.156568040 5.302882448
10.109393086 -0.048167643 0.049813005 -0.028784498 6.157434791 0.084678208 0.023679882 0.067360482 5.140696318
9.394201854 0.205891063 -0.000390706 0.123038424 8.707205234 0.198562928 -0.000185732 0.157954387 5.211726170
8.416005034 0.694732542 0.078499194 0.415165165 9.362923189 -0.228386216 0.037316593 -0.181678449 5.233362949
8.606894749 -0.007436985 -0.113296089 -0.004444267 9.000347916 -0.113410083 -0.053858184 -0.090216337 5.283750733
9.102039940 0.231152993 0.353429942 0.138134699 8.903570705 0.120424966 0.168011933 0.095796591 5.258599562
8.698959478 0.520810972 0.059415131 0.311231388 9.192615900 -0.222171831 0.028244497 -0.176734982 5.304968746
8.978588663 0.307299470 0.341345443 0.183639066 9.014636065 -0.018889005 0.162267259 -0.015025973 5.241122860
8.394658593 0.688291444 0.141574184 0.411316030 9.280352146 -0.123113361 0.067300898 -0.097935177 5.184029659
9.060479591 -0.247075834 0.084405323 -0.147650028 8.570910507 0.399223880 0.040124222 0.317577727 5.242435879
8.674545048 0.555448783 0.024716319 0.331930595 9.211564945 -0.253529429 0.011749532 -0.201679569 5.314154792
9.523655915 0.125387883 -0.014727344 0.074930535 8.036376583 0.087197548 -0.007001018 0.069364586 5.173203224
9.192192095 0.194796955 0.275135828 0.116408697 8.883173709 0.180130393 0.130792830 0.143291531 5.276352890
9.000005521 -0.208330823 0.074237269 -0.124496400 8.701574720 0.314703729 0.035290578 0.250342978 5.234983459
8.569861173 0.023627629 -0.089528497 0.014119633 9.020391421 -0.168632961 -0.042559653 -0.134145464 5.285066577
10.238499540 -0.019401285 0.023333815 -0.011594012 6.123884381 0.074540992 0.011092324 0.059296450 5.059687811
8.617194109 -0.015098638 -0.119027166 -0.009022794 8.997137646 -0.097705361 -0.056582598 -0.077723423 5.283703894
10.326057538 0.001852070 0.000917740 0.001106778 6.154988383 0.045532759 0.000436271 0.036220754 4.990642803
8.313151233 0.461870551 0.138653471 0.276009186 9.174613037 0.026688133 0.065912462 0.021230084 5.366795423
8.586198234 0.634223816 -0.040599315 0.379005761 9.328079534 -0.346899034 -0.019299919 -0.275953951 5.283962954
9.493603834 0.065918019 -0.013503198 0.039391944 7.460085691 -0.042955305 -0.006419090 -0.034170422 5.180195098
9.476172296 0.056632407 0.002365666 0.033842956 7.117251622 -0.092117887 0.001124580 -0.073278656 5.191600161
9.672701565 -0.046490497 -0.054806028 -0.027782253 6.585027924 -0.074925277 -0.026053443 -0.059602144 5.178331859
8.877421773 -0.143973640 -0.050054278 -0.086037196 8.857057079 0.173081616 -0.023794577 0.137684314 5.206957329
9.524002116 0.086353700 -0.047084696 0.051604101 7.811826397 0.048630918 -0.022382910 0.038685302 5.179748182
8.498117069 0.670913738 -0.024712308 0.400931288 9.394807176 -0.359578084 -0.011747626 -0.286039980 5.274959869
9.530874814 0.011594211 -0.037861912 0.006928584 6.886252335 -0.113764900 -0.017998625 -0.090498590 5.202133653
9.473731359 0.058817517 0.007703722 0.035148755 7.152025682 -0.089132770 0.003662160 -0.070904031 5.187377101
8.414409981 0.694878320 0.082347700 0.415252280 9.359611980 -0.223378882 0.039146079 -0.177695176 5.231050629
9.488756976 0.193709568 0.023580630 0.115758886 8.398732488 0.149358086 0.011209654 0.118812535 5.210432135
8.708596003 0.509082840 0.069114263 0.304222774 9.189597915 -0.214138035 0.032855227 -0.170344195 5.302181682
10.388250808 0.002698467 -0.006250555 0.001612577 6.204725482 0.011989821 -0.002971361 0.009537757 4.947633120
9.521167480 0.019856177 -0.033115288 0.011865851 6.915735168 -0.110858850 -0.015742197 -0.088186863 5.201906432
8.943752313 -0.175249452 0.018650448 -0.104727306 8.780956935 0.238183369 0.008865966 0.189471965 5.209214909
9.474727124 0.063420979 0.012880961 0.037899738 7.260140828 -0.078231099 0.006123293 -0.062231885 5.176372208
9.496077515 0.041930707 -0.019477268 0.025057368 7.002868301 -0.101873346 -0.009259016 -0.081039005 5.200782860
9.955994784 -0.071565755 0.053803622 -0.042766974 6.233976977 0.059422575 0.025576923 0.047269934 5.179348043
8.980775604 -0.196977890 0.059082149 -0.117712002 8.728513458 0.287147017 0.028086206 0.228421950 5.224360574
8.917300499 -0.161750995 -0.011351481 -0.096660765 8.814984237 0.209343365 -0.005396216 0.166530093 5.205479280
9.072992943 -0.251784108 0.091168825 -0.150463645 8.529314991 0.393574196 0.043339425 0.313083473 5.234045987
8.727959364 -0.067822590 -0.139636725 -0.040530096 8.968097205 0.037305407 -0.066379877 0.029675997 5.257769090
8.846270883 -0.130331601 -0.075040753 -0.077884851 8.884739565 0.147445938 -0.035672535 0.117291445 5.211922710
8.941011026 0.355145763 0.284682062 0.212231529 9.089949800 -0.088144161 0.135330876 -0.070117605 5.271530672
9.074709975 -0.262493416 0.133567076 -0.156863420 8.458798034 0.299467538 0.063494515 0.238222774 5.252362698
8.570126585 0.644845607 -0.043413977 0.385353236 9.349127644 -0.357259284 -0.020637941 -0.284195403 5.281639213
9.733060434 -0.058836714 -0.029468955 -0.035160227 6.474349525 -0.039132838 -0.014008819 -0.031129695 5.178820152
8.421808008 0.195841344 -0.030194535 0.117032814 9.108264826 -0.118430028 -0.014353742 -0.094209643 5.449746567
8.856626538 -0.134967180 -0.067117138 -0.080655027 8.875848137 0.155891467 -0.031905843 0.124009761 5.209916199
9.401890643 0.206113888 -0.003614987 0.123171582 8.684910494 0.194766753 -0.001718476 0.154934576 5.208248788
8.897850719 -0.152847662 -0.031310016 -0.091340222 8.836750394 0.190870047 -0.014884014 0.151834794 5.205415162
8.866587039 0.425824551 0.181814841 0.254468460 9.170202489 -0.156122787 0.086430320 -0.124193773 5.315875098
9.076184626 -0.258695426 0.120853953 -0.154593779 8.477378581 0.334351776 0.057451007 0.265972759 5.244504851
9.524343099 0.087935002 -0.046429973 0.052549071 7.832105474 0.052620267 -0.022071672 0.041858781 5.179368548
9.358301484 0.200431498 0.031106252 0.119775843 8.794761886 0.209427320 0.014787150 0.166596878 5.238776739
9.523614995 0.131081457 -0.011652302 0.078332957 8.056148009 0.090498331 -0.005539219 0.071990318 5.175655137
8.926974215 0.372515637 0.261485615 0.222611590 9.114148916 -0.109571933 0.124303853 -0.087163137 5.287321298
8.333016077 0.338699677 0.054406452 0.202403513 9.157702373 0.006384535 0.025863494 0.005078820 5.456467929
9.421309336 0.206917927 -0.007533733 0.123652068 8.629230523 0.185547711 -0.003581352 0.147600941 5.206013796
8.359618855 0.585272752 0.211999743 0.349753098 9.143534427 0.027729289 0.100779483 0.022058311 5.204182710
9.478613623 0.054864623 -0.001697462 0.032786546 7.094926085 -0.093963317 -0.000806932 -0.074746672 5.194116716
8.425872514 0.693888366 0.055885890 0.414660694 9.381274140 -0.257564427 0.026566783 -0.204889360 5.244308054
9.498357241 0.065854994 -0.018889165 0.039354281 7.503488420 -0.031795925 -0.008979446 -0.025293271 5.181326760
9.473250305 0.059454102 0.009179746 0.035529172 7.163951398 -0.088065592 0.004363826 -0.070055105 5.185911236
8.525101843 0.066114764 -0.063115848 0.039509516 9.058737195 -0.209793271 -0.030003727 -0.166887988 5.314817466
8.328466966 0.517260954 0.191624576 0.309109933 9.170201344 0.030928902 0.091093627 0.024603564 5.279089713
8.429923113 0.184028641 -0.036587397 0.109973661 9.104678068 -0.132737196 -0.017392752 -0.105590821 5.441646625
9.646740815 -0.039686664 -0.063985318 -0.023716350 6.635096813 -0.090264111 -0.030417052 -0.071803999 5.184265600
10.225082693 -0.023262843 0.026107831 -0.013901640 6.124351509 0.077494028 0.012411023 0.061645554 5.069108608
8.705989838 0.511936011 0.066837627 0.305927801 9.190192799 -0.216017580 0.031772970 -0.171839350 5.302739563
9.503107878 0.182603006 0.028665732 0.109121716 8.318754733 0.133493890 0.013626986 0.106192761 5.211854944
9.391687939 0.205794951 0.000908162 0.122980989 8.714438610 0.199764555 0.000431718 0.158910267 5.213223599
9.548788352 -0.001715877 -0.047000723 -0.001025391 6.836564135 -0.117394040 -0.022342992 -0.093385527 5.202548701
8.811202038 0.457216897 0.124095463 0.273228210 9.189402760 -0.178455533 0.058991942 -0.141959200 5.310987510
8.435443551 0.693021806 0.035880887 0.414142847 9.395591572 -0.284716962 0.017056894 -0.226488871 5.251063209
9.418386145 0.206768340 -0.007297462 0.123562676 8.637521853 0.186854432 -0.003469035 0.148640421 5.205910927
9.059569773 -0.246688024 0.085146932 -0.147418277 8.573414311 0.398233493 0.040476765 0.316789887 5.242904351
8.724502509 0.495607761 0.079457672 0.296170203 9.188032479 -0.205629335 0.037772230 -0.163575628 5.301002846
9.505730504 0.067357439 -0.025810091 0.040252127 7.570405839 -0.013272827 -0.012269485 -0.010558372 5.180835127
9.776186853 -0.064139518 -0.014197424 -0.038329130 6.410729352 -0.015579384 -0.006749107 -0.012393210 5.183541250
10.310840587 -0.000504183 0.005151255 -0.000301294 6.145349847 0.051628935 0.002448781 0.041070188 5.003627834
9.076332072 -0.256328379 0.111913542 -0.153179256 8.491942493 0.356422068 0.053200955 0.283529407 5.239085116
8.975358205 0.310525831 0.338094839 0.185567107 9.019921771 -0.024093198 0.160722001 -0.019165845 5.241962105
10.401150464 0.000378062 -0.001731275 0.000225926 6.214604422 0.002295355 -0.000823006 0.001825927 4.946408127
10.288851429 -0.005233358 0.011305380 -0.003127402 6.134435004 0.059672870 0.005374301 0.047469040 5.021705682
8.507834050 0.090618348 -0.062775134 0.054152611 9.072386566 -0.207024887 -0.029841760 -0.164685773 5.344129894
10.231858181 -0.021329808 0.024718647 -0.012746478 6.123959871 0.076060938 0.011750639 0.060505548 5.064384005
8.951793683 -0.179750107 0.028047147 -0.107416852 8.769765210 0.248001271 0.013332926 0.197281987 5.211481297
9.516697856 0.168827675 0.015284540 0.100889717 8.216127894 0.115581472 0.007265896 0.091943651 5.206648805
8.467792977 0.139165809 -0.058564058 0.083164085 9.090916040 -0.180265650 -0.027839918 -0.143399126 5.400370521
8.390336207 0.681623871 0.154120760 0.407331556 9.251172178 -0.094423256 0.073265233 -0.075112549 5.178140270
9.389186953 0.205673961 0.002330920 0.122908686 8.721571098 0.200922800 0.001108062 0.159831637 5.214872422
8.958557821 0.330699369 0.315408291 0.197622610 9.052434953 -0.054575579 0.149937372 -0.043414207 5.251718724
8.459632664 0.685297334 0.001634938 0.409526780 9.405631251 -0.334570242 0.000777209 -0.266146547 5.263179702
9.326547034 0.193368832 0.073558330 0.115555265 8.835873736 0.210605517 0.034967827 0.167534120 5.252006746
8.398593551 0.692875700 0.127633125 0.414055535 9.307183537 -0.152958314 0.060673660 -0.121676473 5.194718787
8.619217120 0.605127260 -0.024118691 0.361617952 9.275839442 -0.314352483 -0.011465435 -0.250063566 5.297394772
9.507446410 0.178900121 0.026766744 0.106908909 8.290149532 0.128103723 0.012724254 0.101904949 5.211962768
9.521168433 0.157886366 0.004522382 0.094351301 8.158015243 0.106662786 0.002149829 0.084848946 5.196028417
9.064082854 -0.248362764 0.082468247 -0.148419084 8.561165127 0.402059990 0.039203384 0.319833818 5.240170552
8.700240564 -0.055387981 -0.142317319 -0.033099299 8.978967139 0.007784346 -0.067654166 0.006192352 5.268369264
10.381444584 0.003498331 -0.007286661 0.002090567 6.199174439 0.016915676 -0.003463900 0.013456214 4.950027544
8.478015405 0.127779627 -0.061269080 0.076359817 9.087058088 -0.188846348 -0.029125819 -0.150224966 5.387822506
9.060295701 0.254538446 0.364725111 0.152109610 8.930330320 0.079998541 0.173381380 0.063637863 5.250122763
8.768908489 0.473542132 0.099296208 0.282984005 9.189950564 -0.191301317 0.047202984 -0.152177864 5.305279715
8.370546544 0.649875929 0.199124261 0.388359305 9.165422946 -0.016852692 0.094658794 -0.013406111 5.171383974
9.478980178 0.065065921 0.007899485 0.038882738 7.317875054 -0.070664148 0.003755221 -0.056212468 5.174625343
9.146765980 0.208134211 0.323985637 0.124378907 8.887852654 0.154955433 0.154014832 0.123265157 5.269028719
8.409842670 0.695228159 0.093794472 0.415461341 9.349232234 -0.208073999 0.044587594 -0.165520329 5.223339411
9.494781041 0.065864772 -0.014937755 0.039360124 7.470876286 -0.040276129 -0.007101043 -0.032039169 5.180584612
9.299018195 0.191075307 0.115387447 0.114184677 8.855922378 0.209661246 0.054852364 0.166782964 5.257382006
8.313474730 0.465622979 0.141950815 0.278251599 9.175044564 0.026776464 0.067479939 0.021300351 5.361554149
8.892621711 0.405485771 0.214288027 0.242314210 9.151960607 -0.141617560 0.101867277 -0.112655042 5.310264837
9.141825186 0.210296285 0.328242254 0.125670940 8.888879184 0.151644123 0.156038324 0.120631050 5.267877713
8.491035885 0.112539507 -0.062926573 0.067252475 9.081476374 -0.198067325 -0.029913751 -0.157560141 5.370273085
8.312468846 0.445585586 0.125871173 0.266277455 9.172620893 0.026451688 0.059836071 0.021041995 5.386812674
9.469369078 0.203536603 0.008056409 0.121631423 8.481203049 0.164196842 0.003829819 0.130616585 5.210327432
8.872232826 -0.141743331 -0.054481830 -0.084704386 8.861890827 0.168734760 -0.025899327 0.134226444 5.207566624
9.721583967 -0.057008477 -0.033914246 -0.034067691 6.493729480 -0.045689550 -0.016122001 -0.036345480 5.177544075
10.031841913 -0.060725682 0.059803757 -0.036289056 6.190113676 0.075341408 0.028429241 0.059933171 5.169264730
9.500787480 0.066075871 -0.021285334 0.039486275 7.525521324 -0.025812125 -0.010118526 -0.020533231 5.181435856
8.820824668 -0.118035256 -0.093457983 -0.070536680 8.905742136 0.126311427 -0.044427635 0.100479199 5.218517942
9.522120778 0.082208804 -0.045488645 0.049127153 7.759499486 0.037187480 -0.021624187 0.029582187 5.179473476
9.197228365 0.194010646 0.268830347 0.115938807 8.882876223 0.182407341 0.127795359 0.145102815 5.276608641
9.611849426 -0.029780872 -0.067824684 -0.017796749 6.700832389 -0.107394340 -0.032242193 -0.085430888 5.194292894
9.230751491 0.191404434 0.223076791 0.114381360 8.879783532 0.195499116 0.106045240 0.155517163 5.274591714
8.450556360 0.689025083 0.011509530 0.411754446 9.405614896 -0.320900809 0.005471349 -0.255272679 5.258863670
10.386171837 0.002981478 -0.006664817 0.001781701 6.203055494 0.013545729 -0.003168291 0.010775462 4.948252185
8.795891360 -0.104474786 -0.110153681 -0.062433079 8.925252507 0.104225259 -0.052364361 0.082909922 5.227357103
8.754496788 0.479495674 0.092937179 0.286541782 9.189047984 -0.195432381 0.044180057 -0.155464075 5.303434222
8.663250784 0.567655900 0.010923834 0.339225445 9.222858585 -0.267749149 0.005192923 -0.212991182 5.314039166
8.510263394 0.087197829 -0.062646774 0.052108544 9.070791442 -0.207944769 -0.029780741 -0.165417528 5.340012013
9.989016234 -0.067345470 0.058972565 -0.040244974 6.212763282 0.067193470 0.028034112 0.053451586 5.176636457
8.815577439 0.455349299 0.127527177 0.272112152 9.188805823 -0.176959725 0.060623295 -0.140769303 5.311583882
8.408900348 0.216610695 -0.020564203 0.129444368 9.114721304 -0.094128604 -0.009775718 -0.074878157 5.461597759
8.705769927 -0.057771005 -0.142229501 -0.034523370 8.977120567 0.013812209 -0.067612419 0.010987444 5.266454286