4.9224198011 0.6164930790 2.6358819800 2.9177169338 7.7485495990 5.3924809997 1.9303550781 3.1595281074 2.4494928896 6.4545045351 1.7596230957 0.3896823883 7.4064366497 6.0267384301 2.9927389644 1.6443992700 6.3832776112 2.8148555202 3.3535831060 1.9089087973 5.1019064908 7.7446394935 2.9464152897 3.0941625479 6.0094490999 7.4022205238 0.3632707398 1.9133032332 6.5839845257 4.3276224877 3.0686762892 2.0807856558 1.4495112387 6.8784859376 1.9547053010 2.2654836409 6.4252629751 7.2240173839 4.0921909491 4.4790393370 7.2645514461 0.6195220623 0.1237623409 2.9207910827 2.1880970032 4.8749341659 2.0562575316 4.7340466231 9.1209535579 6.6996009949 3.0450102814 2.3637744166 7.5392415222 2.0313081894 2.7837864514 0.5421639897 4.7072946449 6.8426569394 4.2125911565 3.1793436135 6.9144372450 6.4878909799 1.2388220667 8.0100099709 2.3779753849 4.5274699765 6.2985654992 8.8913195284 0.8476314671 2.1125288866 5.0164269108 2.2202957571 2.4808677538 2.9905435167 4.4346398920
4.9124247423 0.5339005259 2.8016462110 2.8749860055 7.6460945335 5.4309871532 1.8909592034 3.3287897781 2.5395612975 6.0557319234 2.0652269899 0.1431666396 7.1213910977 6.4102003658 2.2312509151 1.7480786427 6.2512392311 2.6186933288 2.8934418402 1.6406320557 5.0433136242 7.3255689069 3.3771381032 2.9307666189 6.0789718056 7.8739879838 -0.2914280953 2.1454798269 6.6093004215 4.0555682233 2.7092395422 2.0536525478 1.2600406444 6.4489149925 2.6147236786 1.9036054815 6.0630829455 7.6204714820 3.4425698556 4.7040420802 7.8110473549 0.3394968826 0.0607769489 2.9832703202 2.3892569588 4.3536826878 1.8362654600 4.5930997428 9.0302305589 6.2399515974 2.5460451009 1.9272473790 7.4681269072 1.7055860156 2.6606399575 0.1475774623 4.7752654926 6.7022584631 4.7973330435 3.0372449357 7.0415271932 6.7860998640 0.2753793784 7.3357364013 2.6167292346 4.2977622083 6.6012168182 9.2799093041 0.1556365479 2.6518375632 5.0561341094 2.1638003665 1.9956489050 2.4898801182 4.1880578312
4.9259964878 0.4923726755 2.7967948262 2.8695668296 7.6467416391 5.4323574571 1.8695974564 3.3325838841 2.5270594389 6.0741451173 2.0510512195 0.1244381483 7.1210443953 6.4463415754 2.1880940678 1.7442103837 6.2309615445 2.5956020560 2.8742661747 1.6347269344 5.0939384657 7.3017000857 3.3976078982 2.9370441280 6.1143311451 7.9284008093 -0.3304437390 2.1618738252 6.6418040671 4.0452578244 2.7122646633 2.0664316655 1.2832969274 6.3952597289 2.6597437759 1.9029614750 6.0542890961 7.6522560495 3.4160984381 4.7186017558 7.8240554249 0.3406153855 0.0551110997 2.9401672197 2.4034916798 4.3463628105 1.8185488233 4.5843267096 9.0100627046 6.2142923983 2.5648674690 1.9398497940 7.4630738772 1.6980302714 2.6318572860 0.1076841084 4.7846088170 6.6998696461 4.8139231661 3.0039635011 7.0300783407 6.8423034215 0.2168653955 7.2861918285 2.6451965698 4.2744838421 6.5981003484 9.3348702668 0.1408760565 2.6638867314 5.0503740312 2.1514108774 1.9097196782 2.4310621128 4.1703700966
4.8828666363 0.1489033275 2.4903071687 2.6723655065 6.1116713102 5.0651894312 1.9996607945 2.6357037401 2.4298850894 6.8502427565 1.5226365308 0.0434312296 7.5600555364 4.8991331473 2.7138078633 0.9960795023 5.6236174540 2.3296920080 3.6168502760 1.8195916522 4.8545181291 8.4901730829 1.8181594200 2.9250632621 5.9057346430 5.5816924522 0.1786414017 1.3382075693 5.5803720049 3.8345702212 3.3735643212 1.8900668118 1.2157099918 8.1179379552 1.8643359956 1.4313526505 6.0174176234 5.4217568586 3.7799155755 4.3400904125 5.4406379825 0.5210886366 0.5179449736 1.5958262137 3.1746441242 5.1725725025 1.8315641651 4.6006406382 8.9838160476 5.9515023825 2.1153861542 1.8152307183 6.6873799055 1.5071426480 3.2197326187 0.3959157420 4.2387491558 8.0576375385 3.2131136467 3.5047261497 6.7096784512 4.5165997759 0.9541339839 7.6448695147 0.7362055622 3.6483780285 6.3347662575 7.0581625079 0.5412205765 1.4304864032 4.2258551247 1.7067889937 2.8996011428 2.9245545196 4.0353712041
4.6534813811 0.4751940749 2.7914733240 2.9369378922 7.5176442064 5.4230558620 1.9585436978 3.2472618203 2.3308642546 6.8503356103 1.3117959269 0.1494052835 7.4936503513 6.0029420185 2.7873690125 1.2485148111 6.4461252671 2.7705179007 3.6543132636 2.1972243722 4.9987253845 8.2567730561 2.6996631381 2.7181224867 5.8992097488 6.7692918926 0.2818622904 1.8929206270 6.5688923658 4.1630085948 3.2149850896 2.1938398739 1.2957574379 7.0773957200 2.3193937029 1.7492356916 6.4231657850 7.0282998137 4.0057689589 4.4214452793 6.3089726397 0.1344432183 0.2438269076 2.2524675788 2.1406721246 5.1537934926 2.3287036311 4.8800820473 9.1491519097 6.8870701971 2.9935353505 1.9028614258 7.4961162455 1.7976206165 3.3764958210 0.6904766935 4.7039726455 8.0806879232 4.2003913751 3.1167556447 6.7414191641 5.7677888413 1.1199027963 8.0913469136 1.7569838257 4.0030455977 6.0748750824 8.2181194690 0.9277967566 1.5098631054 5.0666650417 2.0593351321 2.9231060648 2.9785543476 3.9147010210
5.3161519873 0.3112665595 2.7614258817 3.2171433893 6.6897709351 5.8576687367 1.0521496438 2.2833579822 2.3464460539 5.5148678987 2.1844940233 0.0779292651 7.8296890280 6.2799450239 3.1855058730 1.9160562157 5.3241340694 3.3793443842 2.6038526741 1.2741134738 5.0279197010 7.0982077762 3.3723966984 2.5950071358 6.3289874851 7.5032889785 0.5047597061 2.8643535253 5.3740613085 4.6277758099 2.1132499596 1.0804880695 1.2523827526 5.9179229771 2.7131466667 1.8168317489 6.5559058340 7.2429315773 4.3100223234 5.0050551469 6.9170085485 1.0670840490 -0.7331286392 2.7065071395 2.1057149036 3.7812318053 2.2199949562 4.6419226843 9.5952544536 5.7194909557 3.7878472013 2.5396615422 6.3305285072 2.3507186861 3.0946441296 -0.0915773424 4.6735431495 7.2876145546 4.8241741528 2.1283322241 7.3932582177 7.3716298939 1.6140501067 6.6736863901 3.5332851973 4.0728388049 6.1954317299 9.0296871628 0.3154901404 1.8095355255 3.9617287355 2.6626902014 1.3040982821 1.5021430085 4.1221002915
4.9379347443 0.6794231093 2.6924612202 2.9150705092 7.6352693087 5.3481322693 1.9944593731 3.2333702675 2.4422823255 6.2463027601 1.9784401724 0.3550655357 7.2937366435 6.1430584042 2.7233478330 1.6851306543 6.3456896580 2.7166006495 3.1515956140 1.8681211049 5.0747177568 7.6192069141 3.1170219015 3.0633059516 6.0809011546 7.6033782705 0.1464388869 1.9490645299 6.5385419711 4.2561313048 3.0375969060 1.9260087374 1.3887299472 6.7953538997 2.1544756078 2.1428359022 6.3669637610 7.2556043587 3.8927719284 4.5622533906 7.3760992938 0.5281569577 0.0393585292 3.1258321724 2.1331417810 4.7338931479 1.9552089110 4.6856759703 9.0872719572 6.5900718991 2.8647446037 2.2876757721 7.5620477073 1.9326814113 2.7088956699 0.4459115861 4.5629869773 6.8016590512 4.4203078023 3.1636855555 6.9024565625 6.5289761441 0.8994880680 7.7309964171 2.4353801541 4.4257584234 6.5193369598 9.0762967383 0.4058793601 2.4131311757 5.0555947338 2.1904102149 2.3429729115 3.0073814958 4.3377857607
4.7262331275 0.5336715794 2.2862202567 2.9571419535 7.7644302518 5.2835748625 1.5134274766 3.1566627782 2.5307931486 5.9958697141 2.2742194718 0.0518759945 7.1061883995 6.8076744383 2.0368291852 1.8566006496 6.1893494511 2.5586585776 2.7834150589 1.6780661524 5.1727486978 6.7896737491 3.6485286547 2.6400301627 6.4199521852 8.3332789800 -0.4215846310 2.3982477672 6.5374721632 3.9933888947 2.6758070967 2.2242751588 1.4065090020 5.7281921925 2.7515805875 1.9375175350 6.2526124888 7.9620737277 3.3027824268 4.9635561104 8.0794319991 0.1992643139 -0.2419098589 2.8008336317 1.9494756648 4.2191809823 1.5558468218 4.6085954365 8.7699949263 6.7544045011 2.6683737201 2.1611186770 7.3917816967 1.6254665614 2.1301470679 0.2056818617 5.0125923667 6.3873492311 5.1079635449 2.3770185086 7.2805650957 7.1910007877 0.1220781349 6.7860061264 3.3107712794 4.1398149005 6.7518793249 9.7888972887 0.1368504677 2.3947339811 4.8036588709 2.1477218988 2.0368100414 2.8039527576 4.3448124670
4.8442392391 -0.1460357332 2.7537743473 2.5477622217 5.3318586117 4.9326967271 2.1696418356 1.9234444059 2.7135559523 7.2019136018 1.5488877413 -0.1794456469 7.4132857666 4.3464009612 2.5812799515 0.9619894268 4.7703730712 2.1625069718 3.7751458259 1.7956709656 5.0035073912 8.6194120633 1.3255010058 2.6539371869 5.8552084873 5.0777235747 0.3033543988 1.2338646579 4.9963282831 3.6789179150 3.6581666671 1.6692765634 1.3348944687 8.5048413437 1.6751561705 1.1557775138 6.1582863991 4.8196301486 4.0079294342 4.3535582357 5.1102096387 0.6387896902 0.4089762201 1.2580026957 3.1459370692 5.3084316985 1.8551084585 4.6407497318 9.1467037912 4.8497232272 1.8444195128 1.6460362670 5.9145649664 1.3464520008 3.1710453184 0.5235110065 4.0874388831 7.9183696976 2.6100819430 3.2544533672 6.5335387157 3.8370654852 1.0002024430 7.8309536282 0.2958946731 3.4441655042 6.5495849019 6.3298262035 0.9156247510 1.6268971770 3.4518257607 1.6675473055 3.0543666809 3.0735276625 4.4105249458
5.2541914144 0.2474736383 2.7887884645 3.1984595568 6.7177959495 5.8612107554 1.0535925910 2.2987743686 2.3282666858 5.5413634117 2.1716003675 0.0718468837 7.8214888888 6.2860186155 3.1783354131 1.9351939806 5.3386984269 3.3650307909 2.6085889370 1.2759314361 5.0417525575 7.0722430102 3.3780596006 2.5999028426 6.3294251065 7.5341971440 0.5219417940 2.8529417149 5.3733980544 4.5948518496 2.1847359462 1.1041302570 1.2733112834 5.8664953417 2.7414790547 1.8197376866 6.5662802762 7.3091488197 4.2825280610 4.9803559591 6.9344178332 1.0043549500 -0.7390640016 2.7471635403 2.1022424810 3.8014761668 2.2396559761 4.6534395676 9.5573265366 5.7048729528 3.7239176491 2.5446406059 6.3484453926 2.3496217985 3.1472141524 -0.1057021372 4.6813022704 7.2356509256 4.8360545530 2.1209819960 7.4308840406 7.4237288733 1.5986982642 6.6741316157 3.5315860343 4.0877226790 6.1755054540 9.0439451104 0.2972666936 1.8283064674 3.9242508282 2.6765855832 1.3080645549 1.5320438290 4.1357593587
4.9104624465 0.5405361362 2.8019256344 2.8760037878 7.6462859856 5.4304549021 1.8946384520 3.3281759315 2.5411229655 6.0530019951 2.0672670583 0.1463894312 7.1222683021 6.4048312676 2.2381352323 1.7491424992 6.2542581823 2.6227561434 2.8967855137 1.6403126966 5.0356389431 7.3302419110 3.3742430400 2.9294380706 6.0750893995 7.8659258342 -0.2856182862 2.1423884347 6.6036541610 4.0578573497 2.7090317975 2.0528204921 1.2576050789 6.4575623185 2.6059586303 1.9037683070 6.0655381972 7.6154568596 3.4465037729 4.6997230923 7.8073161125 0.3406267460 0.0614247963 2.9900059687 2.3856103430 4.3582894434 1.8410240402 4.5946114372 9.0322658016 6.2453771916 2.5433215144 1.9258782182 7.4709158730 1.7061294949 2.6637849208 0.1535830183 4.7736301472 6.7023924003 4.7939529312 3.0434668841 7.0436513662 6.7767056220 0.2867256871 7.3445095649 2.6129813268 4.3004257001 6.6029422148 9.2727165470 0.1574432888 2.6502603287 5.0563017987 2.1659776049 2.0094538400 2.5010071696 4.1919543076
5.2644834347 0.2578804837 2.7844947632 3.2013336387 6.7126752643 5.8609255742 1.0531922240 2.2966826094 2.3308616565 5.5370524060 2.1734673054 0.0734450889 7.8229485435 6.2846155221 3.1800076082 1.9328189019 5.3357894254 3.3685547632 2.6091827875 1.2747791212 5.0410482878 7.0767078943 3.3768465581 2.5998750073 6.3296074941 7.5293544219 0.5195437697 2.8553896799 5.3745014857 4.6003757507 2.1736473148 1.0995362445 1.2688051820 5.8756736227 2.7373554809 1.8189768007 6.5634631937 7.2989669414 4.2867222479 4.9842827919 6.9317397540 1.0142034451 -0.7371385410 2.7403592256 2.1020455852 3.7982939063 2.2359220572 4.6513068828 9.5640397254 5.7074594109 3.7338809101 2.5434211630 6.3455259774 2.3505148477 3.1382688241 -0.0995739597 4.6803220026 7.2437984196 4.8343391361 2.1233332779 7.4243394206 7.4154224175 1.6020452913 6.6743074506 3.5332436078 4.0846300098 6.1797550988 9.0387387401 0.3011522028 1.8243739334 3.9282589781 2.6735578926 1.3060433457 1.5267019905 4.1333679208
4.4542799922 0.7076059913 2.5943917484 3.1625908341 7.7292859077 5.3466834475 1.5546867060 2.9826746604 2.6626158841 5.8307968199 2.1557351216 0.1011459858 7.1227477926 6.6782669596 2.6604683814 2.0342997220 6.1592172100 2.8994899716 2.7075633939 1.5829511464 5.2252761151 6.5656002341 3.7236340960 2.7374429701 6.2897220578 8.2714669966 0.0381069720 2.8567335725 6.3200137285 4.2108247812 2.5598841484 1.6968338378 1.6008762458 5.8303655942 2.5336943295 2.0385328623 6.1358449566 7.9797627660 3.7380658494 4.8418785001 8.5034227939 0.7120365109 -0.2796382055 3.0737371275 2.1802931364 4.2006798090 1.6008992881 4.6969186223 8.9191016996 7.1705580077 3.3085225403 2.6067223865 7.1622527212 1.8760290850 2.0463284697 0.2008768327 4.8427831272 6.1053156484 5.1512801068 2.3114488943 7.1139980145 7.1822318857 0.7616628730 6.2148898435 3.6615740946 4.2471137584 7.1070497515 9.6169274657 0.2223776287 2.1627173479 4.6846502934 2.4949690066 1.8862895485 2.7464990701 4.6252202665
3.9011364555 -0.5064991468 2.9905308839 3.0984155328 7.0979603700 5.5149552052 1.3792055836 2.8150502978 2.6428672699 5.4136298112 2.1522073683 -0.1139436180 7.0959579870 6.5541449022 2.2586074186 2.0118701838 5.8227512624 2.8119383645 2.3445834097 1.1951535274 5.2056534098 6.5571122506 3.3823372347 2.5197348943 6.2608445515 8.0900982224 -0.2674901918 2.7989948342 5.9554664960 4.1225257623 2.0266450078 1.5019308390 1.3238260876 5.5749267365 2.4335539317 1.7298238221 6.0692025521 7.0996554578 3.8578898997 5.0370068424 7.7683002783 0.7592688031 -0.4744936813 2.9170877765 2.1125124738 3.6356998042 2.0126084545 4.8162196863 8.9895484508 6.2695738060 2.9762071113 2.5028878643 6.9723114068 1.8572063069 2.4998709264 -0.3556265253 4.9227310102 6.2350708931 4.8781474225 2.2627758411 7.4916727049 7.6367820103 0.5952725283 6.3507800244 3.0676999871 4.0429787687 6.2436649286 9.5949087507 -0.7034671985 2.3361434577 4.3962740357 2.3347778109 1.3021312859 1.7186361386 4.2491177212
4.9201854041 -0.0356488674 2.8689322451 3.1313001542 6.8368695457 5.7236837716 1.0738791612 2.3113120581 2.2834197109 5.6084735407 2.1831606517 -0.0217259888 7.7352314794 6.3538746136 3.0165382890 1.8849435334 5.4033684209 3.1928371163 2.6593433975 1.2718927472 4.9757149151 6.8552217193 3.4428950483 2.5004659610 6.3331377327 7.6936621556 0.3899285260 2.7206351998 5.4055198981 4.5426560249 2.3539879108 1.2304463545 1.2856275114 5.6155663728 2.7545149110 1.8502011221 6.7610430027 7.4330103009 4.2081211325 5.0552355532 6.9693249684 0.8754740623 -0.7828093702 2.8230893479 2.1479844713 3.7933460767 2.2552281470 4.6746388636 9.3965178592 5.6186231262 3.4840583866 2.5797618868 6.4483664517 2.2510375802 3.1336024312 -0.1395331289 4.6642855441 7.0103756792 4.8908927822 1.9838575918 7.4928072803 7.5706038515 1.3723667719 6.6803477031 3.3820527028 4.0400005192 6.0095258215 9.1744604807 0.1545983716 1.9996771216 3.9578982549 2.6725259534 1.3888130613 1.6434481559 4.1368453417
4.0380525526 -0.2318486394 3.1114801472 3.1428098942 7.2949863154 5.6135699648 1.4542083775 2.8926336678 2.7643068463 5.4801300159 2.1486583401 -0.0575380716 7.0921035782 6.6416766175 2.4338294777 1.9751369804 6.0007868421 2.9291079948 2.2928011388 1.3127051598 5.3606619656 6.5434886503 3.4756697686 2.6603249254 6.2435978598 8.0912194229 -0.1586501057 2.8853271088 6.0402577854 4.2003173329 2.0074979085 1.5500950043 1.3868428018 5.6688140086 2.5417105646 1.7654664517 5.8655684013 7.2170063313 3.9811828656 4.9488181472 8.0631871432 0.7279516483 -0.3625959532 3.0085665244 2.3046716118 3.6761324720 1.9459156029 4.9197850930 8.8206576533 6.3980094770 3.1282265292 2.5743021828 7.0254306829 1.9224148924 2.5150744847 -0.1239536746 4.8933355121 6.1884302391 4.9647735830 2.4733813816 7.4126872831 7.4957029265 0.6602038717 6.1610593498 3.2084286721 4.1206922754 6.4346138176 9.5746754561 -0.6140329167 2.1466922354 4.5584648216 2.3185669040 1.2560357558 1.9443564812 4.3668341316
4.9323297366 0.6387763669 2.6440728803 2.9257513757 7.6981721795 5.3612873510 1.9446286711 3.1761747201 2.4339763207 6.3935579721 1.8290350020 0.3969218358 7.3619426164 6.0411818069 2.9222981590 1.6724804006 6.3785990090 2.7894692017 3.3081032534 1.9198023452 5.0667724073 7.6998655892 2.9824845051 3.0749059217 5.9872712436 7.4406567319 0.3299241895 1.9061930878 6.5820366372 4.2907374428 3.0877060557 2.0007661235 1.4153786597 6.8393669323 2.0104693000 2.2257838408 6.4158172968 7.2222230731 4.0490207030 4.5012334081 7.3271740322 0.5787241033 0.1134073321 2.9877500130 2.1937838246 4.8061846138 2.0064653038 4.7517312883 9.1238894458 6.6581585989 3.0141610080 2.3668470295 7.5178894469 2.0121631367 2.7572003394 0.5318112224 4.6616829946 6.8218894131 4.2752726567 3.1656404696 6.9319920799 6.5061453050 1.1583292054 7.9428321791 2.3862776547 4.5142148155 6.3437300359 8.9072717793 0.7165207464 2.1756367383 5.0324946580 2.1944337337 2.4320219049 2.9910291678 4.4221862652
5.2048482082 0.1637124353 2.6046682077 2.7454948529 4.8867830061 5.0458404291 2.3270990008 1.5712871231 2.8751970564 7.4690699629 1.3939627786 -0.0614308838 7.8682516476 4.5280646333 2.7706173150 0.9853693036 4.4165693285 2.2670474925 4.0691593572 1.9091937902 5.0780985320 9.1354594962 1.4542973319 2.7529023412 6.0061651851 4.7289839853 0.3563313163 1.1831787227 4.9075403834 3.7219378956 4.0396071886 1.6386948102 1.4390781261 8.8562787744 1.6170729239 1.2411399964 6.1467554164 4.6469983007 3.9577511172 4.4699610354 4.9655872436 0.7236596796 0.4461680539 1.3694434895 3.1960655856 5.5359496991 1.8883853695 4.4715198882 9.6315230757 4.1518854743 1.9956922566 1.6150671560 5.5970238503 1.3793983828 3.2651224882 0.6924267231 4.3503378215 8.4535034569 2.6363882332 3.6192733743 6.6728939233 3.6781916760 1.2835618774 8.1951633777 0.2150515749 3.2937305907 6.8259528654 5.9995727196 0.9024106497 1.8072315737 3.1607642323 1.7061388147 3.3348952936 3.1258007325 4.4538821857
3.8510785544 -0.6453525270 2.8936012711 3.1163259900 7.0153222438 5.4957607010 1.3166336566 2.7371851582 2.5619087204 5.4238986038 2.1786092556 -0.1377366636 7.1335931453 6.5256537512 2.1883470861 2.0014073131 5.7758780222 2.7633337150 2.3517965822 1.1370064024 5.1267470824 6.5650621648 3.3352920309 2.4981782510 6.2531747036 8.0348492404 -0.1998789788 2.7697687651 5.9091258195 4.1109795627 2.0794515944 1.4894666151 1.2640791606 5.5341812177 2.4331785498 1.7406253038 6.2121968561 7.1050814556 3.7387235223 5.0104764841 7.6178093809 0.7066456493 -0.4918686722 2.8821496388 2.0276627400 3.5981120162 2.0300122348 4.7460837480 8.9875720127 6.1846017406 2.9061532842 2.5202734758 6.9071410710 1.8247710707 2.5254801274 -0.3499351272 4.9199349561 6.2628874532 4.8029066114 2.0866209922 7.5210902640 7.7273086498 0.6254311802 6.4770935019 3.0219037427 3.9993720453 6.1770222896 9.4953384578 -0.6991653105 2.4512028202 4.3283559046 2.2787743086 1.2426114239 1.6706683218 4.1405917516
4.8335245362 0.4159088217 2.5890819710 2.7493480155 6.8949206707 5.3049299017 1.9947004662 3.0484563793 2.2607519314 6.8155327586 1.2269578766 0.2275910711 7.6203265719 5.3799559194 2.7046052236 1.0879817313 6.1727402979 2.5807629101 3.7032973886 2.0390757145 4.9026582445 8.4375255865 2.4336556982 2.8831444108 5.9024457340 6.2006624468 0.1871106223 1.7688706308 6.1550304322 3.9676019222 3.3354622654 2.0864085707 1.2232549983 7.7337112921 2.3459109117 1.4922146759 6.2528929460 6.3760970865 3.8746496280 4.4034312432 5.8645454970 0.3989206552 0.3993334985 2.0178544590 2.5645477311 5.2847314263 2.2580938215 4.7803578463 9.1243485591 6.6192376210 2.5889106146 1.8697589288 7.2188211766 1.7200209348 3.6029088629 0.4902710271 4.4833572042 8.3008647108 3.8591140915 3.4924680148 6.8401495266 5.2466188955 0.9496786488 7.8259968738 1.3465816785 3.7800047081 6.0699193424 7.6708774369 0.8097813525 1.2764333264 4.7532179098 1.9972542149 2.8295411916 2.8999681900 3.9391614032
3.9857574940 -0.3275784597 3.0824578649 3.1181756224 7.2209837104 5.5759181515 1.4353312130 2.8772760115 2.7268251694 5.4481316915 2.1453789651 -0.0731839784 7.0889948355 6.6049593893 2.3730178228 1.9879066109 5.9332559307 2.8823166644 2.3261288941 1.2819793888 5.3413289211 6.5410558283 3.4342222387 2.6032787872 6.2543923969 8.1002770229 -0.2147620826 2.8765620565 6.0096985158 4.1903717158 2.0100890628 1.5301095722 1.3482666604 5.6378117922 2.4931568854 1.7526786222 5.9118983083 7.1597350943 3.9778196502 5.0294155692 7.9654250874 0.7316461759 -0.3890281640 2.9736231442 2.2336119471 3.6345157750 1.9507959341 4.8886982476 8.8852967537 6.3418075279 3.0730415938 2.5403292590 7.0078790403 1.9059682235 2.5202645138 -0.2322075861 4.8949935185 6.2041590448 4.9396338677 2.4329032088 7.4302117276 7.5400991293 0.6259639239 6.2172142793 3.1609022734 4.0924057393 6.3491064211 9.5887901571 -0.6437407556 2.1931072875 4.4849459770 2.3412212933 1.2752359214 1.8613400233 4.3073737177
4.8511223071 0.0995458897 2.5495493751 2.6819927340 5.9844335186 5.0224872600 2.0000508289 2.5597360119 2.4408561640 6.8898562267 1.5651731174 0.0140903772 7.5283147014 4.8340858407 2.7371626587 1.0268357573 5.5069315024 2.2932812545 3.5912690239 1.7591915679 4.8692354376 8.4901187325 1.7325614643 2.9035207187 5.8402023838 5.5043406784 0.1599150209 1.3730932162 5.4911913664 3.8003350731 3.3681510999 1.8916040925 1.2171791308 8.1695997945 1.7204733015 1.3862921155 6.0116626306 5.3456322564 3.8164136743 4.3404756086 5.4112526022 0.5048947622 0.5470203185 1.5762134612 3.1949807452 5.1249408891 1.8263712445 4.6211798596 9.0064321633 5.7796476142 2.0418858692 1.8118193802 6.5557400293 1.5028182056 3.1528591503 0.3556464803 4.2391299371 8.0550712459 3.0978045168 3.5934918132 6.6187757270 4.3719637550 0.9400735002 7.6315446640 0.6754385606 3.6101247085 6.3717958663 6.9158590032 0.5583280558 1.4434932121 4.1241333164 1.7711855334 2.9381755846 2.9832932341 4.1200522185
4.4892918342 0.8484554096 2.3520671533 3.1537659560 7.8537598000 5.3152953564 1.5119757902 3.0141647618 2.6944852053 5.8790302146 2.2155243684 0.0936100866 7.0729203619 6.6911907344 2.4948188666 2.0220082688 6.1929663422 2.8615279155 2.8038324814 1.6188329929 5.2000362548 6.5870573756 3.7174595246 2.6915788999 6.3257230861 8.3638881038 -0.0421952856 2.8471078318 6.3858630516 4.1432703540 2.7682534242 1.9104440391 1.5990143238 5.8163018647 2.5518384742 2.0098115887 6.2738608016 8.0788895882 3.5720492493 4.9097357075 8.2335693544 0.6378510091 -0.2979533479 2.8812641693 2.1063076909 4.2689004527 1.4911130514 4.5999630645 8.8631641209 7.0392048180 3.2597949931 2.7107453904 7.1338240361 1.8302661413 2.0586887498 0.3565555252 4.8057927622 5.9598989440 5.0885590594 2.3256553893 7.1123496993 7.2051650916 0.6721678737 6.4362045798 3.6417333829 4.2591733146 6.9436829499 9.7172849530 0.2761567200 2.2142585324 4.7382747979 2.3360559883 2.0722331012 2.7354508062 4.4922938335
5.3160484263 0.3145222738 2.5011344430 2.7598737503 4.7797513487 4.9780663521 2.2972846043 1.5474431961 2.7727896145 7.5818797271 1.4377953683 -0.0540594944 7.9970674030 4.6267101219 2.7151675512 1.1045858558 4.4158876745 2.2072102095 4.0993515050 1.8061959620 4.9034865411 9.2055934561 1.4890277746 2.7323839667 6.0086261103 4.6894689105 0.2977602051 1.2727710885 4.8496066091 3.7034914328 4.0050781863 1.7679744041 1.4289848521 8.9746161583 1.6935891361 1.2365064924 6.2953755354 4.5159517858 3.8239423060 4.5858709136 4.8943385924 0.7754480949 0.3992134668 1.3256412082 3.1332087860 5.5213771033 1.8482180226 4.3808678483 9.8425967097 4.2108647352 1.9467492509 1.7216829592 5.5616060720 1.3082788563 3.2042530847 0.6998893195 4.1828284612 8.4796562483 2.6362912044 3.5171370791 6.7555885989 3.6497035721 1.1984539210 8.3898421295 0.3246539347 3.3564793638 6.9088278156 5.9144907701 0.8484916253 1.9386231554 3.2097552688 1.7021254403 3.3200567329 3.0502204516 4.3017222260
4.8401776856 0.5261762389 2.6410444259 2.8436917567 7.8114058951 5.5216961163 1.8732949042 3.1629505484 2.5731701979 6.6490951012 1.5451453604 0.2974305978 7.5185122008 6.0218676626 3.1068442891 1.5209945336 6.4564704738 2.8795862188 3.4794025681 2.1009981617 5.1399316698 7.8579586487 2.8233357973 3.0559691321 5.9915690319 7.3365848738 0.4349890374 1.9738144769 6.5883305636 4.3439895270 3.1702046257 2.1565830780 1.4095642469 7.0365796484 1.7763212670 2.2610113199 6.4892357090 7.3678503140 4.1841350024 4.4951727693 6.9940964029 0.6244981518 0.0475876722 2.7474726485 2.0164092938 4.9396879592 2.0997817718 4.7257554202 9.1652178053 6.8922787906 3.0184419530 2.1515246153 7.6229893430 2.0535986834 2.9379793145 0.6986018497 4.7248907383 7.1023667135 4.2004807570 3.1674267515 6.8491589380 6.3440596706 1.3116522391 8.1523403848 2.3137329457 4.5307882628 6.2151080232 8.7685230813 1.0212962386 1.9416648918 5.0672109856 2.3387878226 2.6159727991 2.9867333035 4.2417981149
5.3059546718 0.3006167679 2.7661679714 3.2138256991 6.6937964544 5.8584727872 1.0522046987 2.2863223643 2.3430294310 5.5192673286 2.1821013675 0.0775309520 7.8283899748 6.2805136033 3.1847839655 1.9197762651 5.3258030294 3.3780294644 2.6062063297 1.2734415936 5.0316363612 7.0940188408 3.3730970412 2.5965349996 6.3293316728 7.5085220538 0.5078048010 2.8632024149 5.3750726153 4.6227853482 2.1256410097 1.0836336426 1.2548375382 5.9102571213 2.7183507197 1.8170749322 6.5565050332 7.2545215661 4.3052839614 5.0010513438 6.9200545683 1.0563345066 -0.7330950509 2.7129972261 2.1043215664 3.7845643982 2.2225461200 4.6435854687 9.5897054789 5.7171486262 3.7766869757 2.5400681044 6.3335082814 2.3512085243 3.1027647697 -0.0895314083 4.6751697840 7.2785588381 4.8263820599 2.1283258707 7.3989421298 7.3804163472 1.6123000034 6.6740081945 3.5343744421 4.0745828061 6.1931002120 9.0292886864 0.3134182591 1.8118730754 3.9537748098 2.6643012730 1.3034652769 1.5065165120 4.1243169285
5.0550425562 -0.0085278394 2.7208180563 2.6398642732 5.0545056623 5.0664037072 2.3119978177 1.6556508424 2.8623083705 7.2955673058 1.4275084064 -0.1183220852 7.6719183669 4.3796213882 2.7360317945 0.9171221519 4.5152146308 2.2303580684 4.0924834202 1.9249612652 5.1707231845 8.8879221303 1.4172161780 2.7748822825 5.9841478922 4.8358480770 0.4165644280 1.2360857427 4.8051468585 3.7337777186 3.9054385678 1.5598850577 1.4915844474 8.7665677744 1.5182528230 1.2582583902 6.1136121934 4.7866048487 4.0609832854 4.4981675467 5.0379142330 0.7146134118 0.4188816961 1.3742900197 3.1757189578 5.5215647105 1.8454998076 4.5848673152 9.3525314999 4.3094646105 1.9693717993 1.5312784525 5.6606744557 1.3624282930 3.3368945776 0.6963899464 4.3801915561 8.2303056861 2.5617259692 3.6773548844 6.5784463281 3.6334021337 1.2577763704 8.0692420502 0.2233192162 3.2574079394 6.6410087526 6.1379093646 0.9447763277 1.6344111857 3.2007109511 1.8741624637 3.2585281161 3.1032953807 4.4828912364
4.9370668901 0.2537520971 2.4071564554 2.6751729354 6.4329872430 5.1739605113 1.9735764822 2.7714863177 2.3866603579 6.8225844623 1.3857897228 0.1622122707 7.5819587169 5.0420145799 2.6724946570 0.9958740759 5.8676322176 2.3885711474 3.6841465452 1.8425228379 4.8680524611 8.4710312901 2.0664338166 2.8897464087 5.9118475819 5.8285820826 0.1464610121 1.3382477637 5.8296884074 3.9198574994 3.3404785171 1.9644394310 1.1775731510 7.9982081817 2.0960829937 1.4017775580 6.1415148766 5.6071160316 3.8449186226 4.4620203511 5.5527063092 0.5359862890 0.4824588531 1.7030727853 3.0115015859 5.2119409649 2.1201136345 4.5171897049 8.9995411803 6.2978312099 2.3217715556 1.8096951880 6.9564171422 1.6344109805 3.2941569991 0.3962018112 4.3101720250 8.0774608371 3.4615163533 3.4622707617 6.8605686661 4.8919024659 0.9628707812 7.7573375649 0.9743720411 3.6933976646 6.2345050191 7.2847278028 0.6898475272 1.3133797812 4.5258525968 1.6368587329 2.9085164305 2.9209041811 4.0398053314
4.9068305531 0.3053750797 2.5287576072 2.8757373739 7.6625137879 5.2693306217 1.6766336144 3.2897652105 2.4399798226 6.1177803993 2.1255095020 0.0695516889 7.1402880612 6.7464707555 1.8511748109 1.7995713901 6.2343872064 2.5032501399 2.7520510588 1.5409273330 5.1177406438 7.0103996445 3.5772421651 2.6616690443 6.2031338792 8.1827274624 -0.4967142457 2.2068532453 6.6431073945 3.9729423903 2.8280599180 2.1343804106 1.3441951293 6.0151613387 2.6848419143 1.8301175309 6.2089893236 7.9571161779 3.2464681645 4.7975818329 7.9508748368 0.2126878339 -0.1591898320 2.6640105900 2.0841341216 4.2441868413 1.7756151083 4.6668734486 8.9019274973 6.4158140762 2.5654183099 1.9555360119 7.4335520773 1.5359524188 2.2930465589 0.0182180635 4.9721255582 6.6093867560 5.0592308521 2.7408871080 7.2446356083 7.2334547050 0.0892728321 6.9705086719 2.9744760242 4.0867565659 6.8352803166 9.5651161242 -0.0271942744 2.6059747862 4.9743874262 2.0849938609 1.7195452177 2.4164491007 4.2870457940
4.0574321277 -0.5866705904 2.8575316811 3.1587713465 7.0480326068 5.5371005799 1.1049567343 2.5258416633 2.3958439511 5.5508951576 2.3226082614 -0.1832221126 7.4353560113 6.4159649603 2.3127488616 1.8429105988 5.5433736911 2.9261787134 2.4210569834 1.2952640643 4.9255871760 6.6816222361 3.3811436153 2.3678312369 6.2881171002 7.9261273522 -0.0220246812 2.4201227578 5.6132768236 4.3522716289 2.1290560508 1.4187065598 1.1964470430 5.5514355291 2.5155456614 1.7156351928 6.5851795067 7.2425964744 3.9281950814 5.1020186557 7.1095444918 0.6261387627 -0.7046049375 2.7902818565 1.9328380811 3.6278474422 2.1646697656 4.4926625745 8.9841370438 5.6516023742 2.8933639165 2.4856751932 6.6492585162 2.0231748585 2.8379068776 -0.2878161527 4.6989892896 6.5249139884 4.8511200394 1.9220735782 7.4710388640 7.8909090853 1.0210783654 6.5233196724 3.3498778936 3.9356805286 5.8127678938 9.4222169243 -0.1662761555 1.9816245133 4.1839126316 2.2894656483 1.1668321455 1.6869078539 4.1561047941