-28927.0069352169
-28926.830124987
-28926.8123592278
-28927.211632611
-28926.9946182624
-28926.4728009238
-28927.079686447
-28926.7290656327
-28926.2363961611
-28926.5529411293
-28926.8132502641
-28926.5280231337
-28927.0561872522
-28926.9442017165
-28926.8486020514
-28926.9782796035
-28927.0800947536
-28925.6900922631
-28926.8634636771
-28927.2764099574
-28926.9955712046
-28927.029037516
-28926.7284019473
-28925.6361134768
-28927.0288527508
-28926.470590136
-28925.9292883681
-28927.2599964672
-28926.3986308928
-28926.8189994824
-28926.921742132
-28926.588896873
-28927.122770073
-28925.8800376934
-28926.8339963486
-28926.8783348269
-28926.8563774282
-28926.765932549
-28926.1778889947
-28927.0265513492
-28927.0630637014
-28926.8970970664
-28926.180618159
-28926.771927622
-28926.1798950169
-28926.939157953
-28926.7384734196
-28926.8376966867
-28926.6595921481
-28926.7740555511
-28926.3887154778
-28927.0748168363
-28926.9148138451
-28926.7779266406
-28927.1574467461
-28926.7057012702
-28926.985434425
-28927.308704003
-28926.8117555436
-28926.542711559
-28926.7960318616
-28926.8964030404
-28927.1289709999
-28927.1483786932
-28926.9445892064
-28926.1663485166
-28926.5466585682
-28926.7870322453
-28927.062981387
-28927.0104185443
-28926.9218539708
-28927.1822578011
-28926.0558846407
-28926.9935281749
-28926.8910565505
-28926.6630620059
-28927.0038452297
-28926.9655116206
-28926.9109750011
-28926.9997711434
-28926.9630913053
-28926.881647403
-28926.8063414334
-28926.4613139161
-28927.0934800265
-28927.1349063439
-28927.0271378903
-28926.9696755044
-28926.9368481159
-28926.4578915421
-28926.9401929375
-28925.7173892128
-28927.1536845021
-28927.1671333136
-28926.9377319412
-28926.6330054152
-28926.256547269
-28926.9606240503
-28927.0150844779
-28927.1908257091
-28926.9140628113
-28926.9471654428
-28927.0609620313
-28926.9103841062
-28927.0827179297
-28926.8208819649
-28926.2210439144
-28926.8249006761
-28926.2063552169
-28926.1665353227
-28926.640914808
-28926.210809446
-28927.0071244719
-28926.8207423706
-28926.7848541112
-28925.7448203145
-28926.1793775927
-28926.6853705672
-28927.0810453828
-28926.6256281407
-28926.820733663
-28926.9347860383
-28926.5855330034
-28926.7461936934
-28926.8387975227
-28926.7941435286
-28927.3675914484
-28926.2691640928
-28927.2610213835
-28926.7608815745
-28927.2134085611
-28926.748801359
-28926.8094451622
-28927.0234572804
-28927.057510405
-28927.1532574197
-28926.8407461289
-28925.7512933552
-28927.0597176553
-28927.0011317119
-28926.8310069075
-28926.8688088065
-28926.7767560075
-28927.0419509437
-28926.6142199099
-28926.5499561781
-28926.3071766078
-28927.3462657617
-28927.0055394096
-28926.6530910797
-28927.0210136994
-28925.5596681671
-28926.8766255447
-28926.3099347523
-28926.831177931
-28926.3742780773
-28927.1913253099
-28926.6903713368
-28926.3428074477
-28926.8670818369
-28927.2012388201
-28926.9242140129
-28926.7344265447
-28926.7593441321
-28927.0074583554
-28926.7643692558
-28926.8608851277
-28926.5819264085
-28926.772698384
-28926.8818644136
-28927.0576523123
-28926.7824578779
-28925.895715252
-28926.8292927273
-28926.9082708712
-28926.4342347934
-28926.8664923026
-28926.9110062942
-28927.0674560247
-28926.4724164271
-28926.5165630652
-28926.1723920258
-28926.9842100494
-28926.8843169744
-28927.0221670533
-28926.8844549361
-28926.8618194301
-28926.3756572856
-28927.2441395856
-28927.1520613439
-28927.2988872292
-28927.0987413449
-28927.0712577252
-28927.0010812348
-28927.0227500569
-28926.6721012148
-28926.9194676697
-28927.1762118429
-28926.790944696
-28926.7550481371
-28926.9032275159
-28926.9611892305
-28926.4825149747
-28925.5473514848
-28926.8551187663
-28926.9256816581
-28927.075979306
-28926.6763119022
-28926.900022969
-28926.8773829731
-28927.0029839899
-28926.5537060409
-28926.7987474203
-28927.2719724632
-28926.1358134139
-28926.2273090602
-28926.2592081328
-28927.0332905171
-28927.0909401172
-28925.9572262816
-28926.8317484173
-28925.5510326389
-28926.8609953338
-28927.17416582
-28926.9668803525
-28926.7082866224
-28927.0925665408
-28926.9990160279
-28926.6908484881
-28927.0375822943
-28926.6110278801
-28926.2601447482
-28927.0090627378
-28927.1874576218
-28926.5090467406
-28926.9101756671
-28926.3959799611
-28926.9845805322
-28926.9182607094
-28926.9028669653
-28926.8239818842
-28927.1645577574
-28927.0453617529
-28926.981595445
-28927.1831455721
-28927.1024205942
-28926.8682864843
-28926.9291794076
-28927.0296207917
-28926.941232956
-28926.7650296758
-28926.8940484406
-28926.8671105449
-28926.1878547507
-28925.6906056056
-28927.1963456716
-28926.9820032073
-28927.1481614104
-28926.9958611417
-28926.5383582841
-28927.0035522994
-28926.7098658343
-28926.5221917371
-28926.906183351
-28926.8604913792
-28926.2103018179
-28926.8182579725
-28925.7456744794
-28926.9010967296
-28927.0061541145
-28926.9155677361
-28926.5804512801
-28927.1469386675
-28927.2873126009
-28927.0358376374
-28927.0184571912
-28926.7535800837
-28925.7398909749
-28926.88071174
-28926.9375732989
-28926.9150670469
-28926.8403428564
-28927.0953882238
-28925.7161025232
-28926.3388578534
-28926.8007916745
-28927.2064210894
-28926.1388755094
-28927.2195104387
-28927.0150421642
-28926.8252568729
-28926.8405736088
-28925.6097245705
-28926.7685656572
-28926.4468324332
-28926.7853820117
-28927.0167970255
-28927.0668308435
-28927.1999333546
-28926.7182594534
-28927.0163903516
-28926.9431792493
-28926.7309228087
-28926.5213058709
-28926.991881887
-28926.1677776578
-28926.3523289781
-28926.8818574748
-28927.0719137913
-28926.7860063766
-28926.8804984029
-28926.5532648086
-28926.8396108706
-28926.8112321329
-28927.1741977934
-28926.9901822649
-28927.0840223067
-28926.7988881031
-28927.4339948102
-28926.6350142945
-28926.6987423705
-28926.852569061
-28926.8840621399
-28927.0795167841
-28925.9578101016
-28926.8260473632
-28926.9585208836
-28927.1050371035
-28926.8886839911
-28926.2968098922
-28925.5548512104
-28926.5905359498
-28927.3790977762
-28926.579043772
-28926.6045708942
-28926.750167914
-28926.8989749231
-28926.9716222058
-28927.0000149573
-28926.9430271377
-28927.1649901461
-28926.3340634821
-28926.7912253813
-28926.86191018
-28926.8815969259
-28927.0541546989
-28926.2926739
-28927.0464385068
-28926.8457615926
-28926.8459237723
-28926.4595722524
-28926.8761551961
-28926.9450394185
-28926.9177311761
-28926.9035973185
-28926.947177688
-28927.2158936394
-28927.1614126673
-28927.1082102213
-28926.9757592864
-28926.9861465466
-28925.6848943473
-28926.8980493283
-28926.9600600947
-28926.9341675238
-28926.9223867694
-28926.3119753329
-28926.6377524386
-28926.915557804
-28926.5593227398
-28926.8560536129
-28926.8409893986
-28927.0321220609
-28926.7314858119
-28927.2137138726
-28926.6229529909
-28926.6716982144
-28926.4457397606
-28926.890263339
-28926.9023683169
-28926.9782669502
-28926.2519829699
-28926.9278306761
-28925.7311306825
-28926.1904123474
-28926.8839081236
-28926.6578129326
-28927.1599014838
-28926.9883713482
-28926.8976361237
-28927.040228464
-28926.7337820434
-28927.5070897199
-28926.9109589464
-28926.8550195809
-28926.1636310532
-28926.4682275088
-28926.865737051
-28926.7487814947
-28926.9004096425
-28927.0571173368
-28926.9519323306
-28926.5354873485
-28926.8750487818
-28927.0167102212
-28926.5231754281
-28926.9767828421
-28926.6858761545
-28925.6826258714
-28926.9835439151
-28926.8204732501
-28926.4393863139
-28926.892694811
-28926.6927184535
-28926.9026351244
-28926.9902463476
-28926.7624399697
-28926.7949423184
-28926.9233984881
-28926.9773741452
-28926.8542403833
-28927.1452572769
-28926.9348088958
-28926.9555828719
-28927.2866883721
-28925.5616628966
-28926.7006230843
-28926.8926357623
-28927.3692453554
-28927.1261464597
-28926.8696573931
-28926.4761171734
-28926.2782620783
-28926.861752218
-28926.4804475908
-28926.9556234169
-28926.9217594113
-28926.7139386961
-28927.0842536033
-28925.5726591472
-28926.0897755856
-28926.8314731743
-28926.8468840616
-28927.4300276645
-28926.9081014805
-28926.8611621395
-28926.5402360047
-28926.1944743246
-28926.7453906859
-28927.07936821
-28927.0903768419
-28927.0350460586
-28926.4756570292
-28927.1769239645
-28926.9176004255
-28926.0343086095
-28926.9006010745
-28927.0564589577
-28926.9016258547
-28926.505948318
-28926.8219192623
-28926.9948732329
-28927.0448130356
-28926.9209268794
-28926.7542705722
-28927.4017844395
-28926.8677697404
-28926.8582873943
-28926.5779829367
-28926.9053119069
-28926.1414479362
-28926.9911788813
-28926.8975102711
-28926.1554136276
-28926.9776151018
-28926.4889255653
-28926.9858605551
-28926.8478668002
-28926.611140127
-28927.1645637439
-28927.0400205691
-28926.4542484839
-28926.9475566063
-28926.8708254412
-28927.2184460659
-28927.0102061596
-28927.2076910441
-28926.5778350429
-28926.9721782701
-28925.5509465149
-28926.6489742715
-28927.0401453333
-28926.8062285062
-28927.217541696
-28927.2884850028
-28926.7410827178
-28927.0842712907
-28926.8890122963
-28926.7391572413
-28926.6954227194
-28926.5911567772
-28926.8906418492
-28925.5886708615
-28926.7734817994
-28926.902519204
-28927.0260548778
-28927.433465549
-28926.7947063958
-28926.9132615725
-28926.5428247583
-28926.0723929625
-28926.4082080705
-28925.8582375765
-28927.188580499
-28926.9939402911
-28926.1623533433
-28927.0160733391
-28926.804292009
-28926.6341310135
-28927.0965410335
-28926.8697710006
-28925.7637375229
-28926.8042329604
-28926.9828036298
-28926.8165620239
-28925.7601272543
-28927.0033136556
-28926.7235170983
-28926.6782669031
-28927.4321581787
-28927.1907088363
-28927.1968175167
-28925.8188983711
-28927.1336229197
-28926.7662952766
-28926.7077004895
-28926.7430132285
-28926.8556450342
-28926.1541163256
-28927.124546023
-28927.6491970176
-28926.8649235671
-28926.759389167
-28926.8553130555
-28926.2372904628
-28926.9365268856
-28926.7923580546
-28927.0005055783
-28927.1146682957
-28926.9924632579
-28927.0703783898
-28927.0595007807
-28927.0014332139
-28927.0477099581
-28926.9615791694
-28926.8471288278
-28926.4857939448
-28926.9769704645
-28926.7119226057
-28926.2844338891
-28926.4508021639
-28927.4124568748
-28926.7752859132
-28926.1769072084
-28926.7861120928
-28927.16734978
-28926.9105337688
-28926.5946835068
-28926.875439401
-28926.9055287815
-28926.9015614998
-28926.5387727132
-28926.7407832567
-28926.9756445905
-28926.8210838733
-28927.0524036473
-28926.8411888579
-28926.8060487751
-28926.4061446323
-28926.708261588
-28926.4796349233
-28927.0526675975
-28927.0001733275
-28927.1872471419
-28926.6009611699
-28926.5847431934
-28926.7452800717
-28926.9087793157
-28926.7800771552
-28925.5465731035
-28926.7215773358
-28926.9565615289
-28926.8190125438
-28926.9051827889
-28926.9628917099
-28927.2219495298
-28926.9954999108
-28926.4969565929
-28927.6420738973
-28926.7253013478
-28926.6745796264
-28927.2549578739
-28926.8482210922
-28926.7226121842
-28926.8831260688
-28926.6370829029
-28926.8809939219
-28927.0769010912
-28926.9329309031
-28927.3224086013
-28926.7788444801
-28926.8834191353
-28926.5955686927
-28926.766365754
-28926.9231997091
-28926.4370053191
-28926.499857461
-28926.3079815201
-28927.2534344454
-28927.227107581
-28925.600664681
-28927.0155878883
-28926.8124533791
-28926.7555802555
-28927.211082125
-28926.228067169
-28927.1227473515
-28926.8664845474
-28927.1448820321
-28926.9636822002
-28926.8948283184
-28926.9268604547
-28926.9016898014
-28926.6191092488
-28926.9636200222
-28926.952861871
-28926.9948612599
-28926.5133876344
-28926.9224006472
-28927.1452055753
-28926.9297083966
-28926.9705876295
-28926.3370014938
-28926.87340263
-28926.6037655737
-28926.6888262752
-28927.3424373941
-28925.6349008021
-28926.2543321274
-28926.6865041929
-28926.9896373572
-28927.0564181407
-28926.2797563906
-28926.7399047376
-28926.4849171944
-28926.4190879925
-28926.0269731044
-28925.7363577146
-28926.1479197524
-28927.1084532188
-28926.8833576376
-28926.3107625221
-28926.8963220866
-28926.9040094347
-28926.9975968189
-28927.0347245563
-28926.8304349245
-28926.7833504109
-28927.2666741374
-28926.2097619444
-28926.3168239909
-28926.3331361187
-28926.9014683009
-28926.8311030997
-28926.1728401971
-28926.9542899237
-28926.7103586322
-28927.189243368
-28926.5338979324
-28927.1295416224
-28926.7031659868
-28926.1251608429
-28926.9717222076
-28927.0503550393
-28927.3558135511
-28926.8019238035
-28926.2735904303
-28927.0297467804
-28925.6974586531
-28927.0071375334
-28925.9994935665
-28926.7926568354
-28926.8997821483
-28926.8110676401
-28926.8688707124
-28926.5789059464
-28926.4232739176
-28926.9122490375
-28926.2927709086
-28926.8675861997
-28926.786139032
-28927.2959981981
-28926.8109344405
-28927.1780393585
-28927.1454906144
-28926.9041955604
-28926.7464836305
-28926.7972020866
-28926.7981192458
-28926.4621373321
-28927.0643020909
-28925.7803983644
-28926.6082830692
-28926.2406852172
-28926.9764795714
-28926.8351012663
-28926.8568016535
-28927.0511881154
-28926.6429390618
-28926.1805996553
-28926.1644423602
-28926.303383615
-28926.5255931583
-28926.1785777144
-28926.1336638518
-28926.3351074464
-28926.9117186879
-28925.7154372052
-28927.0544942968
-28926.1075676038
-28926.9889085006
-28926.9044325715
-28927.0707230218
-28927.0994752355
-28926.6545195405
-28926.6896216635
-28926.145626106
-28926.8957249331
-28927.0590317927
-28925.7555324785
-28926.267740666
-28926.5488029602
-28926.9737520397
-28927.2436337263
-28926.4814169959
-28927.4212378478
-28926.1716759586
-28927.0783392121
-28926.9229899094
-28927.0896561487
-28926.9863681832
-28927.1959357323
-28926.7514437191
-28927.0407096971
-28926.1742768214
-28926.8692365693
-28926.8783119693
-28927.0059326139
-28926.8717349812
-28926.9810648233
-28927.1864805976
-28926.0407315812
-28926.9544004019
-28925.5755872267
-28926.5994650888
-28927.1099842666
-28926.9087484308
-28926.8106019175
-28927.274992245
-28927.4218256134
-28926.8908315124
-28927.1983544149
-28926.8126556957
-28927.0090698128
-28926.272881302
-28926.1697541556
-28927.0221090931
-28927.1830651625
-28926.7807864195
-28927.1682828579
-28927.062368587
-28926.3700107903
-28927.0376588944
-28926.2585881217
-28927.2989998843
-28927.4077491718
-28927.1704535089
-28926.8159231009
-28926.1629145778
-28926.7894554178
-28926.9108501009
-28926.7215101237
-28926.4684430229
-28927.058302528
-28925.5486879712
-28927.2190736962
-28927.0476147183
-28927.0305761829
-28926.6671532354
-28926.8731272509
-28927.1905199894
-28927.0174815275
-28926.5365075027
-28926.8311290866
-28925.5472596464
-28926.8043400371
-28926.8475218961
-28926.9899713767
-28926.9663433361
-28926.7677842828
-28926.8392047409
-28926.8646762158
-28926.9104585293
-28926.6933081239
-28926.6965714474
-28926.2815613208
-28927.0013631446
-28927.0042461893
-28927.1836319753
-28927.568879666
-28927.010748074
-28926.9883411436
-28926.669265518
-28926.7351371696
-28926.8476873412
-28926.6935768361
-28927.0242802883
-28927.0521523503
-28926.7264804165
-28927.0408665706
-28926.9969910938
-28926.4575768426
-28927.2057850237
-28926.9784525317
-28927.2957139753
-28926.6981863061
-28926.5101894821
-28926.5482504334
-28927.6146544965
-28926.2696724012
-28926.9448863546
-28926.9744911005
-28926.915057659
-28926.9492833038
-28926.9310939996
-28926.8601566794
-28926.8966291669
-28927.1139750861
-28926.4251574886
-28926.9513653817
-28926.9489281954
-28926.9173842311
-28926.9109994914
-28927.1831869334
-28926.2311925309
-28927.1892236397
-28926.6354627379
-28926.8619153502
-28926.2266128573
-28926.8709726547
-28926.8520602084
-28927.1331776056
-28926.9833943886
-28926.9637217927
-28926.1571571962
-28926.6993188434
-28927.1416279605
-28926.9079148105
-28926.1633469665
-28926.156163573
-28926.815619422
-28925.6624486406
-28927.3267637811
-28926.9086013533
-28926.8571615239
-28926.5520970326
-28926.7503609786
-28926.9522215875
-28927.0518275825
-28927.0246400226
-28927.1406880798
-28926.9100148479
-28925.7018060776
-28926.6859022774
-28927.0539307493
-28925.686731659
-28927.3901170204
-28926.883528525
-28925.7620879696
-28926.8493064177
-28926.4470487636
-28927.058178036
-28926.8696938563
-28926.1408086051
-28926.5297103747
-28925.8065063132
-28926.9822781782
-28926.6869899159
-28926.1347144828
-28926.4079731003
-28927.0142085439
-28926.5839350157
-28926.8914273054
-28926.1923842193
-28927.0699855936
-28927.1608746985
-28927.0673401043
-28926.902490496
-28926.8123167781
-28926.7501896831
-28926.9223018699
-28926.7669748805
-28927.1598722316
-28926.4878210558
-28926.9220751992
-28926.4148256035
-28926.7749929828
-28927.0997065321
-28925.9810442576
-28926.2991719752
-28926.623898722
-28926.7159524735
-28926.787158506
-28926.9265699733
-28926.9947209853
-28926.4946566879
-28926.5328447163
-28926.7217652303
-28926.8880917357
-28926.1073945395
-28926.2013608421
-28926.7946306121
-28926.3651776428
-28926.9521926074
-28927.0182133773
-28926.7757849697
-28927.1738375148
-28926.942015419
-28926.8588008728
-28927.0677258254
-28927.0413204563
-28926.8569198869
-28926.3758820515
-28927.0356844373
-28926.8467543994
-28927.2331521787
-28926.4418478544
-28926.9987723501
-28926.785638751
-28926.4540324256
-28927.0527176665
-28927.3486200894
-28926.2769797424
-28927.1492851039
-28926.9660370721
-28926.966022514
-28926.9051588429
-28926.7769795489
-28926.2876444225
-28927.1507719332
-28927.0045440177
-28926.5683507921
-28927.2357564428
-28926.6538168069
-28926.2689961986
-28926.7949181003
-28926.9989724897
-28927.4291558123
-28927.0144070509
-28926.9822860695
-28926.9813123107
-28926.8848613379
-28927.0157934702
-28926.8715483112
-28926.8002406442
-28926.1948608621
-28926.821200338
-28927.0158685735
-28927.0435398156
-28927.0076465221
-28927.0435010394
-28926.8806094253
-28926.9275140718
-28926.8144452514
-28926.6493101959
-28926.8536132973
-28926.9984101668
-28927.0378047473
-28926.2656181792
-28926.8874419281
-28927.1408584229
-28927.3905232862
-28927.0065001071
-28926.8926021563
-28926.014177638
-28926.9988836446
-28927.0407427589
-28926.7230666141
-28926.6765584372
-28927.065582794