-0.191675384474829 -0.0830023662261656 0.389555094780763 -0.458153891433174 -0.934049671058935 0.764877084039241 0.495378560868881 0.56539377752061 1.45193925690881 -0.208697878374788 -0.0539435162092914 -0.141570780411086 -0.0100131560852157 -0.0910565998254843 -0.074800808491866 -0.6165360782838 0.0522571305175998 -0.688370606591942 0.160802107895024 2.13699648456969 1.2715268411198 -0.424497911340458 -0.190201371794471 0.731839196826968 0.0466158759877316 0.895506797713896 0.757813238865657 0.410472807956392 -0.209163762026769 0.0196342191410322 0.646682761485847 -0.847208906907588 -1.12901555165852 0.439848674829168 0.0171613333988931 -0.0678295229842389 -0.0848653866137243 0.412896842763721 0.374648103468278 1.26989239168511 -0.703855324486106 -0.0564858217008978 -0.670882743260369 0.0313093354505343 -0.870516459236179 -0.489050822149835 -0.376231130866318 0.0368575160940795 0.822422456805158 0.152745817414239 -0.0798651077706051 -1.08792214529601 -0.365318860470408 0.389583376900916 0.163168035800946 -0.366687457975648 -0.5406361237587 0.728113413162034 0.722510210939281 0.0995810879498989 -0.901550943900859 0.102332166910274 -1.15951807535413 -0.41969303623658 -0.0579966011374552 -0.140881210899709 0.0572869770317884 -1.35315212520468 -0.680427444591771 0.296242867317954 0.567706740728791 0.420229625188945 0.0266127037337893 -0.0249489437382204 -1.07816712783474
0.00861293402743975 -0.248165577048842 -0.414519722240159 -0.226487331951269 0.286929565151443 -0.779038455820409 0.0195483443398392 -0.10142431085335 -1.19618610124318 -0.166980722707806 -1.00161874142758 0.396677303965936 0.555576282284819 0.682517236160923 -0.228246994045176 0.133943606826083 -0.659177030839065 -0.120040116558677 0.208659568957489 -1.10003974823082 1.38224825619812 0.220079374855061 0.303367390494776 0.13125269164858 2.05679764778128 0.561968555659852 -0.383206530136876 -0.158250546436822 -0.0462104132288052 0.512100492964664 0.0573671954089507 0.614298962579667 0.617833713378474 -0.39409746038758 -0.658677465753082 0.148266443802309 0.242705070977772 -0.0569262514447411 -0.138762622990037 -1.35677429346577 -1.02578915553103 0.916405227625785 -0.116294021189269 -0.237053017820209 -0.667019662757599 1.83059545102319 0.917340594472312 -0.158833672332348 -1.09079843691561 0.389269445367213 0.349204222627373 0.367418936446888 0.894729810740228 -0.316315459321364 -0.949222514300861 -0.737789240686874 -0.311619341824985 -0.362592206977438 -0.619638626864627 0.352272575553833 -0.510164196174889 0.0309421821089067 0.797338787330934 -0.0349626140438025 0.526391448278171 -0.834530032442823 0.239968390187657 0.781740169625607 -0.142982315316923 0.12205868860708 -0.453928285572074 0.0686887852165355 -0.696707404282611 0.956942761772187 0.0190127838282073
-0.107733280529022 -0.0968117541665157 -0.434803144593803 0.227583649772488 0.11215403301918 -0.818872279395358 -0.0135522777571375 -0.135626907195576 -0.497249037451753 -0.449465624122053 -0.429545755567471 0.878680221773546 0.25203894195894 0.333785582050295 -0.128268156641848 0.528728322733391 -0.00780997892526672 0.865856594275633 -0.22306288142106 -1.36176557345248 -1.74834204676073 0.0269109515463159 0.353536529214506 -1.21898277563773 -0.441528632766279 0.535413958827468 -0.0233700301031116 -0.489391493142592 -0.599915447600203 -0.416260358180508 0.0809033186904177 0.507646573260871 0.849634741486199 -0.255125806818591 -0.858259245471883 -0.0827403709494719 0.35105747282797 0.132152320179641 -0.2469409612462 -0.337363527359882 -0.742143144529397 0.343132565650807 -0.190012652919993 -0.19169466773857 -0.789058810990755 0.640004838697265 0.805101200872306 0.286809237585699 -0.580649410241531 0.588863052154442 0.176246973710789 -0.00723250945377117 0.552069299385799 -0.145846008537545 -0.660495748968762 0.906328051104949 0.142832934300476 -0.411506390892907 0.161337668406656 0.422969648411442 0.623128640491555 -0.779423606874861 1.35552602352628 0.145814126874827 0.153305803393276 0.0234461347173426 0.460849434593975 0.444459945965086 -0.168754782971973 0.0320554692022173 -0.467212397408121 0.0846985221048193 0.798045583224585 0.0840539468755052 1.28965568013812
-0.0277858974997885 -0.108520037689652 0.182283149482072 0.31327795961689 0.31486818610006 -0.13179288014351 -0.413549131298531 -0.969433431582839 -0.331695019150593 1.02546236848817 -0.686703504163991 1.02514509452208 -0.841845331375589 -0.737362437782741 -0.0105998815233069 1.24626859383117 -0.0853212429685603 -0.618758281597307 0.693414594166207 -1.66973755021841 -0.240152223968654 -0.162249124006144 0.782745213331785 -0.550539493795684 -1.52185317214836 1.40465309467345 -0.886704116371246 0.0621957246496838 0.161382919798901 -0.0384446572550511 -0.305282604249527 0.294316854935508 -0.215121519192172 -0.118301794609977 -0.312679664220554 -0.949466254754547 0.50177700488831 -0.261687772914543 0.377119189439134 1.18003803907633 0.103501504023525 -0.120767224156802 0.342977013989963 -0.0684692131200719 -0.534440539673825 -1.45776511655023 1.19085492159427 -0.361894409940199 -0.0464019603152986 0.00139507985411171 0.096450514359102 -0.315798410742923 -0.409095725815105 0.57995701251814 -0.0895553334657058 0.707246864912863 0.529712797624912 -0.27928953605728 0.48803240871413 0.392369679956391 -0.056016852726718 0.190350495700735 0.120676207151945 0.355181263056517 -0.00754901208930591 -0.117681387737885 -0.297820495402147 -1.00433562473359 0.83797350912659 -0.527042194151882 0.681839493717975 -0.133409074755184 0.739965164167403 -0.000292334278312756 1.09978006694578
0.244247989187231 0.0668414485501528 -0.453647521252006 -1.7770363145378 0.832974258724204 -0.132006281595576 -0.800950414074522 -0.250236085354253 -0.356712611307731 -0.359296311538835 0.353358094747356 0.0605404492901609 0.944826444388292 -0.721874891676563 1.00363062861122 -0.431440143397382 -0.176592015576661 -0.644408879025514 -0.876413538398343 -1.30803288759342 1.30416466488699 -0.250057650887104 -0.0533069113956569 0.71365147957669 1.16401030447522 0.840580863494549 -0.764952674433105 0.241670459600524 -0.0601344723108682 0.0345656359209222 -0.0940907570975765 0.888720117317816 -0.729063692399188 0.788147869611632 -0.275173459134229 0.195172854297071 -0.203597840780582 -0.0661986730921212 0.434650164034792 1.25066209264191 -0.385868134753494 0.806514792659609 -0.146962895173421 0.334536086675093 0.17042959870542 1.61621775159106 0.622954319787337 -0.519594226364579 0.872725549930341 0.176335933834181 -0.691367997107835 -0.167603186461364 0.0934150715360937 0.410426785233597 -0.570270129255421 -1.60918913051257 -0.560208379345578 -0.1496694940721 -0.269869018944369 0.182106257676022 -0.810357561457905 0.167567962366264 -1.01805759521164 0.0288138240122726 0.584256923222188 -0.627195866479796 -0.285629101844754 -0.76480097942501 -0.142493548858636 0.0157474845014069 0.0721168352893094 0.607857581159641 -0.243694430962774 0.907618487114493 0.715997867108688
-0.0849669451360932 -0.150512815473038 0.0463330547861977 0.742602600426798 1.60309176251768 0.437894380326568 0.63978115283787 -0.840250476909121 1.05909777976623 0.455407183345913 0.0456679107422266 -1.05518636254901 0.274220094574876 0.346550845536619 -0.176192466351948 -0.0578184237804889 1.37205203766245 -0.911975733389398 -2.21470726611516 1.39004769360587 -1.27737172691477 0.0254971026488297 -0.0559286639338761 -0.358663049157582 -0.395119987586217 -0.248156578192429 0.832090313914319 -0.668411143069146 -1.04270186338276 -0.651252380772085 -0.000619378431359216 0.607214548591426 0.629959800949331 -0.811563665327356 -0.379905749604793 0.275093754977433 0.868717716394423 -0.409935190563295 0.144345513508316 -0.343910581065208 -0.324721933871684 0.16558127198058 -0.735475249037961 0.346291935582124 0.645479228718229 0.319430606301168 0.716845045162374 0.319353730356387 -0.803990741991011 -0.194899031951949 0.548710669062493 0.330804389475945 -0.135556201895193 -0.265679408508919 0.865192992892761 -3.37745130293806 -0.141169688525274 0.308077391941048 -0.353592836344629 -0.703269627488747 0.721367870395267 -0.16134281061032 -0.309968951558943 -0.0530377170338333 -1.0488503963041 0.756544143001319 -0.700065520385552 1.23316214513172 -0.491138299727338 0.484868667909698 0.390264975996613 0.493038086871096 0.833718592704604 0.672617465666504 -0.0116545474948451
-0.141501103551435 -0.276951633161327 0.137304294030855 0.133250694882325 1.28276358456692 0.407768523049362 -0.796207759634982 -0.176070081904739 0.0964566850034991 0.189397131141382 -0.738947007841881 -0.352192614286853 0.269869533164736 0.434629080999768 -0.364166492629249 0.409243564170453 0.12636117041296 0.00471977163323417 1.21704776439887 -1.20864720338277 -0.615227644561431 0.442226686913701 -0.0250965249833844 -1.10575325072217 -0.730546703935958 0.150222280966007 -0.348605155900488 -0.080376499925015 -0.276278261591494 -0.868188069417005 -0.723665149882272 1.02072408492174 -0.538737365055675 -0.173658645496388 -0.0405143942299127 0.00626089007141065 -0.34243091196082 0.485529441080555 -0.181525702882328 1.30333394188503 0.470121084910805 -0.200991257743172 0.652509135347628 -0.531265743131516 0.335364238575221 -1.35397384935022 0.468064974775654 0.0695125662435487 0.513614614833603 0.0958041393585054 -0.179182914892894 -0.807249613563231 -0.366029770126991 0.179124036660939 0.0729269894766124 0.0739783130157688 0.623513277325641 -0.612230511155721 0.30369829130057 0.337352728732187 0.0425651050512166 0.34664854740624 0.185573645606827 0.39018475761945 -0.11635007120921 0.544825477083967 -0.373228598146761 -0.697512930486617 0.482534878776677 -0.365533290363207 0.373765444209309 0.229365937562518 0.864432203860635 -1.1786463016546 1.11489403195575
-0.108655020535839 0.0432549316727761 0.335263451383401 0.807692614408906 0.685091937535615 -0.636631038873149 0.232573387098095 0.12468378357768 0.623349241028751 -0.0780082580274435 0.00765571281533915 -0.0833322385912274 -0.992537352646326 -0.413345500033427 -0.725144047656111 0.583694366141319 0.786564585103409 1.05419751678438 -1.73679779953448 -1.47402630719769 -2.16296229908252 0.165337788637078 0.273011162493411 -0.562329538357082 -2.79758993540808 0.833240881984195 1.07775857975362 -0.0845563401735027 -0.115830451528937 -0.679818607677924 0.850895866934857 -0.26570666218834 0.769573201535619 0.369758124893757 -0.50235884523292 -0.555611249269736 0.24099785936124 0.979534005130347 -0.494055214755885 -0.602042520145921 0.199577923066053 0.185012631187057 -0.375874261932019 -0.457280231030617 0.567102788908425 0.592887854962452 0.278001928259751 0.165146498660767 0.636151271271275 -0.0720659274730333 0.553207526166882 0.4552925122042 -0.248393633781351 -0.0853150723241631 0.520013573073399 0.685595873494711 0.0340020503993201 -0.492732125753073 0.671073519016313 0.122607875958422 0.766864288645291 0.0910393734432091 0.662212730772256 0.137476814963791 -0.345411590314804 0.521989464831388 0.733212936535873 -1.21255116440467 -0.86141938673375 0.154067620866135 0.609151102491384 -0.274556394694519 0.0218769912691959 -1.16050666400858 0.449752301976335
0.328181094276626 0.264152945351186 -0.395665061174627 0.440826464855925 -0.595525034111664 0.446224493152474 -0.246594119609046 0.036178488100215 -0.0239757816947606 -0.870240837119775 -0.373929994726565 0.040447031361911 1.03030503878898 0.485600403491121 0.501225760655502 -0.110352976185775 0.381344795300234 0.172953649374019 1.05903401644079 0.577639164216478 -1.35621122216454 1.48425440739608 1.73687467547926 -0.189971258180496 1.16542235360143 -0.200644930326385 0.507190716906035 -0.233316692637763 -0.21462195410619 -0.269082776004105 -0.570753239289677 -0.570682019768928 0.659643428711412 0.412195960404283 -1.04763555068843 -0.439689523625759 -0.589931602075874 0.277165291723577 -1.830509576222 -0.478750988210337 0.27927590921757 -0.195606084955784 0.0634717624889681 0.379707774763719 -0.387486900467 -0.844532647010527 -0.517685954584775 -0.287476952731503 -0.331101351737555 -0.484273457835561 0.228115867851738 0.515750172015367 0.272322364312584 -0.278417418315823 0.219742560515052 1.6855557400202 1.26118946909355 -0.201002056370867 1.03082003048595 1.64041336249246 -0.294326368012287 -0.269446586913351 0.496025192979661 -0.898484133635499 -1.58036862163554 0.299842666993114 -0.490822054201987 -0.0341979683589282 -0.373956219965253 -0.511896604589376 0.263017032561753 0.344460282636917 -0.0470779029869646 -1.78064254196755 -0.569683146707146
-0.160044404185096 -0.0772574962924627 0.0766602293368597 0.653030811909367 1.06692395663304 -0.179541840708659 0.48784831782295 -1.05675936264991 1.10601550310905 0.222714497122807 0.144647617973591 -0.866298309570392 -0.0297527904013651 0.44912443890893 -0.221014998811772 -1.37775602707702 0.230384350998223 -1.53959968832424 -1.09806154248118 0.956862800505208 -2.15665975716143 -0.336329173092818 0.364513848486769 -0.662346428067527 -0.19689343564313 -0.808895375845975 -0.402641231775736 -0.147122046376829 -0.56107766887502 0.490577542417751 -0.375791215342841 0.454475158931767 0.832041720089692 -0.364118927245354 -0.428516543504071 0.465963613248257 0.947806351411726 -0.570848112947283 0.693152598889514 0.394301605873051 -0.301244174601806 0.613184904155807 -0.564825821125894 0.0163545216439719 0.541954327668031 -0.149465862806996 0.188191798602481 0.344523017521621 0.0652411947698374 -0.398367032090009 0.605281080013667 0.315374178940622 -0.0749111087604642 -0.34505035050739 0.0465485131197298 -1.75530870428506 -0.0173415676373252 0.242845710247989 -0.268117841486508 -0.45970863671106 0.200274177442192 -0.391408087871176 -0.329754351487704 0.00409833632040926 -1.02642190369192 0.602402217292236 -0.683389868122747 1.75496211975808 -0.233304608459152 0.75919726298189 1.82057329608157 0.722173396599272 1.14426964171834 0.272119247267846 0.319331618880631
0.026733288409716 -0.266115724489831 -0.413259882342417 -0.31058653021902 0.29081964222345 -0.757886515267873 0.00438784238670667 -0.107002316278148 -1.29260833348213 -0.0842454939619986 -1.03824023037347 0.302025789558772 0.595659759847668 0.716796194227564 -0.228068302467844 0.0201157865141894 -0.716353450492071 -0.350371502859158 0.349054841610927 -0.965603775403887 1.86376009355579 0.233971552274406 0.275182200880458 0.307986374936191 2.32207853550622 0.572883140047411 -0.38133888176602 -0.107256855359529 0.0370737457581614 0.657010620435315 0.0728555128456793 0.598343475940041 0.528053922722824 -0.393322273185194 -0.606418792574383 0.19942082874411 0.223754250703719 -0.0844627520668133 -0.0864928940734602 -1.33995517372074 -1.03774452194024 0.939020896451351 -0.10128187181185 -0.237820491717099 -0.647717629973278 1.8655488091004 0.891312559295149 -0.196358132241681 -1.07706669625059 0.376107975088559 0.379512885244844 0.408293284933299 0.859899351330596 -0.27155694729716 -0.978507621278963 -0.994121408485099 -0.399825875269557 -0.351267788957838 -0.713009732559391 0.323412214598399 -0.690721879217422 0.171817993694769 0.678786310292325 -0.0823768171504093 0.55129385507323 -0.911654859880749 0.181750160072272 0.750259598793053 -0.141513444840229 0.115446071805034 -0.41838768783641 0.0672929340318741 -0.9030604377865 1.09349089475421 -0.167630183030601
-0.147539079094 -0.090073153374696 0.071896234752113 0.678283659884144 1.17193469743202 -0.0674068338430373 0.521205278772589 -1.0644510708909 1.12066846956052 0.263131189483099 0.113712120729448 -0.914157313293957 0.013891406088795 0.443312463217408 -0.20983533382532 -1.19226517094919 0.387535751401811 -1.49771875347055 -1.36827534618124 1.16654104000859 -2.11130294974089 -0.244276528417568 0.301163442004277 -0.657588347016994 -0.228178859846625 -0.821539797546189 -0.21205779424901 -0.233003789544793 -0.658110280688915 0.30009206387083 -0.344813552028651 0.498442800032409 0.897791735912107 -0.43838186123394 -0.42629639707203 0.443204734050642 0.951118444791871 -0.556093073753077 0.606304378542854 0.252827498890853 -0.314139535840835 0.548949267312514 -0.634707854702719 0.0881970203677935 0.565957620152395 -0.0546922210628066 0.297753903864695 0.345884158831548 -0.0719959935031995 -0.379385615704154 0.603725306295048 0.324117724941134 -0.101437680582877 -0.336695040883529 0.246045703588254 -2.20793446966897 -0.0667164930011114 0.258159192760133 -0.288950194081311 -0.511960367914813 0.299630808202147 -0.370794536042287 -0.314021522266741 -0.0181895170215604 -1.04920109459401 0.677216395513629 -0.709665243296161 1.82780709108625 -0.291152857020894 0.745081142592968 1.69074036686469 0.730863206571493 1.13249270977629 0.341266202830866 0.278060035161157
0.0651344940438041 -0.316797540914887 0.0359010662125286 0.95653241391978 -0.295449939512926 0.999595027175513 -0.355701139846973 -0.704084152549165 0.563344866470589 0.25410456517087 -0.460432144766621 0.803885326815894 0.808398381861825 0.850246920832428 -0.419843959914126 -0.610217852641533 0.740387339088238 0.156505796733541 -0.184621309488208 0.0410404416647658 0.265414070799844 -4.83367144439737e-05 0.600199040132287 -0.215584317521955 -0.251428048163627 0.815315160010611 1.42823704044899 0.0226444651660856 -0.129095537211426 -0.0516264392381792 0.196848184250884 0.144220557959275 -0.23972773505617 0.0130342007379641 0.573070830481156 -0.319997277144968 -0.00515300229194745 -0.203219888811259 -0.425931814832235 0.897972741481089 -1.33160732029219 -0.495903322752818 0.105149066077552 -0.494387915332963 0.403306118709523 -1.33651658213045 0.545501419755633 0.111437981158932 -0.782122235357861 -0.690521590384699 -0.0211275150851311 0.359507398999253 -0.113792081996427 -0.234502741912923 0.241404093450716 1.15076013118336 -0.305654128464269 -0.406713342857457 -0.676249404114566 -0.125631234602819 -0.328045082989707 0.0140760112003416 0.0327252412294862 0.652586525512775 -0.0793490876328974 0.111262374903798 -0.798341774155646 -0.113215640965664 -0.493797590352306 0.554319270599093 0.446665694226867 -0.692713454696587 -0.068726837523651 -0.313281816269638 -0.869573636194338
0.225118477335845 0.0490427390070755 -0.240861076743771 0.84297224530861 0.0993193497833885 0.91331964831705 -0.670066675538852 -1.12163134719665 -0.427861426757245 1.44393670245632 0.869817633758207 -0.182700953529793 0.923468558579002 0.32466485541101 0.0264160144436316 -0.848877294886454 1.04670558315575 -0.217097153839978 0.133779570529193 -0.335394063356473 1.6765180599701 -0.546490008410085 -0.360235792148294 0.847992835856203 -0.341561108211011 -0.893072735609422 1.78054278321646 0.559443733660704 -0.102512144038523 0.691744406416058 0.484395585172587 0.0203901230796773 -0.83137889003737 0.136479741673292 0.53749732264204 0.228315642464094 -0.0617426965068632 0.508038666290271 -0.319232117239728 -0.167486458438186 0.253591116134995 -1.3367441246426 0.83913873247691 0.0252585043988084 0.141426798708487 -0.912538804690633 -0.730704055368084 -0.0546744804601649 -1.25661625026475 -0.367482699772325 -0.164854935713004 0.523113036332027 -0.457761798403774 -0.161776812599583 0.375453115451917 1.30260143497306 -0.207209724634353 -0.0863437701671969 -0.320842141207005 -0.466876097288479 -0.408188641088731 0.125046823156377 0.119275727983986 0.0104785255168306 0.260188306326047 -0.262324377728178 0.249120484269294 -1.3341128590276 0.157156285497069 -0.114076960079427 -0.241081420170784 -0.693296066371746 -1.33290984048035 0.842668855292419 -1.01581996528715
-0.150784838046877 0.02870558062514 -0.127614839666304 0.946682008580537 -0.125117271346577 -0.6274699459351 0.0816180849997488 0.300548691556216 0.996046906647178 -0.897499915854161 0.761886378388111 0.645241916019123 -0.126318490122546 0.345226728093074 -1.16486519583441 1.14504431470036 -0.726531157094543 0.812276888975587 -1.94288652377003 1.69387453999805 0.216803791120932 1.60422587553584 -0.710151181542433 -0.335387121381527 0.294709205075091 -1.02745960039136 0.708797239317635 -0.523721873245874 0.816263382366299 -0.253125232483013 -0.910127882502649 -0.153569598441253 0.33806440971932 0.278275750604872 -0.395561959991159 -0.591063401102376 -0.0644552089397564 -0.667335136952401 -1.15036649549286 -0.341085968592434 -0.116560387339078 0.254008405962349 -0.238613933742493 -0.0451925140134665 -0.270536991200356 1.41390160507379 0.682964607879713 -0.643768931779498 -0.226399143158427 0.401727976404964 0.28140478153457 -0.442998274573522 -0.152097899752543 0.490195219575314 0.188392344545387 -1.56242721594078 -0.497869187213662 -0.236355992113519 -0.247326626521019 0.439689780735942 0.427390915121966 -0.348217433744203 1.11482924018958 -0.122721261549218 0.593025923130838 0.244109663908663 -0.277567412050122 0.761044085427907 -0.0684291039314907 -0.204156798318886 0.254066769973938 -0.735124036527692 0.325453669453107 -0.361787194993799 -0.0758475040477246
0.129428752008869 -0.0728686254650232 -0.388206037649446 0.388652895147869 -0.0399672637600363 0.18342266181407 -0.338714127152298 -0.496512416776848 -0.656082195563734 0.22194805166665 -0.445854511598831 -0.0902029940172184 -0.590942045095899 -0.133601393172227 0.369738841630016 -0.0226246676819782 -1.16403910081574 -0.493591902205736 0.554853802669992 1.6253819298513 -1.04758489998233 0.284885282084719 0.425043242039052 -0.427951158211186 -1.06479148477347 -0.335149294462055 -1.21748742281217 -0.950968035334692 0.484992595018007 0.176129988577428 0.114443599200688 -0.0720206760807879 -0.054293700278827 -0.0595773145438464 0.00106186505666814 0.00800229734230977 1.15410693443824 0.911627606201328 0.438481877095209 -0.509449429865558 -0.438702220522222 0.386087192629591 -0.63185881676254 -0.0680704352259091 0.161984300517435 -0.0249679698917781 0.516787354494447 0.341260803517019 1.31133983876991 0.561119063614517 0.363072745909862 -0.393985360347699 0.22052186148037 0.213812314139253 -0.621318070581372 -2.03572104051242 0.163901571153652 0.0480122413927593 0.498606322108932 -1.01351934336776 -0.150386317262897 -0.0572247563674509 0.383227356061717 0.445192967097425 -0.287607050484208 0.698314857148057 0.310854953250294 0.06101816001057 0.223794617002483 0.276554655038447 0.374194303994907 0.19063665933465 0.11930966652817 -0.0330157757365165 1.08705105599529
-0.240158394613051 -0.184932669920078 0.293263988735252 -0.655217791127773 0.565623891134586 0.493488029691718 0.707088227929821 0.159553066624977 0.912998774808401 -0.393517419814252 -0.709465982904172 -0.518029453789547 0.56142579606309 0.668692678719764 0.000938195058542872 -1.04277154024241 -0.464169498389799 -0.888209239383772 -0.676943344499057 -0.316944865049868 1.70149811404048 0.012221475448829 0.197294013308575 1.28552880458737 2.25107035932692 0.628545952051845 -0.351949130943351 0.614327501810004 -0.20215390999166 0.716168331160158 -0.382728819416467 0.388767823399766 0.0873120471171756 0.366206661933041 -0.0487820292812979 0.234701488084546 -0.229549000012965 0.15878584983827 0.0893221345295319 -0.279368211773343 -0.980389153599713 0.44937255023573 -0.629066343062667 -0.173337000657189 -0.76668096908466 1.24888340439444 0.216490373807596 -0.809357402845208 -0.102196926953904 0.0985878713121485 -0.239155407788339 -0.59763513738529 0.3832276131719 -0.169351021486843 0.1002182069839 -0.954849370660469 -0.307265437982462 0.445846026962785 -0.207008150250714 0.169624329611599 -1.1620655230494 0.164876790078577 -0.870081171696 -0.460930167191504 0.212157295889914 -0.765847417870685 0.142487121104055 0.0503416596526657 0.0218085999604614 0.493774707546001 -0.109281598052328 0.329800631320683 -0.091400870360806 0.458370121097256 -1.09989936607079
0.0911715280773803 0.165533449486502 0.190507332912494 -1.36693194547396 0.3931322687598 0.563791466858829 -0.482425864058995 0.854864619722927 -1.53071061796003 -0.390995168916937 1.13405182592729 -0.557877161314389 0.00542348220468713 -1.12375867685255 -0.558743108411449 1.21979087294357 0.470251182663511 -1.08959516125818 1.78360599393925 -0.701236400159902 -1.50970625865266 -1.47005421197724 0.134859947519053 0.674904974966547 -0.560750110501607 0.747529345757518 0.869522471267879 0.876989722318923 -1.01125086022127 0.454323206813489 -0.787583255649297 0.0843228841271456 1.29731190717382 0.597026557581626 -0.203756477763624 0.590440166018268 0.616562303522488 -0.0802538583676226 0.0807642220812997 2.0919775199299 -0.309089891842539 0.313869827258645 -0.703662748958879 -0.166145114612365 -0.350209009223368 -0.590636855308426 -0.455215122039053 0.554776669615028 -0.271688073490599 0.846531164464639 -0.0867083524069924 0.15253858660657 -0.372756286740199 -0.10115460227116 0.110884165824292 0.289898159326816 -0.573937806018949 -0.619167086788615 -0.786420346290627 -0.0108953011238182 0.165426234540103 -0.779916229985897 -0.184420249324935 1.0677806477635 1.27661016655209 0.215185796737975 -0.752430122959734 -0.617172683097435 -0.00726182001465741 -0.300447647254213 0.744343236367147 1.32420023302402 -0.482404523913789 -0.53495630270135 -0.568379083857892
0.45952454581988 0.423381281814765 0.269574884894774 0.474582203699728 0.494732957198834 -0.609658380882862 0.0575515434103142 -0.305420415307729 -0.53423845106982 0.885542492563491 0.00713609313506643 -0.018670313064168 0.847066210755905 -0.330131532126477 0.32148517377522 -0.808565760591096 -1.02354535496213 0.411172147654731 -0.895073052834817 2.57912829782579 -0.490475726785199 0.704557749506643 -0.0519372854496833 -1.06118937110666 0.0638795392395433 -0.644734123407278 -1.67158900064773 -0.0816057437109546 -0.222889589157575 -0.361370419386811 -0.348744509619789 0.408589732974543 0.943456047111768 0.0333567038394564 -0.107652033711126 -0.178599274777002 -0.53086028037259 0.383045064941819 1.46113223150958 0.417553879512251 0.186189167385438 -0.705229321305194 -0.192403263403504 0.237708648787401 0.435430493440842 -0.157358374101074 -0.780452047607712 -0.159275901847474 0.368917117484468 -0.788000802586835 -0.403689727102877 -0.0316407504766954 -0.226241534616118 0.59003136082696 0.810866896730849 -1.52083964380613 -0.868061056986498 0.253254044684803 0.204398224780923 0.189490976358255 -0.33928414042848 -0.529214260979662 0.641153864106043 -0.319270426657026 0.289565201639556 0.588546549518907 -0.421121283304326 0.578691773306551 0.55176925180199 -1.61733643799821 0.875769477389396 0.102851015259997 0.366611353361417 -0.137277297461618 0.555952948703226
0.0415523480395421 -0.214751537638529 -0.0321757967679608 1.14619951075353 0.993388130242576 -0.294368019861967 -0.588541664425426 -0.478056019385113 0.0953179440020504 0.710043195265484 0.762884994339709 -0.0837045341365193 -0.566754661720355 1.13522296281182 -0.00930867418321312 0.875553247725314 -0.0525857173317455 -0.0618080024933992 1.21874289183679 -1.73346822266188 -0.841601076701537 0.445725185176675 -0.455010976553583 -1.44945994341209 -0.366336502575563 1.09931803994654 0.552430539193213 -0.589075939386142 -0.0575957663618267 0.0977345226140658 -0.436253760247489 0.485365147673482 0.0848623012915257 -0.87975057146626 -0.233625996188168 -0.236757341109514 0.55300569467306 -0.531154414422185 -1.03842175016282 0.000612179346229262 -0.41360903797122 0.113469408716495 0.620546997141917 0.00544045147677916 0.389167886844844 -1.67105061192408 0.71850777671721 -0.324688766658049 -0.939467753949774 0.228533671899459 0.212309762228559 -0.181633174938911 -0.0328944197300401 0.0836358857176015 -1.10461939481421 0.484710802257206 0.39374213411438 -0.224216020592769 -0.378750810661802 0.264394371813223 0.0166458274815518 -0.118682060570948 0.3819502897817 -0.083044018075846 -0.300764921220298 0.777248454724883 0.422841093319836 -0.256899095752208 0.270195805987232 0.391618146890861 -0.467465393828402 -0.790099335902216 1.1876580135762 -0.188057587086845 1.44593367724933
0.183076334397283 -0.10326341999387 -0.397920688811952 0.802110238110994 0.235511642271849 0.705853327719851 -0.799972624047764 -1.40272194008734 -0.220727806737123 0.609649639136633 0.102281773314364 -0.429164204055584 0.0462044996945914 0.204856652237591 0.245543567400439 -0.00885950269314066 -0.216139932627877 0.5489433537783 -0.97506851546831 -0.628858855144815 -2.64666034432805 0.601616488572338 0.465704189073396 0.453693801084984 -0.463352659337733 -0.83849287169668 0.324875685761245 -0.934265643612833 -0.0171435927962515 -0.622249066554785 -0.0511212177281664 0.107060166069371 1.05551469225298 -0.145828525045087 0.150610774452842 0.00435801760545401 0.846925314375504 0.524485747600199 -0.898759498641719 -1.88816447792597 -0.323113195455322 0.613076146548308 -0.710665144798675 0.0768628321612313 0.195071552884885 1.06086284117398 0.654436690391173 0.0296113798005981 0.160493318564985 0.305586508486084 0.188994753704655 0.128932786465452 -0.00293542696173855 -0.122222724903969 -0.436056042516598 0.433644606108247 0.546063719726319 -0.0162030837460597 -0.150683279524508 -0.99409749723806 0.370847757850212 -0.0273159000848758 0.435388584480978 0.275076528595158 -0.258191845753401 0.369371688288388 0.510625708953756 0.041293438085047 -0.147956368921354 0.612423600903314 0.781782592805837 -0.328255399119575 0.22071238012613 -0.115257352930556 1.09165332827479