5.0063585999 6.1146779463 2.4780774172 2.5951822901 4.6241921408 4.7169699415 1.9315910779 1.5655491658 2.1634609227 7.0569406113 1.3951784908 0.2653557727 7.7129787917 4.4379697336 2.8313970748 1.0009632335 4.6167270953 1.9457359339 3.5077058479 1.4076687841 4.6074226262 8.6489668892 1.3871029576 3.0512985822 6.1362040664 4.5765863870 0.3637218981 1.2817823499 4.6132501122 3.4681667166 3.5828404464 1.4899823626 1.2210329447 8.3769229192 1.3869870253 1.5219987048 6.0644345894 4.4957209084 3.7466143597 4.5988005667 4.6747251691 0.6273226720 0.3522838778 1.3734103954 3.3661424760 5.0600519764 1.2981300743 4.3596593576 9.2714377818 4.6097364665 1.6412620740 1.7503712251 5.8799469384 1.2321956564 2.9094588283 0.2206367133 3.8313709395 7.9695258512 2.6740499132 3.7247760547 6.6329399236 3.2728695967 1.0934178748 7.8884306051 0.1302702000 3.7719727020 6.7545125005 5.7591322160 1.1515228981 1.6664893108 3.3410242583 1.2638023543 3.0237766734 2.6886066708 3.8453873674
5.0041606430 6.1081659725 2.4957258720 2.4537623669 4.5150237578 4.7725543422 2.0272547572 1.5881847219 2.2963830504 7.1928996984 1.4812250019 0.2133895003 7.6220752355 4.4199821721 2.6751273734 1.0204010919 4.6029021025 1.9024143610 3.5167778858 1.4398113088 4.5484950620 8.6211179971 1.3811068290 3.0790201647 6.1252792776 4.5720286397 0.4451000792 1.1581069648 4.6180042007 3.4422700931 3.6427810434 1.4884942090 1.1848628649 8.4838762164 1.3584332247 1.5367911101 6.0236762670 4.4950402124 3.8056813903 4.5946591766 4.6121631849 0.7711118214 0.3315069420 1.3887040465 3.4915055299 5.0555290098 1.4165051839 4.2247621013 9.3150870024 4.6010543956 1.4764928657 1.9667912332 5.7506016019 1.2981322366 2.8706686325 0.2410166478 3.7934189982 7.8608349965 2.6492324956 3.7236392908 6.7150264437 3.2888884410 1.1488612979 7.6886060681 0.2205662824 3.6883179535 6.7886078252 5.7805361623 1.1904801522 1.7895678288 3.3392287192 1.2671082212 2.9242078467 2.7188192701 3.8534520654
5.0171461664 6.1120785775 2.4849082936 2.5876904412 4.6001766391 4.7256385171 1.8887486025 1.5786076317 2.2110870609 7.0594961380 1.4166495170 0.2574720062 7.7519700518 4.4290376691 2.7751713914 1.0611542986 4.6240457614 1.9518751224 3.5409045330 1.4210974132 4.6066364531 8.5674600140 1.3729002720 3.0435046967 6.1146975324 4.5688626801 0.3697086537 1.3075819477 4.5730005133 3.4297651223 3.7176718158 1.4701649243 1.1865245792 8.3532112067 1.4211561623 1.5612937095 5.9398021949 4.5267071862 3.7870238614 4.5921362973 4.6941229115 0.6917405881 0.4717487668 1.3811920168 3.3284407340 5.0565245996 1.2892302595 4.2863258560 9.1942099220 4.5952234186 1.6747571165 1.7150882436 5.8432801042 1.2366913339 2.8890916995 0.2150983252 3.7929530316 8.0132317389 2.6331540947 3.6945044543 6.6096631179 3.3212926482 1.0923226176 7.9195975899 0.1710598988 3.7786710894 6.7686011743 5.7489031023 1.1952432957 1.6291824968 3.3650097980 1.2874422482 3.0405189610 2.6603797575 3.8535424279
4.9950283833 6.1052345318 2.4991704884 2.4247018016 4.4881388566 4.7925984603 2.0313681538 1.5468913970 2.3326868336 7.2206836311 1.5028176443 0.1815967681 7.6301664370 4.4428345922 2.6611361782 0.9660548891 4.6380669274 1.9487902887 3.5566544821 1.4630918662 4.6216325461 8.6931947097 1.3544056480 3.0265727414 6.0874751901 4.5492334899 0.3695750188 1.0301726902 4.6400842825 3.5136221748 3.5812228632 1.4793539756 1.2211669131 8.6202869545 1.3811019691 1.4618179949 6.0571780554 4.5093399122 3.7594724169 4.5767286770 4.5280502037 0.4891529040 0.3638122007 1.4073740385 3.3882921846 5.0721105716 1.4981749138 4.5073032729 9.2782946553 4.5839727086 1.5756611230 1.8441660150 5.7900562089 1.3944179876 2.9410621974 0.2689845251 3.8310621930 7.9049522977 2.6477485794 3.5948368873 6.7382221917 3.3621893295 1.1233370393 7.8007171966 0.1947148151 3.5882954514 6.7025981608 5.7593840940 1.1569331925 1.7200980510 3.3323305057 1.3875675990 2.9145522397 2.6541549487 3.8785022799
4.9987580030 6.1023642630 2.4775558909 2.4187526817 4.4877024458 4.9754261795 1.9747927462 1.4791112145 2.3677581324 7.2206105615 1.5127937505 0.0085097716 7.6724655916 4.5038068397 2.6335177532 0.9913534064 4.6436144290 2.0565995772 3.5091651292 1.3802317496 4.6382590696 8.6541899860 1.3628099035 2.9209423136 6.1489821571 4.6177476838 0.3428205009 1.0368754546 4.6527498456 3.6007911839 3.7198358020 1.4746536881 1.2778793387 8.6294244073 1.3498184895 1.3805745024 5.9401238994 4.5269267989 3.6991380619 4.6531258547 4.6566303869 0.7293291254 0.3251778668 1.3907481055 3.5359276711 5.0066678251 1.3362784350 4.2407611481 9.3268692513 4.6194491680 1.4549135480 1.9296953317 5.7621769274 1.4977911788 2.7563718268 0.1917406684 3.9495683942 7.8231499086 2.6350671893 3.4365331886 6.8708003858 3.3715749467 0.9013143204 7.6939298899 0.2571773162 3.4934580009 6.8969169610 5.8075684420 1.0403702167 1.8187832771 3.3769033320 1.5357943557 2.7833156308 2.6229036247 4.0837314207
5.0010538835 6.0979451362 2.4780177168 2.3878308259 4.4876371804 4.9455322666 1.9569928150 1.4803055432 2.3640521442 7.2509148083 1.5126469244 0.0359227683 7.6892986933 4.4962360110 2.6453507964 0.9716384026 4.6253920210 2.0392935043 3.5349988334 1.3953808508 4.6679498528 8.6799071010 1.3768194382 2.9374295154 6.1222638895 4.6103776463 0.3155028019 1.0046629263 4.6538608694 3.5797914479 3.6895646272 1.4720581637 1.2576649328 8.6704854442 1.3541745435 1.3976830891 5.9729657900 4.5376483111 3.7284997834 4.6680307127 4.6295510073 0.7209818031 0.3383709650 1.3961793608 3.4761112595 4.9902105697 1.3620669827 4.2485492994 9.2937506439 4.6226487967 1.5047427542 1.8898903144 5.8436333443 1.4737380331 2.7945934752 0.1902850746 3.9562758626 7.8898560754 2.6241224293 3.4235092516 6.8516197794 3.3760282364 0.8917750216 7.7350379028 0.1877850959 3.5111158809 6.8585094127 5.8077778275 1.0283608052 1.7586404474 3.3763699092 1.5531497446 2.7971986682 2.6206205202 4.0825467019
5.0023858370 6.0957448184 2.4793179107 2.3746119480 4.4875107676 4.9262292648 1.9502979524 1.4819202168 2.3626180215 7.2648815981 1.5125678049 0.0544761847 7.6960003053 4.4923473421 2.6498121738 0.9967916613 4.6198689656 2.0503063722 3.5322676742 1.3968806907 4.6988524289 8.6473453019 1.3809306827 2.9221847167 6.1264346444 4.6113800437 0.2860607867 0.9874801313 4.6550601435 3.5791757382 3.6712338147 1.4686782142 1.2493807824 8.6874733073 1.3550936628 1.3954365179 5.9917856864 4.5452951001 3.7389550200 4.6340378060 4.6138732315 0.7196378474 0.4176687864 1.3951668708 3.4672070816 5.0152875319 1.3779689294 4.2511422621 9.2245079269 4.6265094463 1.5194059192 1.8584826928 5.8697424867 1.4578755675 2.8194570503 0.1896505750 3.9521115011 7.9178458228 2.6257897437 3.4328339517 6.8458223502 3.3569474132 0.9036294036 7.7708091825 0.1623303622 3.5213682406 6.8339708789 5.8098286934 1.0301732904 1.7334452066 3.3718781307 1.5461696899 2.8010870485 2.6407027970 4.0655396998
5.0219730404 6.1094463368 2.4906319212 2.5767530118 4.5845390466 4.7412760206 1.8776072055 1.5855627606 2.2399250638 7.0701084774 1.4301677078 0.2456873823 7.7602922640 4.4249930754 2.7403174107 1.0490393669 4.6374870520 1.9110396201 3.5773645841 1.4126243807 4.5980445509 8.5989466574 1.3540012324 3.0798872472 6.0750176901 4.5765087580 0.3740505365 1.2579685395 4.5671884937 3.4356183906 3.7615742146 1.4682563509 1.1454960437 8.3914231402 1.4165133328 1.5554740127 5.8964199895 4.5417922755 3.8348360042 4.6049638423 4.6992167367 0.7493196355 0.4004823757 1.3793962311 3.2897032808 5.0437851595 1.2913356640 4.2189836612 9.2421656455 4.6003088753 1.7055468918 1.7295176184 5.8099593969 1.2385895239 2.8489439615 0.2210671974 3.7888533138 7.9913834115 2.6571245450 3.7224879445 6.6377697621 3.3090663823 1.1015872393 7.9015694070 0.1937885028 3.7746199364 6.8141389072 5.7551681133 1.2074433832 1.6555586927 3.3383279764 1.2615031887 3.0129671831 2.6736527092 3.8633537901
5.0014601401 6.1036396582 2.4944608974 2.5370193439 4.4633415274 4.9776817303 1.9868031343 1.5035038353 2.3996808363 7.1145216051 1.5323194268 0.0173105016 7.6632485164 4.5165246119 2.5656265310 1.1479993741 4.5768624266 2.1606704356 3.4707772191 1.3917549453 4.6923903804 8.4972167428 1.4253608369 2.8326834622 6.1717299774 4.5970969159 0.2872081268 1.0919848715 4.5953894973 3.6947522677 3.6556546816 1.4490560481 1.2991494002 8.5318366562 1.3918947705 1.3055967416 5.9862042967 4.5412531715 3.6791187970 4.6836129246 4.6634263543 0.6863142941 0.2810065383 1.3822089303 3.2494537404 4.9649680497 1.3295328838 4.2975957968 9.3744454989 4.6081864484 1.7433364407 1.9696883295 5.7685097165 1.5346553162 2.8098504469 0.2168791977 3.9035764874 7.7973579948 2.6730989813 3.4912967781 6.7594914216 3.3499736708 0.9910641583 7.6914048322 0.2217695518 3.4578377532 6.8395613925 5.7756052522 1.0718563058 1.8521481244 3.3300433140 1.5001787158 2.8966210246 2.6468557064 3.9870126256
5.0030234337 6.1149842739 2.4765641925 2.5910232834 4.6312329357 4.7187458823 1.9428743880 1.5610765599 2.1505556710 7.0646467270 1.3882886467 0.2647190499 7.7030860280 4.4416558233 2.8465497432 1.0129234297 4.6253028181 1.9289185558 3.5135004741 1.4180602442 4.6232866326 8.6393949276 1.3825076216 3.0648934216 6.1326897384 4.5619700327 0.3456775420 1.2401177689 4.6317406249 3.4590976448 3.5544047416 1.4966017987 1.1772273247 8.4136881169 1.3687544168 1.5338820090 6.0836936455 4.4889808718 3.7915725835 4.6375696227 4.6651934279 0.6146645074 0.3748669134 1.3712206641 3.3779632234 5.0120332255 1.3048126664 4.3731203890 9.2475032427 4.6168435073 1.6334425869 1.7615493448 5.8552529167 1.2499088061 2.8925445584 0.2083863011 3.8354381733 7.9525493542 2.6717682893 3.7317862530 6.6461914375 3.2761551863 1.0867515595 7.8777945141 0.1523504776 3.7479526742 6.7718994593 5.7746576713 1.1434669032 1.6858109797 3.3415677204 1.2581220497 3.0103622772 2.6864440682 3.8530616109
5.0031223468 6.1019977976 2.4976174610 2.5475043351 4.4615905054 4.9672069917 1.9788080552 1.5044231452 2.4060732802 7.1053678889 1.5329258625 0.0277668761 7.6704998178 4.5204649011 2.5561656442 1.1860568110 4.5906397393 2.1801463130 3.4693530943 1.3899017944 4.7115628382 8.4561608980 1.4094544101 2.8147711995 6.1731460219 4.5988439897 0.2650714115 1.1290423283 4.5731861950 3.7076318698 3.6305539302 1.4523167794 1.2791086142 8.4971158653 1.4143273219 1.2905417180 6.0108586847 4.5392424797 3.6961534614 4.6363917082 4.6538852449 0.6773256624 0.3410849448 1.3910170141 3.1986381205 5.0048515618 1.3380228276 4.3137796815 9.3286042853 4.5995888165 1.7909724618 1.9483347336 5.7455937930 1.5512392753 2.8130177103 0.2144686223 3.9082270027 7.8059602122 2.6766475175 3.4905092479 6.7471841590 3.3261172426 0.9964875022 7.7088026040 0.2401531349 3.4478214903 6.8358917784 5.7814131189 1.0669306675 1.8441563255 3.3224384350 1.5077249349 2.9053675363 2.6689843029 3.9786540713
5.0187064989 6.1062370540 2.4962330775 2.5117761021 4.5431280934 4.7677595800 1.9489099767 1.5986909726 2.2786237440 7.1339726371 1.4630381655 0.2228053648 7.6885944536 4.4138280472 2.6926873513 1.1094324521 4.5782132671 1.9025259824 3.5770727288 1.4177090362 4.5522329664 8.5265928886 1.4064282887 3.0889082232 6.0811594261 4.5820267140 0.4334732894 1.1443508325 4.6092271648 3.4257220678 3.7085255308 1.4859796844 1.1010321010 8.4850682376 1.3515260819 1.5684836016 5.9535007260 4.5281941882 3.8884896274 4.5732109010 4.6782874407 0.8642357772 0.4420211746 1.3503607564 3.4073645027 5.0798068010 1.3361986558 4.1152327763 9.2281732939 4.6365167897 1.5744611067 1.8786384024 5.7741979854 1.2155914356 2.7840988771 0.2520820923 3.8156009950 7.9117136013 2.6369046257 3.7751750628 6.6978928269 3.3155434583 1.0959172251 7.7754539856 0.2085845201 3.7570258071 6.8638913429 5.7386206893 1.1658349247 1.7485789009 3.3538293312 1.2050843801 2.9374931121 2.6864073808 3.9013874836
5.0231731116 6.1081689573 2.4930903526 2.5693234352 4.5762186155 4.7485886188 1.8815160315 1.5893899557 2.2524030356 7.0775383009 1.4371639613 0.2401986281 7.7552117670 4.4223922068 2.7252245481 1.0303797004 4.6221534661 1.9004180098 3.5786931929 1.4035240548 4.5693923120 8.6271765006 1.3651076000 3.0895692268 6.0690922487 4.5859570672 0.4051278549 1.2249504473 4.5717155400 3.4414334511 3.7582799781 1.4684365968 1.1666818173 8.4171851744 1.4058895354 1.5496610628 5.9004444695 4.5480500614 3.8117413407 4.5792868668 4.7011159302 0.7833777662 0.3460662854 1.3737366834 3.2831928391 5.0771639097 1.2931573656 4.1812916984 9.2850211768 4.6080660932 1.7078759249 1.7640069343 5.8253704770 1.2200983872 2.8311125406 0.2360696353 3.7992252896 7.9708680737 2.6720792049 3.7433419202 6.6581239458 3.2976299004 1.1042402600 7.8686237322 0.1747156105 3.7865957906 6.8324890964 5.7466691664 1.1981176712 1.6777121094 3.3245283639 1.2419634843 2.9920334401 2.6846195842 3.8709303562
5.0212637303 6.1062649391 2.4963755170 2.5288035173 4.5507138656 4.7643007250 1.9268663077 1.5983757106 2.2752010020 7.1175076407 1.4573963721 0.2265662407 7.7092473413 4.4146219902 2.6972226068 1.0955144550 4.5728661107 1.9035216789 3.5725949463 1.4054807523 4.5374361146 8.5414477782 1.4100705464 3.0869965141 6.0833956415 4.5913947425 0.4483125964 1.1528206978 4.6008097876 3.4309601081 3.7196312493 1.4799097977 1.1412250111 8.4761409849 1.3621203187 1.5630112817 5.9410108587 4.5395562277 3.8418234044 4.5430911319 4.6901112305 0.8609205586 0.4466732862 1.3513040126 3.3691811732 5.1139511355 1.3191052226 4.1118454156 9.2264923926 4.6345707134 1.6167109879 1.8627500262 5.8141905610 1.1985241829 2.7876317314 0.2616759906 3.8204912438 7.9245644740 2.6502552518 3.7736008148 6.6947251361 3.3084617726 1.0958553022 7.7867709922 0.1761385791 3.7796463881 6.8612573473 5.7240507420 1.1634333028 1.7332055116 3.3416994824 1.2079137002 2.9434441829 2.6888427604 3.8980451222
5.0046255139 6.1005377623 2.5003348185 2.5529726636 4.4597212257 4.9547984733 1.9701409083 1.5054576897 2.4123618731 7.0996732411 1.5336486865 0.0391992010 7.6785212060 4.5235234582 2.5475820382 1.1985846122 4.5930027704 2.2006827157 3.4751167546 1.3914441570 4.7197924480 8.4430731459 1.4038876945 2.7984746845 6.1676331969 4.5983348364 0.2535964064 1.1714424908 4.5526331466 3.7222660992 3.6083471261 1.4547718796 1.2611857259 8.4608511299 1.4353791869 1.2741314616 6.0326761165 4.5378485610 3.7122842192 4.6151702106 4.6442082809 0.6669045056 0.3593326919 1.4011213696 3.1492339796 5.0238532479 1.3466043845 4.3313205005 9.3157574604 4.5904541704 1.8349306091 1.9398526627 5.7383620903 1.5551415431 2.8171184779 0.2138747236 3.9169835588 7.8186988501 2.6685401944 3.4866701389 6.7312828680 3.3141153021 0.9938510565 7.7146401204 0.2459830769 3.4490374743 6.8299317455 5.7834922493 1.0574549542 1.8324746210 3.3263807577 1.5167059317 2.9172709910 2.6796482114 3.9792321045
4.9980899583 6.1093987536 2.4973029770 2.4370928959 4.5018397079 4.7790511558 2.0505744280 1.5796192796 2.3026339220 7.2099486147 1.4899719687 0.2022093408 7.6060469351 4.4245394138 2.6728449854 1.0458275836 4.5939779910 1.9160994681 3.4941697282 1.4505354655 4.5942764923 8.5842469065 1.3870621979 3.0587486782 6.1533891500 4.5657133801 0.4031171968 1.1385795346 4.6200077250 3.4398810132 3.6276792685 1.4859729397 1.1715210600 8.5110058164 1.3744959215 1.5359991959 6.0267303155 4.4905819615 3.8237844472 4.5761043862 4.5791491516 0.6733881401 0.4583838922 1.4059164655 3.5192303258 5.0662399417 1.4516935533 4.3256434027 9.2068628044 4.5839609592 1.4500249428 1.9728747977 5.7940730452 1.3478138571 2.9096256574 0.2458976561 3.7876472939 7.8807439760 2.6288053626 3.6463014232 6.7233170092 3.3079734739 1.1661585467 7.6838770687 0.1960601913 3.6467857485 6.7417847696 5.7719705045 1.1910739943 1.7620119440 3.3449001651 1.3449614871 2.9171658444 2.7107475430 3.8322991900
4.9976455156 6.1056978370 2.4800107714 2.4528006108 4.4831286648 4.9921555288 1.9917015848 1.4841977171 2.3718111990 7.1889090600 1.5169717335 -0.0045966768 7.6570350883 4.5076927026 2.6189493267 1.0606041050 4.6204908618 2.1078455816 3.4773030974 1.3646916799 4.6725682961 8.5770542554 1.3878191619 2.8760970265 6.1845974403 4.6270717103 0.3070116177 1.0524230110 4.6512531260 3.6314860622 3.7359394677 1.4688510315 1.2518279701 8.5979849187 1.3446589311 1.3521348349 5.9182023041 4.5257233348 3.7230162149 4.6242771850 4.6753570840 0.7340521438 0.3748697946 1.3772421739 3.5661685856 5.0242700170 1.3196194048 4.2383512314 9.2867952645 4.6230483061 1.4359215829 1.9726786461 5.7392357279 1.4970462691 2.7439995076 0.1904795568 3.9260153256 7.7851459486 2.6368873616 3.4616174246 6.8774726795 3.3410876604 0.9414634594 7.6670305290 0.2718728929 3.4898075991 6.9077929773 5.8052627342 1.0632082143 1.8571835425 3.3802816522 1.5076624069 2.7812450602 2.6551635719 4.0491384916
4.9995480792 6.0980296503 2.4968816195 2.3893633369 4.4844561280 4.7948487170 1.9801972868 1.5228465439 2.3567583368 7.2563988004 1.5088851019 0.1782544704 7.6799481203 4.4571077062 2.6502377538 1.0014339843 4.6071888626 2.0673458233 3.5598284139 1.4457408232 4.6912722067 8.6358600372 1.3900922577 2.9078220210 6.0925453230 4.5671874653 0.2976459463 0.9873404440 4.6588508673 3.5914877095 3.5899099119 1.4670737914 1.2172175543 8.6583526062 1.3647509757 1.3862769801 6.0475443475 4.5413776053 3.7647218594 4.5328901760 4.5164484445 0.4846091243 0.5180595185 1.3867550866 3.3691627145 5.1075281959 1.5016028280 4.5057388801 9.1445519377 4.6129293529 1.6200819557 1.7691964755 5.8133898638 1.3448609714 2.9443257927 0.2454418201 3.8752286939 7.9560003814 2.5892219117 3.5932091347 6.7501931093 3.3414484608 1.0593665278 7.8914638079 0.1793800806 3.6054665751 6.6922084740 5.7675490898 1.1061989299 1.6792668963 3.4004745339 1.3827099957 2.9009270928 2.6759807817 3.9310347524
5.006704641254 6.098504204594 2.504147071552 2.550780468616 4.455252711455 4.928755900819 1.959527827420 1.509057340224 2.421698501762 7.096723949674 1.536085534416 0.060874669223 7.690028681467 4.525786041382 2.534532560032 1.134832643847 4.560872713757 2.233420707344 3.513014065797 1.411060023617 4.681212959145 8.519746608675 1.427828037280 2.774873435761 6.127415138808 4.582915584569 0.289758968380 1.246339515495 4.523495510412 3.749287180675 3.570818437608 1.453438563085 1.274329635970 8.408239737027 1.465205240625 1.259006962429 6.069611525903 4.540537310139 3.696632430465 4.693101061385 4.627525408481 0.644212377314 0.192100279664 1.419701755732 3.056672343730 4.961478191137 1.361175342555 4.364081765790 9.448319591848 4.574273984973 1.914294653250 1.959447250502 5.775510446748 1.527475137033 2.834567896712 0.224108278875 3.941512877845 7.853913451630 2.626517985811 3.472368051962 6.680927257229 3.347526764275 0.964163842402 7.695131263735 0.213183963431 3.480823936616 6.805851974800 5.769867461830 1.029454119135 1.800665421439 3.362182632707 1.535931021688 2.959502326829 2.646448976430 4.006803154578
5.0199498283 6.1107927844 2.4878086203 2.5824984499 4.5924365745 4.7332514644 1.8800781096 1.5820232303 2.2261082034 7.0644427515 1.4233871668 0.2516812194 7.7591581145 4.4271041236 2.7571036694 1.0641877129 4.6369718862 1.9305809262 3.5636587687 1.4197155406 4.6118402150 8.5717730960 1.3577019644 3.0626216495 6.0925472031 4.5694904107 0.3614249214 1.2871432484 4.5676312304 3.4288344271 3.7489341992 1.4687661939 1.1499258025 8.3688448576 1.4218077962 1.5623649810 5.9087720154 4.5344195219 3.8285843840 4.6084959771 4.6968755931 0.7187167355 0.4548112823 1.3819060422 3.3070685446 5.0361947066 1.2901846642 4.2546137673 9.2031874498 4.5957679777 1.6924139306 1.7128652377 5.8153870720 1.2446547527 2.8688654639 0.2137901910 3.7861446728 8.0074185337 2.6400280801 3.7036910018 6.6197088182 3.3203154479 1.0963283406 7.9195899494 0.1943923526 3.7709515552 6.7915062082 5.7551911311 1.2065668616 1.6377264317 3.3550476926 1.2786402936 3.0304081433 2.6634963202 3.8580258703
4.9979076129 6.1004687118 2.4980467311 2.4045916324 4.4851792696 4.7932566588 1.9978455401 1.5301017271 2.3502045078 7.2411150629 1.5071700082 0.1796288664 7.6628502170 4.4527334145 2.6532479070 0.9912329795 4.6197977188 2.0311850159 3.5581752423 1.4472665859 4.6614160323 8.6488218438 1.3751519075 2.9443078747 6.0920637902 4.5650320977 0.3288813687 0.9983335769 4.6529922504 3.5699929352 3.5781712180 1.4712897513 1.2312016921 8.6482324674 1.3710999151 1.4072282004 6.0587559854 4.5306277571 3.7457892852 4.5158430938 4.5161269637 0.4708346736 0.4930805808 1.3943042527 3.3739227419 5.1258148681 1.5050115599 4.5221921031 9.1748543531 4.6020372155 1.6076675692 1.7929034054 5.8077380241 1.3601111265 2.9419666169 0.2589473032 3.8630153321 7.9353904151 2.6136672643 3.5958278883 6.7517162209 3.3430695468 1.0852448477 7.8635891139 0.1842232185 3.5989099046 6.6955807822 5.7603541620 1.1217755073 1.6945367045 3.3724861095 1.3810792136 2.9004074437 2.6743347295 3.9107345103
5.0001809162 6.1149762443 2.4752312695 2.5824649613 4.6371747313 4.7207478711 1.9493518828 1.5571058173 2.1421609334 7.0767793491 1.3818086823 0.2637880174 7.6982498907 4.4455279717 2.8569145771 1.0345709140 4.6312342565 1.9111458320 3.5121308385 1.4335593498 4.6286440064 8.6106129354 1.3797070035 3.0784200247 6.1387420189 4.5438494707 0.3403147697 1.1916223395 4.6498463774 3.4420441728 3.5383193748 1.4993836108 1.1355365451 8.4569818254 1.3508087322 1.5541734092 6.0887659489 4.4874582940 3.8334179914 4.6639801448 4.6561784884 0.6083002844 0.4349413300 1.3707915317 3.3900749797 4.9760141603 1.3112579265 4.3804738133 9.2052853258 4.6230670669 1.6278399246 1.7776145523 5.8227197062 1.2685408929 2.8696083226 0.1982871815 3.8383094817 7.9399576818 2.6527991309 3.7325644909 6.6605449873 3.2902662766 1.0768933801 7.8621958994 0.1842786473 3.7221473900 6.7909860956 5.7821459518 1.1333916601 1.7024148929 3.3551302578 1.2579854321 2.9939724606 2.6775594575 3.8652957794
5.0043194900 6.0913073317 2.4885925711 2.3540223321 4.4872899357 4.8394120867 1.9454620001 1.4954884669 2.3638000774 7.2909317309 1.5108822443 0.1386678086 7.7080126105 4.4766249616 2.6512475129 0.9661409071 4.6467031601 2.0757881998 3.5360796384 1.4334274270 4.7011321382 8.6791184599 1.3591250476 2.8897177485 6.1087175632 4.5767602791 0.2864860830 0.9468502258 4.6654071861 3.6285989290 3.6035366406 1.4526501187 1.3279244973 8.7066873867 1.3520186191 1.3378713454 6.0517888037 4.5716832874 3.6592039346 4.5925262271 4.5513813125 0.6300800048 0.3531368016 1.3793797592 3.3645865364 5.0555484949 1.4507977665 4.3458195628 9.2805269654 4.6369674803 1.6372525298 1.7095453686 5.8028230866 1.3886697906 2.9342584169 0.2105732083 3.9175190304 7.9661240944 2.6334717813 3.5580470554 6.7679784786 3.3417934204 0.9632370498 7.9356352101 0.1862968261 3.5697182472 6.7187898242 5.8032975561 1.0635722571 1.6828728007 3.3741040802 1.4269860530 2.8824491834 2.6589541862 4.0059433283
4.9960259241 6.1093074618 2.4981993047 2.4328352057 4.4967862466 4.7838397643 2.0537487124 1.5733247252 2.3073576952 7.2138110353 1.4939184681 0.1951755082 7.6053617859 4.4278431744 2.6716512086 1.0431696109 4.6009337024 1.9166139722 3.5067724942 1.4597698788 4.6198437298 8.5916245848 1.3813596882 3.0570274380 6.1426386114 4.5563522623 0.3760155608 1.1149598882 4.6233377002 3.4452917076 3.6243700029 1.4860607829 1.1490480883 8.5369774280 1.3800086922 1.5302573065 6.0233891583 4.4909984276 3.8484407094 4.5947849002 4.5640982773 0.6172991108 0.4677453406 1.4113076445 3.5021246578 5.0462260776 1.4664584252 4.3819897144 9.1946352550 4.5785474326 1.4647813683 1.9497850824 5.7993544262 1.3730597042 2.9217699866 0.2483871639 3.7900060109 7.8920304163 2.6249243329 3.6158439541 6.7246409549 3.3302546555 1.1625091637 7.7040449199 0.1942043895 3.6231394814 6.7264496134 5.7699756870 1.1888969679 1.7459291416 3.3453035916 1.3739393637 2.9181833631 2.6912383309 3.8354210399
4.9998955868 6.1051849172 2.4911093527 2.5228393486 4.4656400377 4.9858530593 1.9923325138 1.5018192955 2.3936004718 7.1265242609 1.5311398751 0.0084136070 7.6580345075 4.5127783395 2.5757459796 1.1024194056 4.5646642293 2.1426197630 3.4748047221 1.3919061896 4.6776117173 8.5481165432 1.4392965230 2.8522372133 6.1694145919 4.5978514520 0.3034689273 1.0668097793 4.6158578689 3.6857214413 3.6820329571 1.4476166878 1.3037334539 8.5580649419 1.3716895657 1.3136614047 5.9606775209 4.5416631276 3.6778572953 4.7241276417 4.6715705267 0.6943546675 0.2176706064 1.3764470637 3.3029289945 4.9312420153 1.3223537684 4.2835834034 9.4195029857 4.6148395680 1.6897904827 1.9920643303 5.7874443106 1.5151113816 2.8029052240 0.2166754770 3.9022736421 7.7915471003 2.6617471101 3.4895594898 6.7754158436 3.3689336078 0.9825539296 7.6715617488 0.2082698797 3.4715179948 6.8461768203 5.7721909717 1.0738492846 1.8575548580 3.3449726143 1.4945747194 2.8836165559 2.6291240315 3.9991950908
5.0078515803 6.1073457997 2.4954227514 2.4659584558 4.5221989033 4.7716282996 2.0100487174 1.5915570452 2.2923204718 7.1800317531 1.4768471007 0.2161838442 7.6354389407 4.4179516919 2.6783616069 1.0296903334 4.6074498276 1.8955905486 3.5452280793 1.4387317416 4.5456452518 8.6216173652 1.3791579054 3.0905850383 6.0984637856 4.5700872053 0.4446470289 1.1546224021 4.6181771227 3.4382489794 3.6590056911 1.4906184249 1.1532026063 8.4834445463 1.3507228819 1.5450165242 6.0093858061 4.5000614805 3.8377594155 4.6207901052 4.6291488010 0.8062876550 0.2916828605 1.3774777472 3.4669930882 5.0317743245 1.3970313479 4.1868934954 9.3411855239 4.6119937471 1.4990487086 1.9410278556 5.7259445873 1.2789435640 2.8429446688 0.2367983628 3.7974371800 7.8644626791 2.6490968946 3.7527325443 6.7090561218 3.2952698402 1.1320263802 7.7127401685 0.2380162613 3.7023672007 6.8165642968 5.7814906817 1.1873808931 1.7897848599 3.3442692029 1.2353569246 2.9293997918 2.7087195122 3.8712142237
4.9975979187 6.1065910717 2.4821606525 2.4705347284 4.4786003467 4.9951771484 1.9960923896 1.4890602479 2.3757021448 7.1727018549 1.5209649812 -0.0056553599 7.6533260072 4.5081929475 2.6094040705 1.0736240102 4.5946024308 2.1232328217 3.4710791470 1.3674113080 4.6866675692 8.5651437575 1.4137715454 2.8659552453 6.1894096740 4.6233386366 0.2922272130 1.0531483904 4.6485996110 3.6498562008 3.7346394403 1.4626212999 1.2454147111 8.5888816450 1.3441927641 1.3359073905 5.9158441048 4.5291984451 3.7334793109 4.6467894871 4.6801776593 0.7286952459 0.3437939036 1.3715400836 3.5284180818 5.0003780645 1.3153510723 4.2443665093 9.3110141343 4.6248407856 1.4740975871 1.9952184878 5.7586006257 1.4916173373 2.7529887290 0.1939558807 3.9146645734 7.7810399935 2.6359856988 3.4716206717 6.8610182078 3.3426528745 0.9583776871 7.6547682105 0.2498561903 3.4918920885 6.8975086037 5.7978785834 1.0712667638 1.8637183223 3.3794709853 1.4980078525 2.7995056525 2.6548058109 4.0322026546
4.9978661419 6.1145672691 2.4739550738 2.5695668064 4.6419748165 4.7214890524 1.9499445373 1.5536587227 2.1396693577 7.0925636883 1.3757417830 0.2637302516 7.6991639785 4.4496711270 2.8614463933 1.0438635188 4.6285112138 1.8964219967 3.4954618378 1.4474011707 4.6109978703 8.5946699819 1.3829585072 3.0917454728 6.1560922807 4.5298551282 0.3606358679 1.1445889159 4.6654463291 3.4277909463 3.5274440716 1.4968281894 1.1275269431 8.4996223350 1.3355437554 1.5690780709 6.0890483496 4.4921907832 3.8368843952 4.6601142879 4.6487795396 0.6097440076 0.4830311876 1.3733383939 3.3945409709 4.9802809199 1.3157916443 4.3799676165 9.1755024131 4.6273119554 1.6271859946 1.8063353909 5.7993990792 1.2765099472 2.8467527579 0.1958518661 3.8420897089 7.9297650974 2.6241410176 3.7308846342 6.6798834234 3.3011678884 1.0705200094 7.8341292640 0.2091741598 3.7063639268 6.8073578804 5.7789079468 1.1211915293 1.7165505948 3.3777700340 1.2604330031 2.9723470749 2.6721881072 3.8761335776
5.0023924462 6.0937103064 2.4933361678 2.3640338862 4.4851019064 4.8084828634 1.9564371114 1.5089137226 2.3626932646 7.2815829350 1.5107211662 0.1667572473 7.7020013509 4.4662658452 2.6489119252 0.9778839804 4.6156219819 2.0911067568 3.5599160558 1.4492936979 4.7075154861 8.6683133894 1.3872174660 2.8807692355 6.0872868056 4.5629410815 0.2789044099 0.9622698018 4.6663200154 3.6216830401 3.6019397459 1.4571436185 1.2575528748 8.6845935900 1.3545432245 1.3516184559 6.0417000228 4.5618783608 3.7332275235 4.6044287809 4.5291066739 0.5458861241 0.4061682885 1.3773126681 3.3531513212 5.0447489704 1.4816879034 4.4367725720 9.2232200765 4.6304724260 1.6449138640 1.7205753218 5.8020988030 1.3484105062 2.9518358099 0.2234874260 3.8968662514 7.9781933619 2.5862902093 3.5866908199 6.7418671620 3.3536659298 1.0023278326 7.9371942496 0.1844340812 3.5993881719 6.6913430095 5.7865088780 1.0821214327 1.6659267299 3.4152314434 1.3933789762 2.9089065290 2.6572854265 3.9761397542
5.0154363936 6.1063774041 2.4958604770 2.4952804176 4.5361127823 4.7701157683 1.9708205481 1.5972898344 2.2823804642 7.1501362257 1.4679576521 0.2198908511 7.6687542206 4.4144083910 2.6882314264 1.0990229320 4.5927958419 1.8988294995 3.5784559086 1.4285917234 4.5598044219 8.5413582349 1.3936870478 3.0917258180 6.0776364527 4.5740070903 0.4252717460 1.1432552537 4.6148350632 3.4255532006 3.6957943469 1.4904642577 1.0853246636 8.4882601378 1.3459939229 1.5669175959 5.9684386279 4.5165357916 3.9087356517 4.6091600332 4.6630423994 0.8538379019 0.3981231723 1.3556163195 3.4362105083 5.0414001245 1.3561216238 4.1318068834 9.2604652335 4.6322589266 1.5402163455 1.8920658160 5.7347835069 1.2392230491 2.7935638241 0.2420202729 3.8088723356 7.8951846739 2.6353624857 3.7752065702 6.7002945479 3.3147329596 1.1022690851 7.7631614882 0.2380544708 3.7330270487 6.8576441282 5.7578250587 1.1730182144 1.7650723431 3.3570372901 1.2062709933 2.9348763309 2.6886477213 3.8979948357