-28926.3368538721
-28926.6298493044
-28926.4389116116
-28926.3947310953
-28926.6297562415
-28926.702917547
-28926.7923708439
-28926.5673102293
-28927.0791273894
-28926.7075338199
-28926.6083964046
-28926.4441374191
-28926.5549648389
-28926.4721756065
-28926.1722418191
-28926.4261409075
-28926.1893999484
-28926.340668634
-28925.5550250911
-28926.2849083193
-28926.6919377593
-28926.5351940099
-28926.4719339695
-28926.4111983279
-28926.5829754068
-28926.4527220621
-28926.4546905326
-28926.4038613263
-28926.639100762
-28926.4872971008
-28926.692844306
-28926.4106268892
-28926.2540734834
-28926.6258938597
-28926.3572309704
-28926.8836162816
-28926.712196216
-28926.5510240883
-28926.4202131827
-28926.6910079468
-28926.7968424883
-28926.5745658689
-28926.5389083619
-28926.763886118
-28926.5309923023
-28926.3954385909
-28926.2472658789
-28926.5066728207
-28926.5148356875
-28926.4706203407