0.0342079956560734 -0.0292380558145734 0.0344597065254386 -1.00267495006022 -0.203813299114114 0.453260570426271 -0.763228236434298 0.0609487402611026 0.61554131898495 1.21199272108673 0.0739562015400125 -0.335083217144969 0.824492965110569 0.047218542257182 -0.715416798094628 3.47863161622754 0.411004768925459 -0.489965877291889 0.777565214470601 1.39242930523297 0.642990145034547 -4.91323470481288 -0.297385207861968 0.0510533406397983 -0.106876075178191 -1.3637242388282 -0.47601893540352 -1.08095445933095 0.120277429257782 -1.10110521283006 0.969102273666862 -0.119145116010914 -1.77386897419081 0.980430291229026 -0.16007757139873 1.25907345228571 -1.20010497465571 0.246168088035463 1.86994462190279 0.982031059229708 -0.0717563668124453 0.355331672513696 4.46642245778158 0.0280455787848332 0.332023605964739 -1.48469020915662 0.100338791659827 -0.411672226961079 -2.9533087178708 0.0332345765024304 -0.049491910497148 -0.0170008966445685 -1.2786837601797 0.649278288785378 -0.852320000239671 -0.483909646926315 -0.383529974747358 0.191372765789188 -1.06029874143201 -0.416161884980338 0.0309277839386468 1.12652981040722 -0.381429127440328 -0.0127482942142316 1.30615624036616 -0.717057675283891 0.62289852687758 0.120688805550923 0.162061176462216 -0.00704327635892667 0.722652649980781 0.351342350910969 -0.17589087610704 -0.721617267272984 0.47444156442951
0.0389246819671091 -0.00401708950251407 0.0380165688000021 0.606040840605061 0.0541913704259084 0.37696595176994 -0.756815908464975 -0.105042879571885 -0.2503486996145 -0.669014323558963 0.010736664140776 -0.477790424565855 0.772676264336812 0.0137307122242871 0.420749244869218 3.08474164375782 -0.267742203508834 0.30283311553406 1.25122464972278 0.305686524347354 2.02090995129828 -3.01075741720783 0.307407362803596 -0.226851142860515 -0.722465730877585 -0.33573550567978 -2.0866735939604 -0.584336884489167 0.0357010344899892 -0.363289232684127 0.408799277773861 0.0224858281830434 -1.84640592751949 0.594835207490105 0.0562613645109532 0.497641130481152 -0.63752346831908 0.136501596038866 1.99863083970254 0.486670238963469 0.00977764315739295 -0.69282015542262 2.47728155494142 -0.114867573892806 -0.11817478217947 -0.619677964722658 -0.0745724946491732 0.644467500147287 -2.45990964830248 0.103416400552882 0.114309130574868 -0.965219395679984 0.0923197821556079 0.295976244057962 -0.366653519431464 -0.050412107842866 0.0293997781198141 0.745133078849977 -0.616518594791342 -0.639471335067099 -0.0579585488303398 0.727213527520789 -0.311341405716932 0.961872592425106 0.129551907786628 -0.328444889324602 0.134853776874656 -0.281013202725537 -0.161554669401287 -0.737461425203278 0.432157480808545 0.528009442661128 0.0247401702694517 -0.587217032761515 0.235257360300652
-0.0616624781297008 -0.0160192499650627 0.0213164910697924 -0.139450135619948 0.0592970644441447 0.466071342415023 1.14042892980151 -0.107642006413981 -0.243940999628475 0.246867941954168 -0.0705543767059263 -0.310851096597546 -1.14578119248545 0.109048399116154 0.235429109903038 -2.35592991933818 0.267633960121702 -1.43867262856523 0.164895044901585 -1.01829670768203 -0.59738702605849 3.37250964521672 -0.343926521896568 1.28449727853232 -0.644478555885165 1.0080709214753 0.265094225731928 -0.856620168053903 0.31173735539908 0.93436463103337 -0.926971170604908 0.199692079987399 0.15450496528778 0.672951708904681 -0.40990922243479 -0.97291161814134 0.858682963053818 -0.135398850463067 -0.0735168002369022 -0.112626601535924 -0.110698532272013 0.156160754867669 -3.02770277805283 -0.123296674139248 -0.169213724649008 0.36910455080803 0.109707372515728 -0.195030415255571 2.23728076887068 0.23491308976533 0.117338916973845 0.636567532657896 0.099920987612106 -0.164653618439549 -0.232820469984163 0.382129752689582 0.510217417982814 -0.92164770426149 1.18746415249806 0.956783353458595 0.784788725067959 -1.09945636522511 0.309485841524687 -0.667394015184357 -0.367654449374711 0.0408023576351109 0.397341162458991 0.00197512042743939 -0.430398590045187 0.866493199089267 -0.911745619775422 -0.807814998856116 -0.65482698364929 0.743008320295908 -0.0476746557222011
0.0711619280688577 -0.0370416069852598 -0.035550882142993 -0.967122525256124 0.105761245423781 -0.260993575419869 -0.884399380688928 0.134002227947856 -0.0794498748247167 1.05272504676512 -0.0675130203487041 0.356344429525371 0.778558173998168 -0.0652069991154701 0.0379944573242458 4.04087553689362 -1.55100252494972 2.2094426780037 -0.923349773674358 -0.487669626245617 1.95220471103002 -5.82251078127854 1.30047744774954 -2.36995502272224 1.41220956295807 0.594694311109704 -1.8656452254191 0.488087173183154 0.017712577631701 0.0535699351130835 0.637856426006341 -0.0349929530454216 -1.30557619979283 -0.519205475767561 -0.148152029770779 -0.0200080573474233 -0.594602008553931 0.109360016658208 1.51825722912595 -0.484024060957845 0.176231289989613 0.996984844595538 5.45103130370818 -0.0779933456368172 1.62032380121696 0.159327323884116 -0.209616275949223 -1.01749580946133 -4.23771652205937 0.15751649686375 -1.17207405115132 0.427505329153496 0.508761660125464 -0.706758869785126 -0.189792052382797 -0.492448790331173 -0.0225130818624639 0.466807448869561 -0.978622806641042 0.0630467593561176 0.0550370058184947 -0.6092580603276 -0.143127839680621 -0.0811493731357522 -0.172148894500563 0.472008530765769 0.0993399185980455 0.156490884342914 -0.181286333301757 -0.229700180800694 0.915020946399368 -0.064263661853263 -0.206950300459491 0.755638343825861 -0.0354794055120599
0.031347644867833 -0.0282510098212201 0.0755924507459777 0.188012078584416 -0.307448757543093 -0.812789823791097 -0.0351171372639133 0.413508764999767 -0.017919294219004 -0.0870796195115514 0.270163924324514 0.887328637006269 0.0628061042246306 -0.249367567155361 -0.136859750524081 1.64160403975092 -1.60914619311198 1.22219819558899 -0.121561180402563 -0.0633190390401398 2.52520020822749 -1.3956634942276 1.5138562741199 -0.849770238552752 0.227078171152292 0.12278939574777 -2.47957189245348 -0.318103403535424 -0.00267240324431203 0.131889810682581 -0.246535241377091 -0.152926051652671 -1.0355580569422 0.193721467312835 -0.0214507025854294 -0.16977011108548 0.183915542035289 0.172102357557402 1.16678015247897 -0.191640931710279 -0.148304753219608 -0.0776197645406093 0.701881232499399 -0.167868781280623 -0.693143600033101 -0.0353981586941647 0.163254167712322 0.102755627382025 -1.24063556682717 0.133666184938397 0.574947734818608 0.123523702431025 1.17013492614953 -0.484262402097683 0.445775064552219 -0.0865674560265919 -0.329708071654726 0.569593672363388 -0.222074549876791 0.196348362054719 -0.18637094428497 -0.544200185118394 0.592465422931434 0.226060271936953 -1.06168867908246 0.265624386929712 -0.481132599837436 -0.0196293340475511 0.213247185956552 -0.427182655873564 0.0958625033700947 -0.178178899627449 0.171102456054888 0.629576449666161 -0.689226526391857
0.00686638455287639 0.00592613261286781 0.0704571890566719 0.42947042228379 0.0335587924434616 -0.699202915720873 0.379560193518555 0.122150991162853 0.13738065575527 -0.247440012111816 -0.0458311757085666 0.778163509866936 -0.291209935481567 0.0291871479982973 -0.30603439442524 2.28643972168057 0.728563613092839 1.4428190444899 -1.51869483065777 -0.495999996181706 0.911525276348409 -3.12681798235075 -0.631122710308002 -1.77858103251855 1.58545503239003 0.352104682604195 -0.877692661559826 0.0102692378276955 0.0364996187190476 0.574074845746601 -0.143536130651563 -0.0900983501726508 0.451444086981874 -0.242258984809898 -0.0649619731108685 -0.627647094851334 0.112943875502009 0.0974660995827918 -0.614197404057298 -1.93622711291463 -0.0973984796046069 0.0981214734398008 2.5261679709571 -0.181396633570355 0.726364292585638 1.63272756778569 0.141318812431537 -0.0380409942674073 -1.61724722076464 0.0969577927505805 -0.252436434302187 -0.621115467757 -1.02134372046329 -0.137047440957826 0.264313124995328 0.0442450629883279 -0.338629795012204 -0.451860091258312 0.492568089456184 0.872462783323098 0.14529656407602 -0.920024053454503 0.74472118833647 0.749542518492073 0.69326032805628 0.0478867716233516 -0.231067749865202 0.0933978451538185 0.379670493787153 0.387018445713187 -0.299390410180843 -0.861413216089352 -0.0885963124823227 0.880362750812489 -0.704168227579075
-0.0158302739804014 0.0222356599747775 0.0582668239400117 0.686184912924452 0.0802438310704773 -0.545659542518308 0.401162848222263 0.0841192528620412 0.305227582670319 -0.537400134992786 -0.0905089551352414 0.603891656583586 -0.272120532818762 0.0804921995074607 -0.490440759800282 -1.2426597952996 1.50016592819437 0.124544686968562 -0.50819550350203 0.127245629443211 -1.68978828785625 1.46332023916872 -1.37044458479701 -0.13510780173567 0.151094655817648 -0.2897544347344 1.75487753050781 0.113850960228383 0.0529883518786565 0.714306596323516 -0.18022858200802 -0.0820708560323862 1.68262956902506 -0.331997123615868 -0.0701710254227563 -0.758883074338005 0.155615681279259 0.0746421715088238 -1.90375795342763 -0.25088888810943 -0.0680010154764417 -0.38136613544544 -1.86711589566708 -0.118925286804267 -0.471448287676549 0.396949583649958 0.128364830070736 0.369504100032743 1.81794331601748 -0.00191187132236909 0.547008342539442 -0.593581281126577 -1.602128113551 -0.0379574334578632 0.286259021793624 0.185244544572315 -0.217323153691022 -0.766750645944311 0.71874303253485 1.07047850491595 -0.270618238018251 -0.0752764623308094 0.344594237042371 0.603779556543706 1.15469468831706 0.0127346673745214 -0.24209263452136 -0.0146529664514708 0.305124995707217 0.627514425996796 -0.422208602269133 -1.04300551050913 0.375804327962185 -0.00312543138713268 -0.218450838954592
-0.0838024931163233 0.0070317064006821 -0.0371467650501938 -0.416495613998148 -0.104585994776316 -0.176070596125105 1.5777378702409 0.0711408450338343 -0.33111369302635 0.436269701078848 0.0533467634740549 0.124909526318541 -1.53691185846894 -0.121134891718797 0.418784923069473 -0.481629079601219 -2.17388845342832 1.22346703434314 -1.69771525191488 -0.275586635198652 -2.03779694813168 0.14488441645233 2.03101052484579 -1.04020429506303 1.59166835707755 0.333304786007688 2.53092142402434 -0.272311308574706 0.352118823664271 -0.0686486760279543 -1.12897312847829 0.0488941293211786 1.81491095851667 0.225575105021231 -0.377593814837345 0.0763797221269748 1.16030766072678 -0.0789976180124457 -2.07924208122483 -1.56900563708845 -0.0313129349930993 0.244810032047734 -0.00617707215168334 -0.223164954163796 0.769085463518065 1.82715171722924 0.0475206467224568 -0.146086663669032 0.274716831448843 0.227882668915564 -0.765479750308691 1.26378216818107 1.47646679705675 -0.880400031789055 0.14808646667406 0.547362126151542 0.542962456696408 -0.317432088847056 -0.15175105811539 0.145744964235543 0.162480523171036 -0.0132787125221993 -0.184631593895536 -1.05747515739997 -1.30856819099487 0.588600799767565 -0.303424211845266 -0.600536368692662 -0.722848310830206 0.30616243529648 0.206895021770101 -0.170228795652331 -0.247470608223618 0.0574245309798071 0.159320896129536
0.00994193656446582 -0.00983472161806615 -0.0198507059152972 -0.913792216833795 0.135396536471418 -0.569644323069481 -0.609779479779155 -0.18924492191292 0.0771788205763996 0.704556463955727 -0.141734302487609 0.385666817480038 0.503832343692912 0.0479813881707738 0.162865417115305 -1.03182533130231 0.216598874304912 0.195487814271506 0.357091334607604 -0.233441391076621 0.602673211425342 1.35024266637144 -0.270315876442793 0.225154215651312 -0.123357866362853 0.343132565650807 -0.805967662189733 0.841889040106735 -0.122923350153224 0.27269337430696 0.0905151257796385 0.129047714717348 -1.09513999946934 -0.601710848009577 0.157811916464261 -0.49528085899926 -0.0618103164850481 -0.113415158467837 1.1175597503353 -0.475168672027636 -0.0989758505786164 -0.0671859761956577 -0.230802155045944 0.215830371967289 0.188440424149648 0.436269443968665 0.092874883041164 0.153854476524252 -0.0555286004887972 -0.137772491674486 -0.418730672820815 0.0724395085692413 -0.282085095079351 -0.209720148463241 -0.267675869081565 -0.18522808952059 0.237189029107128 0.197770695588251 -0.552881767564751 -0.178888266622933 0.256282802643048 -0.346925969293926 -0.218711805790553 -0.173255239618927 0.346034825398911 0.259600038226857 0.208716647418162 0.169590391067414 -0.207784623004016 -0.183157066994812 0.518949651135265 0.137610255148878 -0.301684604345649 0.311530638811777 0.270931655331587
0.050155768990203 -0.0320040471655748 0.0183561244202822 -1.08797176756137 -0.271787832241685 0.0559026958053716 -1.18850107786696 0.124113256081132 1.11547175853743 1.09469622729311 0.101365175511211 -0.0727842933249294 1.25052788112627 0.0460132097182812 -1.1840543572483 1.32875339725853 -0.362702250135853 -0.131039547306697 -0.982683347764519 0.700588482498206 -1.44113857233242 -2.63493714841429 0.246171944688211 -0.00935958199948922 1.31220038655312 -0.480653346455927 1.73946506057513 -0.483979066675783 -0.0272611356158515 -0.565710537266328 0.875045712223652 -0.271903274713948 0.14984072945412 0.462557931761423 0.0203291879662559 0.595730208037868 -1.0051594057606 0.369667364999083 -0.22054911515979 -0.87562652412753 0.0366163467422261 0.445938072408375 2.65633822873436 0.124741890479086 0.0206184369223701 0.850201412329999 -0.0168155202024722 -0.432735978720773 -1.29541340558098 -0.0625963023151291 0.157066296932944 0.346259796809222 -0.555422016174892 0.0651085259152997 -0.426668178396956 0.152423401244491 -0.0847337461999194 0.310673433460946 -1.18234483164012 -0.441546630479104 0.0780815344296591 0.767008013237707 -0.226149746280711 -0.351604603297846 0.697742529880225 -0.126488954174016 0.120425524723313 -0.569449690660789 -0.14306767589775 -0.192558300843982 0.922427262336991 0.392781056249531 -0.210814409402994 -0.476267560950686 0.323079771131505
-0.0161915137878151 0.0185114189709426 -0.0447148032930574 -1.24064482279376 -0.0292457691200698 -0.478232911191164 -0.16620553550542 0.0284980927072875 -0.0256829933112924 0.855444146075888 0.0287834850106535 0.241357299397371 0.19044614068889 -0.218056431933544 0.216955743239211 -3.501763562301 -1.56563595102727 0.145466513907123 0.985910080563837 0.465744298261977 -1.50097196861874 3.83623357165901 1.41824291051733 0.221623578615436 -0.950395965177044 -0.309474528676625 1.46240981200996 0.378541265862483 0.116923684027957 0.124318687117518 0.205041771569504 -0.0570805175546686 0.150057216228385 -0.10939138410056 -0.097824254068007 -0.0960208832429537 -0.20100385614215 0.0436994751795507 -0.064043575536433 1.84213147072358 -0.00962543392893107 -0.101497330145383 -2.9637846722858 0.0918433569861149 0.100006091082749 -1.4795184378213 0.00649100368538595 0.0961414679188804 2.33771751951031 -0.0380484504627204 -0.260584513118378 0.911972905177382 1.11125797974476 -0.898522957273164 0.0661405661907151 0.128715014140271 0.290921200745819 0.293073470089492 -0.82584073669097 -0.216210380818077 -0.25464398233525 0.839913919679296 -0.571052001322571 -0.81906691180405 -0.88945031023814 0.795826979453644 -0.162280748558679 -0.264188426556469 -0.322381716984082 -0.261437090485911 0.818142086475034 0.101656738458974 0.223675574987656 -0.812295658018962 0.633174963790405
-0.0725765482968936 0.0171276519648923 -0.0234322507674491 0.131499517424464 0.141077643079684 -0.272694916968059 -0.0329157598752468 -0.424474000093419 0.0825943323654071 -0.074539584545722 -0.178629870888804 0.209309543500651 0.200973517140531 0.339867780544373 0.0196187925300394 -3.33687545937436 1.2667728738322 -0.370452322388431 -0.424470143440671 -0.184568344790466 -0.991068996389999 4.0628492015917 -1.24805885203688 0.124255438012448 -0.176497656139422 0.184953495844918 0.91046649661394 0.522482859272973 -0.199057017834864 0.359160814472282 -0.115167364366432 -0.112322697299367 1.73484401925225 -0.406361101906456 0.358658164064101 -0.498679341400965 0.173448072256337 -0.0209974173324255 -1.87192308476261 0.413021798312762 -0.242402452292131 -0.971599841986589 -2.78064868832601 0.439198700286006 -0.661567898432759 -0.301995450557153 0.20047806581748 0.93430703835233 2.16885243626974 -0.439561225644336 0.567178636412472 -0.174364155839123 0.0409591948468706 0.46509792326138 0.920919825332815 -0.033153072574352 -0.130255104137715 -0.260597368627539 0.836654533886709 -0.109306280629916 -0.0542705603623378 -0.559176853290529 0.445654479876292 -0.0691153310104852 -0.210854775701758 -0.0976465909314071 -0.629251205284397 0.328357986082677 0.338790488876712 0.0793578293791266 -0.632133410438211 0.284536897786466 0.236241063861623 0.331283899967636 -0.477188786737137
-0.0872184590104862 0.0269420618784846 -0.062593731213297 -0.746818693211119 -0.076469453580916 -0.271631252140109 1.5063591982876 -0.00923668333191358 -0.523399199965942 0.762671849997826 0.00981003904047774 0.144976204787737 -1.4294973945671 -0.0819232747872222 0.645472800963648 3.22025799357461 -0.873265481315088 1.17565096802017 -0.853377751533408 0.309577629860094 0.325232297585361 -5.1377379174803 0.960313219163921 -1.14084210586593 1.41938859349373 -0.176000405045088 -0.0904796445743552 0.148615085210745 0.274947973503551 -0.354766030110629 -0.590588775704165 0.121826775221822 -0.388641839409991 -0.105762530974697 -0.253499842019954 0.385501752742416 0.585996787831988 -0.273678363418847 0.429014565928954 -0.351491474817233 -0.136438604043978 -0.0510381711389887 4.53451500448325 -0.14196647298305 1.43341343976761 0.103152091284539 0.188381031697326 0.279570300377348 -2.79857955250326 0.11666143164108 -1.25071660000075 0.365516321091115 -0.0492558833489588 0.0375717681830442 0.12798662099123 0.158769137676361 0.155822140756378 0.0766167777158968 -0.749218816771409 -0.299878405308581 -0.189096569337207 0.522695746504673 -0.266347380764906 -0.161443083581773 0.163846806684628 -0.24073457853363 -0.395453459493843 -0.395637807495207 -0.409217853152131 -0.0335940165385617 0.66657794746284 0.208587320996006 0.0295828405702615 -0.303758969303809 0.129473232070565
-0.0938670712381815 0.0241912400282928 -0.0512191767079704 -0.196147044781263 0.163482481555015 -0.212303848694345 0.547935224749923 -0.41581710022465 -0.35792257182993 0.173716495287611 -0.17873117230099 0.114405032673206 -0.336001871829588 0.309990805924516 0.429290188045358 -2.28502278746088 1.92104578503666 -0.454818915246723 0.351451365628651 0.510379911618605 1.22562084634792 2.99390358758806 -1.77968609208599 0.412839250082681 -0.702783175022109 -0.566872675294449 -1.60580427495058 0.576720252421676 -0.132136636458465 0.11963619646085 0.130067670814153 0.0331263331152979 -0.52234016312129 -0.409002651928782 0.251185593260857 -0.193579542491702 -0.0863933924325569 -0.239559070775982 0.6616224057916 1.45720847300357 -0.30187358033031 -0.960302677646409 -2.92509370347523 0.373330927999679 -0.13037234638126 -1.51615946714111 0.293031561129628 1.04390513904019 2.09281287091515 -0.379387158365253 0.0255027590728604 -0.62461679423199 -1.14191399821975 0.872384621827402 0.619919391184695 -0.550257958145066 -0.385909272382808 -0.0752108992340902 0.271337118090513 -0.168137718532263 -0.247958089130989 -0.193052466616116 0.257704621956213 0.498899684827978 0.951893889104441 -0.629819161679114 -0.311926331383741 0.885308522296767 0.591626472403611 -0.00765648414588878 -0.159076127235117 0.242164368262476 0.37520448990475 0.0500596097816815 -0.324172489410158
-0.0354606364686854 0.0355357126421834 -0.06500851005403 -1.21006902269593 -0.0527091302196876 -0.0650607034212221 0.560758595137653 0.117539462916751 -0.305339168489833 0.81770242806174 0.0799720656068216 -0.134862261510702 -0.384476397331764 -0.348569160474838 0.413895201605135 -3.79454418389181 -1.95561784871216 -0.177678563210917 1.07032346747547 0.701357756166378 -2.57691869291126 4.12639012671995 1.85885237437863 0.231301463021742 -1.13314911207403 -0.600291085577877 2.73171059316351 -0.25910407268344 0.323744400955109 -0.0974488732005166 0.220554514473638 -0.154074305730899 1.20540247287062 0.470140111064363 -0.327901615507474 0.398681477844078 -0.218672467932522 0.132679910275593 -1.15856573923551 2.68158619161566 0.0928874814401414 0.017554197758842 -3.98069787007197 -0.0700548116199442 0.424114302947104 -2.2400341618227 -0.0869248391812574 -0.105035680486755 3.19624647356438 0.0813548041721391 -0.43226032488183 1.02691298414185 1.45908332045956 -0.976680082096687 0.198480833914284 0.267383534803253 0.175520637443214 0.204706242780412 -0.651044635744049 -0.167821987227278 -0.365025240641179 1.3183085531757 -0.572924534786908 -0.874841823848365 -1.24476629903066 0.806889145086367 -0.267802110181523 -0.423167623252516 -0.221044052262475 -0.178757140429494 0.69670406185023 0.0233672018910963 0.368832271124008 -1.25028208379112 0.628212223034035
0.0710667973010691 -0.0553182843589293 -0.000431945107797211 0.659382461875451 0.290476914349228 0.183533476303035 -1.48373041684269 -0.377433120972837 0.376687758551704 -0.747793397915678 -0.093766026936179 -0.143438428781942 1.26220274032559 0.205886378521358 -0.109873465694084 -2.04160963503854 1.28662100864566 -0.567722167339784 2.17855783146565 0.249424645616034 -0.36086931163973 2.99011378348751 -1.02431797106269 0.731294894569107 -2.37460280350418 -0.487223540077743 0.0166499412444832 -0.627390241778304 0.117430962419435 0.474244103808803 0.0947736417441892 0.0568416621944641 -0.250175150240832 0.543374090099731 -0.144928639403843 -0.435861152997723 -0.0781288427033703 0.126118201289824 0.190147121545814 1.27343716978107 0.0790384985315765 -0.235200281839979 -3.02730888525215 -0.157020274210149 -1.55774678216557 -1.11352414889959 -0.141857972485734 0.172140924084884 2.49251044820329 0.155886418302181 1.43700963990021 -1.20681760731903 -0.866523538090887 -0.0757911969176011 -0.302088524443476 0.0790189581576524 0.32076012305856 -0.122819477639206 0.565413060784351 0.620783024290106 -0.128548406741549 0.501532235993892 -0.602664469679113 1.01591483894475 0.498004170059848 -0.0566079490379238 0.385062351439305 0.116914170951178 -0.138287740481644 0.0600521970522402 -0.298220301737042 -0.685266258239833 0.22791352213755 -0.681997616480651 0.696685549917038
0.0347602683296142 -0.0567308477054995 0.0594364181634459 0.102088940676955 -0.3448863142105 -0.884391153163065 -0.764110638583084 0.339921773682848 0.36644988816636 -0.0481572515360912 0.287053235149568 0.897618700758805 0.7472141286729 -0.205218406265371 -0.41161951937352 -2.2033730779086 -0.97504923220457 -1.25481802164336 0.995682581517566 1.06506993510189 -0.992200795416501 2.68394363488553 0.916646911198005 1.33639625456471 -1.34658450268469 -0.871885828071969 0.990555033133757 -0.31366696732409 -0.114880429401966 0.128831227943083 -0.490086976188182 -0.148664707476105 0.749678786889176 0.312913377377094 0.132533871691528 -0.048213815776398 0.463591000477571 0.18827253120001 -0.509067364133304 1.9191092311367 -0.228356265873042 -0.393720793969174 -2.86319596952789 0.109893263178191 -2.62960185500244 -1.66528645872664 0.199355522757574 0.369648853065891 2.37242276626072 -0.0444623210931426 2.38626403586379 -0.108849395834348 1.26748558326006 -0.0987614206858171 0.748523333725818 0.263020374994134 0.103189372261105 0.680059519919594 -0.013899890724841 -0.161187258949476 -1.02201992024513 0.979368426172359 -0.282710644155107 0.135462870898687 -1.24302874841251 0.0993702575996646 -0.766672998668981 -0.342372290839047 -0.234267743205467 -0.595828167017672 -0.182002385162004 0.268179805040662 0.992060413256466 -0.977183760945601 0.144941752023186
-0.0132748558694511 0.0150360606244576 -0.0423465613954859 0.19398834768301 0.174592983902183 0.765200271539539 0.892116028617688 0.0774788681602087 -0.634496767242301 -0.221279308080114 -0.126124629044404 -0.612999013493344 -0.889225853048195 0.00524350507643829 0.390908522785194 -2.06163517587843 1.40049947966365 -2.15250974169419 0.0480492652591419 0.493411153746938 -1.7517747248168 2.78897931537229 -1.33809806686739 1.99489991383394 -0.488709379826529 -0.575412332919673 1.6668445464369 -0.0721939683442732 -0.0851569495614874 -0.30531088636968 -0.147301252174529 -0.0377239774115061 1.3556972589083 0.138539194240826 0.0359545451306368 0.184039469143598 0.248814008930904 -0.0198910722140616 -1.25185971187531 1.5095157400069 0.308102074518636 0.871517903399792 -4.17331376359699 0.103312270928681 -0.136146012655482 -1.20503583374936 -0.332100996129886 -0.92901211123925 3.48516684286444 -0.0681110586348567 0.0304624145070319 -0.103671196744445 -0.596146212314306 0.75181434407094 0.150530556075679 0.0632922995810857 -0.0842619490137242 -0.336276979725625 0.922337016662683 -0.0212527277443557 -0.277160149519913 0.520825784142167 -0.217467135393621 -0.16002794913337 0.360532754409905 -0.402386435584172 0.0674307450900761 0.151679581484456 0.172601665533201 0.310233775047652 -0.781514426884746 0.179035847868097 0.315742103612799 -0.672018656049802 0.178801877601373
-0.045871542007331 0.0477895839740972 -0.0891025624330683 0.498121412303393 0.329822742796439 1.80574395204441 0.476314869224398 -0.304652170080289 -0.547039967091977 0.0244419224569251 -0.199654027680284 -1.42287809290029 -0.615866049146348 -0.0367132772812973 0.797846065722412 5.0352360578491 1.60962158984074 -0.652994045153167 -2.19574461877268 -1.15783528920501 2.51067913930001 -6.55263145364092 -1.27945560494971 0.270229487421233 2.46397430318889 0.959516177595962 -2.55434519015574 -1.33835389149969 0.467019564770711 -0.551701374713622 0.693324862712266 0.0843809910285517 -0.693179081238385 0.762636111682359 -0.473034914617154 0.0726752786072472 -0.687278659643838 -0.104942349490249 0.749629678844182 -3.14450304919284 0.329451732802063 0.553637671503396 7.2559082802148 -0.389403399772667 2.18346015132896 2.54759887605843 -0.284054559082759 -0.671180476852529 -5.37745099725602 0.335006855420555 -1.78430301964594 -0.578709513909192 -0.965598633200223 0.748632091333317 -0.458010681061124 -0.321229606253107 -0.528924240692999 -0.806725880120027 1.02753879032779 0.321201324132953 1.26130156913343 -1.34151428987174 0.849075269727528 0.544890268850136 0.857142615946191 -0.785872958710567 0.614854577685589 0.450232069578209 0.619831202391853 0.720968835390921 -0.94504961602732 -0.377849382359458 -1.09842535339043 1.30561476632031 -0.823270406189393
-0.079456302579297 -0.00617501527021764 -0.00784186058798509 -0.136870034931409 -0.0389413941290179 0.101792749745894 1.53318813168547 0.0306488193898611 -0.297824609165078 0.177840028405975 0.0106073377186201 -0.0502154185527083 -1.49716185281372 -0.0438971929104413 0.316911954946417 -2.49389472942971 -1.7023447778738 0.240434530949821 -1.24112330484472 -0.783112366673413 -2.60604953377943 3.1356497171441 1.57706089912851 -0.253940528873981 0.633812597044773 0.876566776067538 2.86802321321771 -0.618963455523511 0.349055612941476 0.546598766017584 -1.31943161045597 0.0629793964881159 2.27923832255897 0.492040756470415 -0.421292775796529 -0.564140365377449 1.32338390819232 -0.0240601138348543 -2.50170547968552 -1.40937440896778 -0.0291583516577775 0.256962601967462 -2.64925612873777 -0.228415144104998 0.283898493201549 1.97821166317216 0.0139292012857272 -0.27759929371284 2.12560650345338 0.283148502797118 -0.320523838800188 1.33735836087029 1.59171489402071 -0.993957372188209 0.0215908276352803 0.608274099656446 0.674298194934165 -0.724242876463951 0.724282728542349 0.680915439719509 0.567895716713452 -0.727781998135873 0.0887899164502818 -1.27624969807523 -1.69593424967576 0.806856234982916 -0.0192953479195579 -0.44715008981204 -0.740193735120279 0.658096139628839 -0.478790068958185 -0.590561779134928 -0.519355113894191 0.498785527906631 0.0598328820659598
0.00312208895475092 0.00247108597085655 -0.0419673238752473 -0.700433702167912 0.137105804969415 0.332903951232059 0.0971238859289358 0.175498783077641 -0.439718577076462 0.666003049093177 -0.0845735665557779 -0.181875115621314 -0.0905734897912278 -0.0829879680559057 0.198286972836142 -1.08008876934407 0.086901442154585 -1.05875890854475 0.158383472401542 0.70534502088764 0.437042060069219 1.86817004741825 0.0568977122144045 0.9738127893335 -0.365701954643394 -0.684716299557941 -0.576199861410854 0.145406864344618 -0.0396988407287623 -0.354887386117105 0.523797977860105 -0.0049971935209206 -0.567017428327598 -0.0843745632739714 -0.0417847756451663 0.319274283309775 -0.45723806496057 -0.015725887246017 0.889608690110999 2.46705756850597 0.316204387722216 1.07568909988894 -3.08166532041568 -0.0187752140189188 -0.0879003152163661 -2.27314429699646 -0.340042872579141 -1.12288784466201 2.12223938849402 0.0586285779677919 0.0143979131497238 -0.00495734144252264 -0.321979853767721 0.280703127844583 0.148796862110277 -0.309659133788172 -0.175182537552289 0.156295994824039 -0.108671732697748 -0.154357384042616 -0.445221506327762 0.533858442219032 -0.339364358805643 -0.154674915118884 0.102946403137969 -0.0524743886224144 -0.00381500089850894 0.315670626981866 0.13943110946639 -0.0548811970474678 0.164503723202736 0.257899511475089 0.440372665382555 -0.602418672343961 0.233541664048074