27.2927112337916 -5.64484821683396 7.7064610928703 -5.64484821683396 -5.30712225514304 3.32715741380122 7.7064610928703 3.32715741380122 1.57543594217358
11.6107216609895 -7.06812191253142 7.14049176146518 -7.06812191253142 -1.98738738995042 3.15458315865146 7.14049176146518 3.15458315865146 -0.679163197686138
12.2026699125247 -7.51718610335121 0.901839655943888 -7.51718610335121 5.3869146526854 1.51976682760914 0.901839655943888 1.51976682760914 13.9581026584566
27.8048670877844 -5.19949530031846 5.38134774122896 -5.19949530031846 2.52552216407331 1.72759818864971 5.38134774122896 1.72759818864971 3.39396035127854
7.96625029417101 -5.31454480375163 2.42531775785733 -5.31454480375163 2.73149788796173 0.822047258401527 2.42531775785733 0.822047258401527 0.126183326346058
15.2440592048951 -8.96087180772229 2.21006384820817 -8.96087180772229 -0.870293824357373 2.33995844885852 2.21006384820817 2.33995844885852 6.14401461076175
2.59232510155064 -8.43387085651228 -1.75357710877978 -8.43387085651228 -2.11728199060077 3.2028297246073 -1.75357710877978 3.2028297246073 10.6996038192849
20.9445765362935 -4.68177253486919 -2.17851801662165 -4.68177253486919 -0.116905140585319 -0.259789201300708 -2.17851801662165 -0.259789201300708 11.7164929786619
14.7523153595759 -6.34627906034588 5.88793668376534 -6.34627906034588 5.34609063533815 0.768233780989238 5.88793668376534 0.768233780989238 6.52070895264778
25.2051194376252 -5.61701365955174 2.43459594361807 -5.61701365955174 -5.78587664039721 0.976065142029804 2.43459594361807 0.976065142029804 6.6840050220368
10.7422834737843 -3.78178851607745 4.0044649743352 -3.78178851607745 7.13678048716089 -0.13360587495465 4.0044649743352 -0.13360587495465 12.6851355720832
-1.44925261582752 -6.89740329453381 2.64984985326722 -6.89740329453381 3.30303413082329 3.04138929237044 2.64984985326722 3.04138929237044 10.2319832569436
24.9119287675858 -5.09929089410248 3.75209832164309 -5.09929089410248 -5.03991050523374 2.12284890205722 3.75209832164309 2.12284890205722 1.94285209829887
-1.85192587784362 -6.48359620960482 6.04195456739362 -6.48359620960482 1.07441391109364 4.60012450017469 6.04195456739362 4.60012450017469 3.50900985471171
13.7335705630467 -3.7409644987302 4.13064830068126 -3.7409644987302 8.39675811346932 -0.0204120086736271 4.13064830068126 -0.0204120086736271 17.9959691015305
-3.52942186338534 -8.97014999348303 -0.603082074448073 -8.97014999348303 1.204308511744 4.35146912178687 -0.603082074448073 4.35146912178687 8.73633971231239
-6.05865530176295 -3.7873554275339 -1.74615456017119 -3.7873554275339 1.49564354463122 1.04843499096357 -1.74615456017119 1.04843499096357 4.92300536464842
7.07554446114001 -6.16999353089182 -1.20616414889615 -6.16999353089182 3.06180130104406 3.60735862377555 -1.20616414889615 3.60735862377555 13.0748193740342
50.2413758944048 -12.0486520288964 15.6504437412155 -12.0486520288964 10.9965057636286 3.24550937910671 15.6504437412155 3.24550937910671 14.8562310400962
16.3110505673802 -5.72835188868062 -3.34756942247484 -5.72835188868062 4.61311396023972 -0.762666869532794 -3.34756942247484 -0.762666869532794 17.4745350617769
7.23327361907258 -5.39619283844614 1.43626315576249 -5.39619283844614 3.08221330971769 3.2919003079104 1.43626315576249 3.2919003079104 6.85657927718655
19.0833724726892 -5.5724783679002 -2.88366013443786 -5.5724783679002 -1.10781537983231 -1.43440751861034 -2.88366013443786 -1.43440751861034 14.6762342363379
21.2804468608323 -3.90240493096707 7.91243681675872 -3.90240493096707 1.30451291795999 -0.0371127430429583 7.91243681675872 -0.0371127430429583 -0.0890705833031
0.0797923975423604 -9.18911517743649 -3.7836441532296 -9.18911517743649 2.42531775785733 3.26592138778033 -3.7836441532296 3.26592138778033 14.8525197657919
26.1162372793298 -8.88293504733208 8.25387405275393 -8.88293504733208 4.17518359233281 1.01874479652921 8.25387405275393 1.01874479652921 3.39396035127854
21.8315710950202 -6.52442022695208 7.2147172475511 -6.52442022695208 -1.51605555330485 1.90202808095162 7.2147172475511 1.90202808095162 0.781223241054273
-3.67045028694858 -5.54278817346583 -0.799779612575752 -5.54278817346583 0.0352571058908104 1.75543274593193 -0.799779612575752 1.75543274593193 6.92709348896817
12.2973074072842 -6.07350039898013 -3.23437555619382 -6.07350039898013 5.48897469605354 -2.095014344775 -3.23437555619382 -2.095014344775 15.8044616248438
20.3674733819755 -6.68586065918894 2.96716380628452 -6.68586065918894 3.08221330971769 1.43440751861034 2.96716380628452 1.43440751861034 8.83468848137623
4.6353816060655 -6.20710627393478 0.176285529454052 -6.20710627393478 3.61478117238414 1.1152379284409 0.176285529454052 1.1152379284409 12.8669880129937
14.8859212345306 -5.98257417852489 2.20264129959958 -5.98257417852489 1.33791438669865 0.823902895553675 2.20264129959958 0.823902895553675 6.93451603757677
-2.68510695915804 -3.44591819153868 -0.881427647270261 -3.44591819153868 3.08406894686984 0.536279136970748 -0.881427647270261 0.536279136970748 1.37131585543731
21.3101370552667 -7.71388364147889 5.73763007444136 -7.71388364147889 0.807202161184344 1.48822099602263 5.73763007444136 1.48822099602263 2.3195464401849
-0.30246885580011 -7.91243681675872 3.41066108564787 -7.91243681675872 -0.630916631730292 4.16033849511563 3.41066108564787 4.16033849511563 2.408617023488
11.6144329352938 -6.73410722514479 -1.2896678207428 -6.73410722514479 3.14716061004287 2.91149469172008 -1.2896678207428 2.91149469172008 14.8024175626839
6.54668787277785 -7.5283199262641 2.33439153740208 -7.5283199262641 0.523289676905713 1.84821460353933 2.33439153740208 1.84821460353933 4.89145953306191
9.8404438178404 -8.08129979760418 -3.57952406649333 -8.08129979760418 2.59974765015923 1.74429892301904 -3.57952406649333 1.74429892301904 13.6946021828516
20.3303606389326 -6.73410722514479 7.4856402717647 -6.73410722514479 8.6862375092044 1.83522514347429 7.4856402717647 1.83522514347429 17.9996803758348
35.641222781305 -10.3229094773989 12.4476140166082 -10.3229094773989 10.0723984618589 3.10448095554346 12.4476140166082 3.10448095554346 15.7506481474315
23.4255634087153 -6.46875111238764 1.0688469996372 -6.46875111238764 2.40305011203155 1.22657615756977 1.0688469996372 1.22657615756977 7.35945694541864
15.3071508680682 -4.95826247053923 4.20487378676718 -4.95826247053923 3.03025546945755 2.48284250957391 4.20487378676718 2.48284250957391 3.09149149547843
-1.44368570437108 -4.34404657317827 -0.200408812431975 -4.34404657317827 -3.13231551282568 2.07831361040567 -0.200408812431975 2.07831361040567 5.09557961979818
23.3810281170638 -9.19839336319722 7.21657288470325 -9.19839336319722 2.44944104083525 1.29894600650354 7.21657288470325 1.29894600650354 3.02468855800111
6.09020113334946 -3.29375594506255 3.249220653411 -3.29375594506255 -1.00946661076847 0.729265400794131 3.249220653411 0.729265400794131 0.56968060570941
4.30507819298317 -5.65598203974685 8.11284562919069 -5.65598203974685 -2.31026825442416 4.79125512684592 8.11284562919069 4.79125512684592 -1.19688596313541
19.0592491897113 -6.21267318539123 8.36706791903496 -6.21267318539123 -1.35461512106798 4.56672303143602 8.36706791903496 4.56672303143602 2.32140207733704
29.5547329222599 -5.59845728803027 8.66953677483507 -5.59845728803027 2.59418073870279 0.172574255149756 8.66953677483507 0.172574255149756 2.84840302854705
12.2175150097419 -7.42254860859167 5.71536242861558 -7.42254860859167 2.92448415178512 3.8337463563376 5.71536242861558 3.8337463563376 7.38358022839656
-2.68510695915804 -6.47431802384408 -2.19336311383884 -6.47431802384408 -3.32715741380122 3.13602678712998 -2.19336311383884 3.13602678712998 10.4787829981793
17.4077321242996 -5.44443940440199 7.8808909851722 -5.44443940440199 -5.35722445825104 3.88199292229344 7.8808909851722 3.88199292229344 -2.39562756342296