10.368522 0.000000 0.000000 0.000000 6.226729 0.000000 0.000000 0.000000 4.972695