5.146771 6.223285 2.635928 10.422511 3.200795 4.904808 2.949081 4.682765 -0.029834 2.196811 1.514995 2.350148 7.450221 1.511595 0.048480 8.114121 4.566805 2.584648 1.155281 4.694665 2.166178 4.038251 1.686865 4.662738 9.175321 1.540265 2.690598 6.269301 4.671545 0.340112 1.379721 4.692755 3.738008 3.812181 1.591585 1.202428 9.096991 1.662365 1.144558 6.394921 4.595555 3.792888 4.879311 4.828695 0.797569 0.322011 1.581145 3.183908 5.582741 1.562785 4.346798 9.989811 4.641665 1.908158 1.887101 5.863925 1.447108 3.250481 0.530389 3.989278 8.528251 2.718245 3.506358 6.939881 3.457255 1.013158 8.473771 0.312307 3.306588 7.095721 5.855575 0.986401 1.779581 3.452135 1.355918 3.438511 2.949635 3.971368