0.196175326901417 -0.0190372092956125 -0.356128199861289 -0.357784760771728 -0.202153652881477 -0.151116510183221 0.501435048344637 0.158136646625658 0.024201267325438 -0.331704789337555 0.26104165502413 0.329789318472621 -0.528362197832496 0.110056013924164 -0.0668617602546266 -0.656646295305703 0.319271712207942 -0.236821875765501 -0.570852998040764 -0.915920317820246 1.39351353887558 1.22936976992934 0.560801018317883 0.14453628926426 2.26484786560455 -0.137485299599837 0.404387524140116 3.07979252984116 -0.107054252535157 -0.750029485179078 -0.235720672850801 -0.0641721306280393 -1.93954074895588 0.0938781269760596 0.159079983887866 0.819409639678272 -0.107042682576913 -0.0477900981944636 0.77737392449429 0.43572565593117 0.443666246829509 -1.08415702377305 -4.66330509479702 0.362716391195929 0.540190294701009 0.0313712990046885 -0.13353840117734 -1.12348099785468 -0.756918495428077 -0.201587753368226 0.0524597333419713 0.37138383258221 0.0624726323170038 -0.203403465482073 0.0709613821259519 0.488512176316004 0.195161541449009 -0.188652282940615 -1.17998121772584 -0.971024172286376 -0.707435583787342 0.792627500333746 -0.233224647192173 1.12190285555013 -1.31584518051034 0.762018533022283 -0.718121083001658 -0.663447630982226 0.320921331143435 0.307585283050379 0.670768843449206 0.0665941085539022 0.0976884998912708 0.381248378981529 0.995495919524554 0.0204294609377088 0.217613945308235 0.289736437021575