0.500954480359051 -0.557061382159265 -0.617175919802351 -0.557061382159265 1.83950485187843 1.24036329336901 -0.617175919802351 1.24036329336901 -0.837595891160333