4.9095123911 5.6685745790 2.4705889181 2.9377427579 4.3221664916 4.9116260010 2.1770059626 1.5071495515 2.4010777799 6.8225696151 1.3946607526 0.0301963789 7.5111157692 4.2375249833 2.5205649549 1.1989771535 4.2562314687 2.2757121958 3.9974697097 1.5428671894 4.6896390654 8.5382249442 1.4762895444 2.6433489441 5.7717203884 4.1581965626 0.2385326912 1.4966097189 4.3122945303 3.6721667037 3.5924704635 1.3894302487 1.2637468386 8.3112060277 1.4137483660 1.2324567706 6.1056341385 4.3149525495 3.6904587814 4.1233603266 4.2347367486 0.7028691517 0.7355990710 1.4640846689 3.1374577014 5.4801448665 1.5024456475 4.2813506161 9.1492724725 4.2401857197 1.8566073385 1.9016894263 5.4489008010 1.4218235181 3.2737975326 0.3773327821 3.9193613186 7.9504786374 2.6978662338 3.4873528323 6.4407302999 2.9607161593 1.0124561498 7.9020740353 0.2660151044 3.5208284323 6.4360061523 5.3420449404 1.0290000302 1.8622382871 3.0290203500 1.4581148533 3.2560234465 2.7267324256 3.9519568367
4.9630095585 5.8500811037 2.3824962013 3.0990424549 4.4185985682 4.5298594687 2.0314136378 2.1383130823 2.4218797236 6.8275148680 1.2738321850 0.4721885187 7.5623968181 3.7795616383 2.5948864757 1.0843814384 4.4078887942 1.6377033675 4.2827245744 1.8036860753 4.4506076413 8.7132060129 1.2443441334 3.1927413989 5.3827366623 3.8938699923 0.5105177905 1.3839165946 4.0710777623 3.1835365264 3.6517296382 1.6052637017 1.0371914371 8.3586479835 1.5277611713 1.5349829502 5.7887450160 4.1553522273 3.9366243801 3.8829228830 4.1871709787 1.0245436310 0.9765283628 1.1065677862 3.4549908207 5.7057355556 1.4505691614 4.1023311250 8.9059951708 4.3546465833 1.3395100537 1.7512172255 5.7371732891 1.2654681625 3.4193101020 0.5448974989 3.9241904372 8.1489608973 2.4898657205 4.0925775068 6.0967988493 2.8296632504 1.5772707788 8.0640991374 -0.0956180416 3.6400980805 6.3643690080 5.1072158996 1.0648594062 1.6142961288 3.1335525520 0.7724605484 3.6600211889 2.8973704698 3.3794758258
4.9337381889 5.6990809829 2.5055875064 2.7261828430 4.3471650289 4.7888934953 2.4481744739 1.4723528613 2.4533401851 6.9666577723 1.3809214756 0.1135930982 7.3827932523 4.2212765157 2.3767277261 0.8574802592 4.2844559586 2.0852115534 4.3454570129 1.6930816089 4.3837050292 8.8865013195 1.4384756536 2.9580224128 5.3859120794 4.0509903403 0.6172927164 0.8547378040 4.2725400456 3.7476051067 4.0036578589 1.6209666203 1.0334382115 8.8450746905 1.4528398877 1.2721363666 5.6716110569 4.1254084659 3.9511264892 4.0889457878 4.1519746620 1.2913173028 0.9057769031 1.4053255225 3.5652572085 5.6794159339 1.5314072162 3.7300489916 8.8625351094 4.3137943413 1.3496504234 1.8006598719 5.4443065920 1.5852956071 3.3373557433 0.4838774630 4.0785401949 7.9058064869 2.5996732414 3.3512131898 6.3963896776 2.8698251882 1.1035805672 7.8006264872 0.2718185025 3.3100235915 6.4276887165 5.2676844464 0.8925964120 1.7969460816 3.1195459897 1.5672970365 3.4023010874 2.8198578797 3.8341508276
4.8483515577 5.9413061678 2.3820362665 3.0001786970 4.4257687226 4.3635541951 2.0988166932 2.0829648928 2.2692911602 6.9131405081 1.2601703768 0.5342485577 7.5875088614 3.8792429999 2.7170370802 0.8761273529 4.5390784418 1.5691105080 4.1976310954 1.6033100518 4.4956496493 8.7882778229 1.0849568685 3.1630213782 5.5528345316 3.9285917015 0.7219848462 1.4534776822 3.8881808444 2.9228994627 3.5222610503 1.8490042975 1.0287926636 8.3923906611 1.5897224286 1.6538724356 6.1533089804 3.9469689308 4.0235528874 4.0383226872 4.3315079960 1.0367791576 1.0524449876 1.1184038305 3.4764477193 5.7155059133 1.5823079486 4.2704608453 8.7609728987 4.5280449960 1.5047987313 1.6579048172 5.7542266403 1.1216028017 3.3612783991 0.5917665202 3.7318996930 8.1605566752 2.3800461853 3.8903866448 5.9232794535 2.6007596630 1.3781641370 7.9501062665 -0.1225919084 3.8053370229 6.5396545958 5.0285110669 1.3122484282 1.4392921927 3.3610704029 0.6871451568 3.6338475527 2.7867181579 3.6502316746
4.8566856846 5.9281389815 2.3929176514 3.0276863928 4.4297240453 4.3757694466 2.0823030062 2.1119123690 2.2967992459 6.8958138156 1.2783916858 0.5376386381 7.5976707592 3.8712324313 2.6969604138 0.9267627546 4.5191489311 1.5639803874 4.2138734236 1.6442190679 4.4870253403 8.7492994686 1.0743302408 3.1899600614 5.5206744855 3.8847947048 0.6565393342 1.4740025113 3.8442729623 2.9887930767 3.5711966669 1.8362320168 1.0611692765 8.3822384984 1.6084616065 1.6105002681 6.0851561638 3.9759785961 4.0508135396 4.0194922812 4.2879575088 1.0452696340 1.0407239964 1.1298582328 3.4835841649 5.6842964888 1.6196644385 4.2474139201 8.7424769839 4.5028928286 1.4694719824 1.6786036813 5.8070996328 1.1398307606 3.3704805642 0.5237499059 3.7755939928 8.2061887775 2.3889882970 3.8843843521 5.9110822010 2.5505319088 1.4214870022 7.9600216656 -0.1756643527 3.7725321398 6.5395670610 5.0649761075 1.2797067694 1.4343490546 3.3279915040 0.7025030429 3.6376355057 2.8548371220 3.5666957202
4.9359736779 5.8745593408 2.3752401367 3.0929757442 4.4102095004 4.4658202127 2.0418897298 2.1811680497 2.3794774903 6.8592195217 1.3014825442 0.5158024601 7.5835391232 3.8019489102 2.6376917404 1.1062544703 4.4558184015 1.6435518805 4.1449345146 1.8587775509 4.4579765971 8.6972801046 1.1645460402 3.1114309596 5.4280387277 3.8351261847 0.6144577691 1.3839083199 3.9757671643 3.0511012541 3.6852654160 1.6319549872 1.0422320519 8.4632049202 1.5047750815 1.7662268638 5.8501362400 4.1388457841 3.8946760529 4.0101641937 4.1996790785 1.0166464577 0.7674424104 1.0631101521 3.4781518409 5.6708434768 1.5006214061 4.0761642922 9.0095419541 4.4489283676 1.3124077930 1.6352104604 5.7745903712 1.2586409542 3.5294687762 0.5700358135 3.9714469723 8.2615945254 2.4334076114 4.0242355314 5.9308715163 2.7388447257 1.6130167955 8.1217759842 -0.1225350741 3.6610109075 6.2769833768 4.9597312458 1.1083831667 1.4618815059 3.1636327930 0.6843629657 3.7215361983 2.8597784903 3.3823233672
4.9350172858 5.7336777815 2.4817378202 2.4881799405 4.4660085168 4.6933504060 2.4837413702 1.6626170134 2.3991277600 7.1965940670 1.2666762391 0.2332596845 7.2995481099 4.0051816745 2.6224707078 0.8474642255 4.2567184244 1.9309711566 4.2195052665 1.6482895896 4.5539808892 8.9089706028 1.4250064116 2.9692447948 5.5109703772 4.0689417410 0.4371619402 1.3022102606 4.2628546458 3.4400621462 3.6666222698 1.3788492800 1.1849684333 8.5877875025 1.4723061767 1.3790871166 6.0438159124 4.3171675453 3.7271399851 4.0486324868 4.2013499699 0.6209332866 0.9714413914 1.3532781745 3.1977958301 5.7344934931 1.6211962707 4.3016694945 8.8126368039 4.3573653618 1.7678758462 1.6601527993 5.4293035140 1.2234680266 3.2425433415 0.4920284563 3.9515104565 8.2231871713 2.7050848322 3.6252220269 6.1021726147 2.8873470222 1.2302669635 8.0897078644 0.2576677337 3.6383498987 6.4976061587 5.2876907984 0.9423872819 1.4795187768 3.0196669411 1.2032987651 3.4873577574 2.8638224956 3.8067353632
4.9770802065 5.6813356562 2.4880232079 2.6574676302 4.3446160958 4.7818466192 2.4717420121 1.4999378834 2.4552812991 7.0324780972 1.3856052302 0.1397152385 7.3390192333 4.1882154999 2.4079494180 0.8823879611 4.2826237510 2.0890950811 4.3718898702 1.7691668080 4.4172699729 8.8944688646 1.4203466683 2.8931261912 5.3605735194 3.9752641899 0.5723828975 0.8289463253 4.2595859218 3.6161812670 3.9833484659 1.6029272444 0.9570339119 8.8740053247 1.4608876167 1.3912959018 5.6794139359 4.1348442915 4.0903719591 4.0021680871 4.1071691227 1.2116890062 0.8887373297 1.4137937193 3.5394630800 5.7229894084 1.5975876470 3.7564649337 8.8641939689 4.3203502687 1.2637878342 1.7245038190 5.4062412758 1.6081530900 3.4653101184 0.5280924673 4.0748947790 8.0472061607 2.5748158630 3.4047699800 6.2698114152 2.9334637141 1.0968622640 7.9601002572 0.3469216597 3.3211089526 6.2595227173 5.1978621408 0.9271413366 1.6907505984 3.1224473759 1.5682897482 3.4711138605 2.8189648570 3.8187532330
4.9712313527 5.7512251616 2.4042814196 2.6225852911 4.4901663505 4.6518887678 2.4648849340 1.7602700212 2.3908103160 7.1222696420 1.2471474198 0.2496528762 7.3102240055 3.9423312175 2.6089423151 0.9585536543 4.2684335346 1.8543198928 4.1304671675 1.6030880582 4.5682648860 8.8018386774 1.3992450364 3.0370101329 5.6553412227 4.1818779561 0.4012243512 1.2573636440 4.2079267070 3.2979081693 3.7064540333 1.3293398177 1.0959201856 8.5580176638 1.4893340854 1.4437940404 5.9714896880 4.3538625661 3.8901944795 4.0852099691 4.3561153375 0.6496207990 0.9598826977 1.2757917841 3.3184520247 5.5744737482 1.4268357326 4.2109728052 8.7784205278 4.4453570741 1.7348074361 1.5398168899 5.4676359354 1.1756080952 3.2446425205 0.5370736233 3.9377634926 8.1492014693 2.6456622970 3.7703338959 6.2607655558 2.8121162147 1.2749447591 8.0203991422 0.2735782022 3.7247452973 6.5347832620 5.2161070021 1.0865922225 1.5082647242 2.9867051577 1.1459655609 3.4527272638 2.8167527875 3.8173199835
4.9331453102 5.6841359575 2.5467391181 2.4939941914 4.3875330366 4.7598088607 2.5036736139 1.5709006844 2.4280833244 7.2074175550 1.3476427776 0.2036953691 7.2826468051 4.1012741105 2.5446928270 0.9203667978 4.2815390069 2.0155267288 4.3172542743 1.7519618914 4.5131460685 8.8749580674 1.4358954174 2.8418229905 5.2779994071 4.0103091702 0.4361345280 1.0064319698 4.2409189494 3.6800678678 3.9116670848 1.4994430994 1.1597872141 8.7170872774 1.4970504694 1.0998213810 5.8335007572 4.2143167411 3.7263704833 3.9453749325 4.0992742812 0.9479935847 0.8884154960 1.4264021060 3.4652384284 5.7771632174 1.7342797153 4.0294024386 8.8423638122 4.2999851116 1.3628338667 1.6987973943 5.5122390062 1.4193953658 3.5927584139 0.4915205079 3.8536900469 8.3245596166 2.7666169444 3.6341483395 6.1942467018 2.7517900980 1.3234774675 8.1486021825 0.1398963003 3.5647984480 6.1889619746 5.2319860692 1.0325911878 1.4846008046 2.9498825125 1.3397852981 3.5158845523 2.9422699764 3.7136314243
4.9675156323 5.7831634510 2.3909301863 2.7904432798 4.4846560897 4.5870638765 2.4127719487 1.8682722196 2.3958797372 7.0088963171 1.2668941155 0.3030594277 7.3199527249 3.8733227231 2.5994246517 0.9787052773 4.2887337729 1.8206262781 4.0994505640 1.6063798821 4.5300213047 8.7271013024 1.3581247932 3.0571187954 5.6480768052 4.0976175472 0.4710674254 1.2720992355 4.1010077824 3.3856495504 3.7758394495 1.3954928039 1.1642897471 8.5547961625 1.5537474173 1.5468927866 5.9808517306 4.2959850376 3.8127404672 4.2179037325 4.4517377343 0.9140219233 0.7600012656 1.2480216811 3.5252684481 5.5161793284 1.2792115027 4.0097103891 8.8908984248 4.4524631181 1.5097241445 1.5222125215 5.5782894875 1.0503782413 3.2871582371 0.4677215755 3.7181288594 8.1816192798 2.5903032962 3.8740606928 6.2854830258 2.9569423820 1.1389683418 7.9916054461 0.1962552560 3.7543379685 6.5237448115 5.1826721663 1.3226027178 1.5090794994 3.0125617062 1.0572753875 3.4753278868 2.8431478546 3.8305846307
4.8631728246 5.6879150834 2.4855304622 2.8930565457 4.3420611388 4.8724520913 2.2964272863 1.4811519430 2.3798548134 6.8465626963 1.3723680606 0.0375452182 7.4603833155 4.2545728794 2.4635614529 1.2112922801 4.2882180226 2.2219384376 4.0191020462 1.5621328746 4.6128563988 8.5409175443 1.4502342484 2.7392892949 5.7176330351 4.1483132258 0.3503836012 1.2576352866 4.3042871470 3.8326417696 3.8461358565 1.4362104614 1.2523904951 8.5096329511 1.4169260809 1.1215643619 5.8868968638 4.2752623754 3.7342602014 4.2641244437 4.2458634239 0.9415152444 0.5833515602 1.4476571917 3.4129627439 5.4463799694 1.4903159692 4.1115383451 9.1576403086 4.2469744873 1.6180914708 1.8299117065 5.4909347446 1.4347934617 3.2738361508 0.3650086359 3.8972463629 7.9549020149 2.6767275546 3.5183289748 6.4287905598 2.9795770811 1.0969061913 7.8952691626 0.2453047442 3.5335479067 6.5020970039 5.3542291808 0.9980678668 1.8012325518 3.0006055252 1.4701124935 3.3123348759 2.7267946139 3.8771774873
4.9182047330 5.6641025986 2.4663312912 2.9373016454 4.3183184663 4.9185359777 2.1597842275 1.5111225107 2.4018321581 6.8196622932 1.3980771917 0.0248552386 7.5226466839 4.2343228163 2.5264766221 1.2159437587 4.2551883508 2.2231762353 3.9958857571 1.5509401159 4.6822832197 8.5747265553 1.4734544407 2.6982840617 5.7331180390 4.1496080602 0.2607889284 1.5496316673 4.3170406582 3.6961305997 3.5502078915 1.3861902681 1.2616589986 8.2782711768 1.4104016679 1.2260688461 6.1325548689 4.3175784521 3.6894566918 4.2715193559 4.2284060328 0.6441646287 0.6380944447 1.4653703786 3.0765407369 5.4390591761 1.5050665559 4.3122255649 9.1350461686 4.2392974435 1.8957129646 1.8744682015 5.3630676858 1.4614235722 3.2868347307 0.4206582715 3.9302995654 7.9824304418 2.6313967178 3.4511269301 6.4032292018 3.0358001951 0.9749202514 7.9508331124 0.3596165867 3.4710987579 6.3978124502 5.2882536459 1.0261614232 1.8445768190 3.1014457255 1.4813347280 3.2761131579 2.6646649597 3.9835673098
4.8492960589 5.6930054729 2.4937906006 2.8537521388 4.3523143505 4.8412252297 2.3651402631 1.4600520008 2.3929821930 6.8703040570 1.3632334371 0.0516158251 7.4305223288 4.2606095546 2.4188125684 1.1506614540 4.2924760812 2.2083433816 4.0857097821 1.5894742184 4.5701482295 8.6409102860 1.4200202879 2.7871196859 5.6127399508 4.1223660800 0.4190612366 1.0778968930 4.2971515315 3.7747340973 3.9770073129 1.4953511739 1.1221419354 8.6593482173 1.4248745911 1.2507840333 5.7723396908 4.2260536116 3.8641197584 4.3957909223 4.2522343899 1.1321249002 0.5298859216 1.4307552167 3.5199702759 5.4473405627 1.4807733179 3.9548624365 9.1204781569 4.2596950329 1.4880183879 1.7837360708 5.4384331414 1.4887151465 3.2762549786 0.4172971223 3.9218461458 7.9348275115 2.6320044541 3.4675125381 6.3938209942 3.0510606927 1.1249993567 7.8873014826 0.2995368681 3.4533520871 6.5137284632 5.2840676802 0.9713612741 1.7524883379 3.1113090704 1.5119797423 3.3644925739 2.6909897847 3.8464577165
4.9232623071 5.7295167914 2.5110969486 2.4637913573 4.4503506426 4.7062650807 2.4908601460 1.6402256830 2.4064621213 7.2114098641 1.2841699733 0.2272872763 7.2897855112 4.0243426665 2.6183434408 0.8752285139 4.2562288441 1.9927595124 4.2312550458 1.6757924963 4.5459239998 8.8563465708 1.4282535277 2.8945408028 5.5228933769 4.0264202090 0.4237812864 1.2504360113 4.2668443494 3.4119849800 3.7172731769 1.4018403101 1.1453887141 8.6442256814 1.4731671982 1.4671684964 6.0205968309 4.2980735408 3.7622639613 3.9702924057 4.1698756067 0.6760945501 0.9758116510 1.3702880343 3.2325899826 5.7366803022 1.6725989661 4.2910049788 8.8214163325 4.3385298016 1.7014394652 1.6682596503 5.4191378240 1.2604488281 3.3166748886 0.5170609234 3.9349455263 8.2885466109 2.6755636101 3.5889635342 6.0506219909 2.9538341161 1.1993339821 8.1577962892 0.2893529244 3.5841878866 6.4087904072 5.2217864760 0.9252734536 1.4539373971 3.0364708306 1.2312941833 3.5303571441 2.8371376855 3.8172815136
4.9935302316 5.6629202249 2.4859440492 2.5887026298 4.3531553445 4.7740017670 2.4893043762 1.5295512945 2.4465330904 7.1051959910 1.3784598151 0.1697477139 7.3074543583 4.1537952594 2.4554084804 0.8364069942 4.2723221432 2.1045330926 4.3849458283 1.7893857625 4.4605011547 8.9000920239 1.4163640672 2.7963665617 5.3483677781 3.9598602700 0.5240987639 0.8533381618 4.2449780784 3.5545856758 3.9581654371 1.5643018163 1.0666380662 8.8530220142 1.4785949861 1.3299543082 5.7065550896 4.1595335464 3.8925400711 3.8350834425 4.1001168928 1.1784214647 0.9129952060 1.4252144101 3.5412921256 5.7741488614 1.6657314425 3.8229169849 8.9333006360 4.3094756992 1.2745409078 1.7442134075 5.5252689174 1.5397074462 3.5495270498 0.4856718988 3.9839954083 8.1580138592 2.7098842959 3.5364142506 6.2501444498 2.8313929908 1.2053914710 8.0408334425 0.2274708646 3.4339530291 6.1655622226 5.2352741331 1.0208030687 1.6210850099 2.9937945141 1.4875324369 3.4640578791 2.9259566517 3.7352147997
4.9328267883 5.8015694514 2.4176479906 2.8893511938 4.4826145793 4.5528312316 2.3288319834 1.9266116080 2.4108047268 6.9299250490 1.2666964251 0.3557981814 7.3744213656 3.8373159815 2.5940857940 0.9865181832 4.3535534616 1.8156204597 4.1587629639 1.5608568224 4.5240692795 8.7314257178 1.3110386099 3.1452555493 5.5420328252 4.1029979397 0.4488641961 1.3249313461 4.0411985565 3.3967349076 3.7867422889 1.5247200463 1.1001380234 8.4627169037 1.6204987019 1.4216747884 5.9843852028 4.2033973220 3.8881554472 4.2763062386 4.4221163561 1.0819308922 0.8117193328 1.2632710684 3.6018981863 5.5474861241 1.3016542289 3.9710136067 8.8036445961 4.3827762650 1.4029067041 1.6040314715 5.5553169359 1.0153099443 3.2940489585 0.4381516070 3.5838537031 8.1585869640 2.6459444616 3.8895398746 6.3107510364 2.8482147207 1.0746797895 7.9195378580 0.0782321857 3.7694313711 6.5483282424 5.2658833992 1.3414650395 1.5494320912 3.0640478176 1.0105088247 3.5122486972 2.8969368722 3.8225184007
4.9620238689 5.8560966997 2.3750082866 3.1016323104 4.4093706034 4.5144563235 2.0304771408 2.1606755127 2.4101190541 6.8415552742 1.2881145557 0.4872338851 7.5689465054 3.7817021789 2.6097398201 1.1036510785 4.4178674039 1.6510151510 4.2235730255 1.8468071623 4.4405739178 8.6848715392 1.2251406495 3.1577042456 5.4123344041 3.8607609809 0.5601839454 1.3707290646 4.0595872055 3.1231476922 3.6592593744 1.5915314980 1.0499979800 8.3922621613 1.5123243325 1.5890742340 5.7994611258 4.1650448254 3.8737703545 3.8775456292 4.1975822913 1.0206662560 0.9462323051 1.0701154694 3.4707278912 5.6854490630 1.4509992856 4.0772412929 8.9804436532 4.3933216918 1.3176083864 1.7028371779 5.7558929367 1.2769133249 3.4860552570 0.5835256799 3.9666043926 8.1773516730 2.4844810887 4.1061851018 6.0403985462 2.8211396175 1.6144405330 8.0908042553 -0.1224696925 3.6470106211 6.3057169593 5.0273009174 1.0731406674 1.5652230695 3.1293405835 0.7234287731 3.6920643560 2.8694760633 3.3667007971
4.8955626168 5.6748748100 2.4759590626 2.9290825819 4.3280611197 4.9004190538 2.2122369124 1.5008866255 2.3938375880 6.8280910115 1.3883586321 0.0346604064 7.4956071020 4.2427532586 2.5073871170 1.1965804408 4.2636965967 2.2914255869 3.9994495255 1.5412863765 4.6793092476 8.5174060712 1.4733715244 2.6383626239 5.7813299571 4.1622832179 0.2485330026 1.4287458663 4.3086265542 3.6997973455 3.6624256492 1.3982102775 1.2712099265 8.3602558083 1.4153159189 1.1941464089 6.0499902544 4.3079623181 3.6906770992 4.0775734047 4.2400985707 0.7768734515 0.7389798663 1.4600373316 3.2297454492 5.4999899110 1.4986978794 4.2347631998 9.1566937782 4.2414786902 1.7904158382 1.9028591606 5.5060116859 1.4008004017 3.2653917754 0.3452571863 3.9076137013 7.9351466703 2.7316309736 3.5159914093 6.4620951499 2.9157021858 1.0493802144 7.8749833361 0.2083624273 3.5529736740 6.4722520151 5.3820982462 1.0239345936 1.8614944929 2.9778327866 1.4467057405 3.2531261605 2.7655110316 3.9199377532
4.9560420278 5.8451028160 2.3939510588 3.0897876857 4.4320023849 4.5367534577 2.0406777824 2.1127685935 2.4302056273 6.8129121849 1.2561358829 0.4598995005 7.5561947676 3.7821130035 2.5789712058 1.0518309016 4.4051669851 1.6338375337 4.3149602064 1.7424351747 4.4589334988 8.7553180206 1.2565163106 3.2116094049 5.3605356625 3.9469869718 0.4886032039 1.3942497447 4.0712378330 3.2160483448 3.6573141219 1.6333293528 1.0120717496 8.3481179164 1.5425369643 1.5506862844 5.7883092570 4.1346054935 3.9965912672 3.9487310363 4.1754824462 1.0350809236 0.9403610872 1.1516766127 3.4449274454 5.7403459081 1.4558439298 4.1242013424 8.8432618433 4.3147609442 1.3716610802 1.7879137734 5.6941349018 1.2445606877 3.3621843402 0.5225734756 3.8679924493 8.1386242324 2.4836659507 4.0394023797 6.1339390805 2.8391925728 1.5039859036 8.0401661017 -0.0449324361 3.6328151768 6.4098488033 5.1670621797 1.0529276563 1.6455074427 3.1519977273 0.8384443014 3.6390790827 2.9092057573 3.4248399934
4.9153007576 5.7002150738 2.5576049063 2.4685592347 4.4026106978 4.7485236034 2.5038645777 1.5859557778 2.4229598544 7.2244239008 1.3335083472 0.2111107409 7.2796692488 4.0829310487 2.5713165896 0.9559396507 4.2840650492 2.0154862402 4.2866384833 1.7339959623 4.5314036317 8.8425809750 1.4385988107 2.8506945704 5.3405131565 4.0264168690 0.3810799552 1.0758603061 4.2488638475 3.6239226830 3.8849929058 1.4779516523 1.1140331690 8.6942414226 1.4931864277 1.1756653015 5.8768117018 4.2335660751 3.8000100974 3.9460366789 4.1082800242 0.8760593474 0.9004540200 1.4172031203 3.4180711212 5.7496505595 1.7402478894 4.1174350598 8.7976388901 4.3050945740 1.4234816791 1.6699324522 5.4553193229 1.3881981847 3.5611227197 0.5227581859 3.8591193643 8.3618983678 2.7208172066 3.6161667039 6.1436142214 2.7977710439 1.3091713168 8.1913285275 0.1914448742 3.5629718295 6.2137257411 5.1874120915 0.9893350619 1.4505175469 2.9842932176 1.3072148106 3.5494381786 2.8922157667 3.7491661000
4.9160885794 5.8092150877 2.4313710314 2.9301567538 4.4830719741 4.5414723936 2.2780923513 1.9532571824 2.4207170172 6.8939162127 1.2578073664 0.3824858877 7.4102909902 3.8239966311 2.5863672930 0.9702982990 4.3826132646 1.8175364674 4.1842988826 1.5445341802 4.4960280748 8.7161341046 1.2877683083 3.1571356639 5.5466383545 4.1124935166 0.4426047514 1.3352634367 4.0302804432 3.3236716033 3.7820816255 1.5934677673 1.0517262034 8.4335146047 1.6352642953 1.4595912374 5.9628384677 4.1536767016 3.9375056349 4.2011834160 4.3949470319 1.1657323549 0.8812610074 1.2695737786 3.6142671866 5.5786893271 1.3433040718 3.9915582344 8.8004058635 4.3384226124 1.3885665796 1.6558525102 5.5241020588 1.0301286465 3.3075100758 0.4726158303 3.5640336168 8.1474848579 2.6493923368 3.8708376990 6.2928966700 2.8154709495 1.0616163559 7.9089206105 0.0613308212 3.7518798800 6.5321857282 5.2755507652 1.2894775214 1.5748274456 3.1084304110 1.0096182779 3.5618456309 2.8604690135 3.8203631740
4.8539958563 5.6936905465 2.4988248482 2.8315188838 4.3548125214 4.8228405489 2.3908258579 1.4537338161 2.4051132779 6.8845848844 1.3626000668 0.0653476155 7.4214664312 4.2595911131 2.4008388115 1.0604546655 4.2861650173 2.2419427617 4.1420661856 1.5960354123 4.5586193145 8.6921219338 1.4198364968 2.7642637138 5.6005526720 4.1131246280 0.4070487600 1.0139240100 4.2928265893 3.6913912759 4.0022074005 1.5279301198 1.0623644423 8.7113558905 1.4302059895 1.3467883817 5.7426351072 4.2008407838 3.9197361491 4.2715305932 4.2622234961 1.2791534128 0.6406334718 1.4218527879 3.5760749818 5.5070386613 1.4757527850 3.8700032023 9.0773124260 4.2700109398 1.4577527366 1.8131533776 5.4713552422 1.4942004404 3.2605094858 0.4177048836 3.9483745417 7.8913014893 2.6516892245 3.4371955454 6.4169006974 3.0070037962 1.1445122402 7.8314435054 0.2632482971 3.4221541370 6.5293762253 5.2864958294 0.9553572947 1.7776000964 3.1124192141 1.5180795490 3.3527584431 2.7359048075 3.8240179193
4.9772664184 5.7608615411 2.3907458080 2.6780257191 4.4892551732 4.6308042835 2.4571391145 1.7984647268 2.3905195046 7.0870752863 1.2528080190 0.2622895379 7.3052893632 3.9186032264 2.6045363593 0.9698326258 4.2650115517 1.8552600145 4.0977213815 1.6084592947 4.5431838112 8.7407952686 1.3877005305 3.0058528320 5.7029234972 4.1758583718 0.4256591085 1.2351867219 4.1778729593 3.2692872524 3.7366717609 1.3313860527 1.1139280602 8.5836119409 1.4994379580 1.5745302723 5.9617499680 4.3468376497 3.8781263068 4.0936777581 4.4070160049 0.7291277192 0.8995660474 1.2541348387 3.3989057252 5.5280505228 1.3628012724 4.1442300181 8.8588697728 4.4638868742 1.6650652363 1.5121273269 5.5128595664 1.1397542852 3.2779926431 0.5486688437 3.8888152171 8.1632135912 2.6014359437 3.8117029472 6.2797788112 2.8680410541 1.2450046155 8.0302012929 0.2850964746 3.7262982709 6.5031637504 5.1531553425 1.1599896549 1.5028529793 2.9913955020 1.1229795769 3.4677368601 2.7854777694 3.8322777028
4.9077724630 5.8239922164 2.4402093495 2.9975534582 4.4786907471 4.5306528460 2.1750923728 2.0063823984 2.4362915437 6.8367541267 1.2334440948 0.4228906799 7.4818501468 3.8056361040 2.5626526084 0.9246668615 4.4037529435 1.7879865902 4.2073908859 1.5476624245 4.4258868904 8.7173086596 1.2709515655 3.1309862762 5.5576332502 4.1328066883 0.5485260653 1.3432130672 4.0427044833 3.1491896318 3.7493680782 1.6919584121 0.9916096611 8.4266659370 1.6069445134 1.7157575570 5.8920252378 4.0761318691 3.9102646761 4.0827309321 4.2925225714 1.2115861568 0.9067700033 1.2664857623 3.5663518854 5.7049471997 1.4248036720 4.0564002267 8.8672600814 4.2738980501 1.4165622226 1.7523327645 5.4962376176 1.1016561119 3.3401941060 0.5759627524 3.6299619965 8.1535014867 2.5612134407 3.8229933901 6.1918456299 2.8790377599 1.1062871463 7.9477459554 0.0945604725 3.6797722657 6.4297830606 5.1830363737 1.1257256306 1.6195406815 3.1975746700 1.0261562469 3.6548812475 2.7672299477 3.7713087375
4.9907395526 5.6706675543 2.4827547162 2.6221380118 4.3472889536 4.7771700611 2.4814980922 1.5149329104 2.4516309449 7.0684993061 1.3835881586 0.1554141628 7.3209332654 4.1710187287 2.4301165262 0.8587090653 4.2756897071 2.1181122928 4.3827881388 1.7856153306 4.4441588040 8.8951456946 1.4142521907 2.8171944723 5.3692117824 3.9570085258 0.5389174364 0.8356664631 4.2525613970 3.5407943363 3.9713365412 1.5848090933 0.9885595871 8.8721755646 1.4670520742 1.4258475802 5.6886754085 4.1453742676 4.0309950972 3.8964136209 4.1023951514 1.2063673888 0.9029302104 1.4195446211 3.5426303997 5.7494891840 1.6323250939 3.7836350670 8.8989673367 4.3164952999 1.2568903366 1.7322517924 5.4641389265 1.5805151772 3.5131705951 0.5122024662 4.0384252097 8.1037581693 2.6356826853 3.4677161108 6.2459761345 2.9029238907 1.1389077469 8.0107379624 0.3045364544 3.3677605999 6.1979489829 5.2046949702 0.9713198995 1.6560806315 3.0613921108 1.5354762940 3.4702859678 2.8692727572 3.7784414307
4.9435633522 5.8402274531 2.4073458434 3.0738164707 4.4466776378 4.5373767860 2.0605109634 2.0867061192 2.4349755131 6.8035539886 1.2398227238 0.4508850560 7.5478495201 3.7874828272 2.5643553737 1.0087220822 4.4067069429 1.6490470789 4.3074790232 1.6743953863 4.4578073490 8.7946403120 1.2643618635 3.2065747862 5.3644489949 4.0114979581 0.5261249699 1.3939795528 4.0653706935 3.2109811238 3.6750611748 1.6658037655 0.9859653139 8.3628393797 1.5549273947 1.6298708027 5.8015375764 4.1069903562 3.9789127204 4.0390995801 4.1731857630 1.0568280474 0.8568819482 1.1941607049 3.4486375117 5.7805553439 1.4595396081 4.1301071640 8.8186326474 4.2817383078 1.4038439493 1.8053115605 5.6317587536 1.2167810833 3.3324957143 0.5302922120 3.8057207733 8.1442825341 2.4731294643 3.9607006056 6.1475195801 2.8599270747 1.3998323850 8.0203825885 0.0180130134 3.6279627740 6.4268856799 5.1891302927 1.0430093998 1.6563278143 3.1795493323 0.9102168042 3.6366423636 2.8924677998 3.5011173670
4.9604294270 5.7434897165 2.4253366901 2.5706662189 4.4873484218 4.6690164853 2.4697115736 1.7231366408 2.3918848452 7.1528303710 1.2465940196 0.2435886063 7.3144054983 3.9649313247 2.6135495602 0.9242342661 4.2686993473 1.8559013737 4.1680124719 1.6089515612 4.5761732679 8.8743242027 1.4111335963 3.0430141465 5.5784791002 4.1606511773 0.4104894695 1.2946042862 4.2321331879 3.3721913665 3.6734013256 1.3404329603 1.1287395122 8.5383748634 1.4806119809 1.3537545516 5.9976304152 4.3492075037 3.8315151187 4.1076901201 4.2976808546 0.6001028183 0.9801330192 1.3043706232 3.2465405871 5.6413354600 1.4944693668 4.2605568922 8.7296267634 4.4154358482 1.7843498725 1.5838703550 5.4409051279 1.1930555523 3.2107428076 0.5051059185 3.9582771973 8.1495201186 2.6904132263 3.7221466040 6.2228334184 2.7927271988 1.2808615385 8.0154804245 0.2482976752 3.7153258208 6.5621242985 5.2848632820 1.0237756916 1.5099178120 2.9891763823 1.1630293116 3.4454841083 2.8541855813 3.8040861925
4.9096552734 5.7137926452 2.5534285965 2.4536332577 4.4182267403 4.7347186910 2.5015027177 1.6025881609 2.4182296196 7.2281290474 1.3180085971 0.2164969935 7.2802484274 4.0637731081 2.5924230202 0.9589900316 4.2771000750 2.0305257472 4.2603199194 1.7183813599 4.5431215724 8.8153121317 1.4361052299 2.8477060734 5.4298379679 4.0334290987 0.3436531340 1.1365828228 4.2580941477 3.5165552416 3.8429521193 1.4545647899 1.0770496387 8.6903750768 1.4860839624 1.3266690123 5.9191453958 4.2545495806 3.8783093650 3.9258337645 4.1233984305 0.8103660747 0.9280168244 1.4031032510 3.3589987429 5.7277821830 1.7333602520 4.1975261726 8.7823142651 4.3137540707 1.5081172005 1.6577019636 5.4170275736 1.3518634687 3.4974248754 0.5446456285 3.8838927593 8.3718838755 2.6726685737 3.5881258228 6.0910761615 2.8673689778 1.2702027279 8.2185757114 0.2593800381 3.5487415416 6.2508473648 5.1519254348 0.9454799833 1.4340094850 3.0189305405 1.2822298295 3.5711519115 2.8414344016 3.7905606375
4.9476802085 5.7377671945 2.4520197523 2.5246769850 4.4791115944 4.6817593141 2.4762422233 1.6900758439 2.3939619583 7.1775317151 1.2531085219 0.2391485120 7.3101980681 3.9855970099 2.6191243549 0.8771357782 4.2623710075 1.8823974179 4.1990034804 1.6248374962 4.5668253429 8.9214816818 1.4196755169 3.0204953201 5.5152588495 4.1213339538 0.4300481013 1.3169893706 4.2510701488 3.4297095319 3.6527821876 1.3584329552 1.1762383211 8.5465846586 1.4744801961 1.3319048054 6.0300123065 4.3356700014 3.7586832369 4.1166516497 4.2426842991 0.5904863772 0.9689083836 1.3318121145 3.2023010133 5.7019712863 1.5606281706 4.2909087420 8.7515972015 4.3844496281 1.7963945688 1.6301748391 5.4339256542 1.2027137917 3.2056319086 0.4857708469 3.9605177118 8.1738415595 2.7127551844 3.6718143662 6.1675349109 2.8198782764 1.2645101695 8.0371492825 0.2396731217 3.6862747228 6.5527581880 5.3139391213 0.9738711484 1.5006956443 3.0009802753 1.1803960635 3.4562803033 2.8724416662 3.8000871354