-28920.314273207
-28920.1563106604
-28920.4827178454
-28920.746353162
-28920.5917702675
-28919.4389023486
-28920.8374856725
-28920.3994268353
-28921.7411555392
-28920.2445103295
-28921.7369425389
-28922.502002041
-28921.0905564468
-28921.458463556
-28921.5171529026
-28921.645320904
-28920.4428605355
-28919.9844787506
-28919.6953582174
-28920.3893242061
-28921.6372746379
-28920.7730918704
-28922.2274828568
-28921.4831420916
-28920.9813578996
-28920.8099087178
-28921.2501365733
-28920.8644336364
-28921.5344673612
-28919.7290039878
-28919.9618462379
-28920.7360683526
-28920.7265620605
-28921.190997967
-28921.079933128
-28920.5379218236
-28920.6715355004
-28921.5574536218
-28920.1065120847
-28920.9538829876
-28919.2470140266
-28920.0290565529
-28920.8280898586
-28920.640556036
-28921.2396431888
-28921.5631273284
-28920.5466985789
-28916.2125480424
-28921.3900758051
-28920.1475728174