-0.535249922530579 0.186131060484032 0.113263463459742 -2.25079242321887 0.506134765383581 -1.06266132690555 4.45376518057221 -0.566319888400542 -1.60397287911555 0.646473216686529 -0.713642737830461 -0.216914348499714 -0.983717187811217 0.501066352341911 -1.7969590113044 1.99847425960096 0.880872857415983 -5.05075471428745 0.0542983282621248 0.890488521157952 -2.42584769123047 2.15111723294192 -0.789125145418023 6.85120913853263 -3.97678465308347 -0.617494327936634 4.42445821922853 -1.05157807823781 0.0763892352037536 3.65557484431447 1.96207619940428 0.392523431845952 0.380847029985534 1.14177464450045 -0.126055980625486 -3.16696188080665 -2.03509214900429 -0.309221275146161 -0.0555316858109958 7.25326570175174 -0.0686479046974047 1.08401946982503 -6.66885914040292 -0.195666762959022 2.22268179555768 -1.50494174984755 -0.0798401680828335 -1.11325932541088 -0.482147670840759 0.0286734418522385 -1.91908763388131 -1.84579940459729 -2.03502658590757 1.31621259096215 0.328146641512076 0.797077049164423 -0.0573455981535609 1.1775481840621 -2.31719781289829 -0.537577026798836 -1.14328490971664 2.13052322148695 -0.0433495482201984 1.53524732714282 2.54704377517287 -1.24589167030258 -0.138008261712492 -0.973363617843428 -0.560017089369268 -1.30404922241473 1.50474094679446 0.836815741971584 1.21811734276104 -1.6500616792277 -0.0289508637399249
-0.809703216041629 0.105606465093487 0.403867390239477 -1.64826525037759 1.03270824767147 -2.10435506125994 2.05946722281358 -0.7869384233098 -0.84943393843311 -0.139053671717434 -0.844281707471712 0.68165823103881 0.0859722459524546 1.16033080064327 -0.262619283108323 -1.82166961390278 0.995376620399543 1.2956504611699 -3.69191222650791 -2.48676943492233 -0.234258744349054 1.88979069983479 -0.96444677957943 -2.21783526860413 1.01457143823746 2.74438586808571 3.80653400306557 -0.202238499241937 -0.802787209223393 -1.97514151047442 0.929168434230643 1.01555308491697 -0.872410589955906 1.63555475136029 -0.046836476524928 4.94508628563981 0.728383121744224 -0.783207240331018 -0.204559432865797 4.28164842484454 -0.0904935285242486 0.471868405715918 -4.70905836612007 0.613330685629688 0.40199254278349 1.01487379981292 0.404202919028569 -0.228116124961921 0.830041917084664 -0.085768357577167 0.726187400779588 -0.827798887846317 -1.72303057766418 -0.670423544473151 0.681553072973876 1.15518165500407 -0.976625831848029 1.27916944131579 -0.820777722963146 -2.80343764941507 -1.36461409717229 0.0712550019551807 -2.55882764908987 0.196407497396858 1.68868271406843 -0.0262409224088638 -0.933280140280579 -1.42190724484848 -0.258644359675856 -1.26553977339351 1.00845067321591 1.20108096491119 0.786532189220324 -1.13782028988264 2.30900473980004
-0.111071084927488 -0.449574124619368 -0.372093199577694 -0.789854567007798 0.280435219033675 -0.0441507035510889 0.10488964190269 0.591072914179155 -1.24292718989014 1.16116075231468 -0.50014512655546 0.348379156049444 -1.15919925872695 -0.427985353865554 2.07883147626224 1.87926949402754 0.0272454518946755 3.52850353557548 -2.36211059103243 0.449223426329466 4.26826532558796 -3.08901121546024 -1.02833608900594 -5.95141785672568 4.00954486129788 -1.2299829777163 -6.15665271804277 0.740817998645119 -0.0342769011851744 -3.4044920951269 -0.148574976022164 -0.896509270318242 -1.1278197321964 -0.496074043914471 -0.0405033384920346 2.88696323486407 0.494648110838374 0.661944564851165 2.11029944869581 -1.42543582500289 0.623979675197989 0.631173103903912 -1.16307082386576 0.193728409287782 0.510719554170629 0.0239269307599502 0.32147720335954 0.741138615043585 2.45494407933409 -0.239080588725024 -0.0376854108840242 -0.577505209811024 0.18863582788889 -0.499785429409145 0.841990084408738 -0.301422351958772 -1.0752792662569 1.45464199915474 0.615029926830541 1.35146162575005 -1.52507064898108 1.72869471500035 0.579645652086269 2.16657598270757 0.525241394428661 0.960773960612238 -1.43114444240076 -0.646580431632928 1.01005761186098 -1.29866842050045 -0.342714504492903 -0.476028705590482 0.244381429372318 -0.0695979268243753 -0.617879993211452
0.866096735186754 0.131025663356803 -0.869585463262766 -0.624269695484653 -0.298800599420553 0.4781557781362 0.48199726138358 0.347262783633935 -0.622748631640767 0.67871226255956 -0.960938511129494 -1.26793346919922 -1.78146606588437 -1.33356855676974 2.00047560526709 4.33728269761864 -1.68930620626273 0.736197985762971 0.364463197780676 3.31819486190287 2.02324913974515 0.695942244377371 2.10308879360761 -0.250690913268356 -1.86718968628966 1.01160412961301 -4.22303347371646 -0.700898814489344 1.17894557790786 0.436961841692056 0.691013185055001 -2.02132364158307 -0.658008722166546 1.58038404824653 -1.2859617781359 2.18480946557046 -1.49202119181056 1.36771870263459 3.17190430985855 2.45129337184266 0.224742582247988 -0.966011809264646 -5.02016785845174 -0.795142295035749 -0.376267640512334 -1.36210778710634 -2.54477734890785 -0.611379476449288 0.21216578052596 0.575122055522826 -1.15405576951178 -0.694458461510051 0.542500943917541 -0.0807896759894377 -0.192430259972742 -2.6523861881082 0.438240450633173 1.13785577108792 -1.1373214961272 0.484935773667517 0.611589278358789 0.914447333580621 2.2167191532988 2.5973828637237 2.82193158489355 -0.781152415746783 -2.06408543592444 -0.52084121075316 -0.220013554648159 -0.774015551281167 -0.770684688857647 -0.889228938370394 -0.133067632431878 1.47446776538227 -1.20074980699521
0.737523902977799 -0.0281386526711562 -0.917458350936224 -0.912819311900518 -0.706030990856451 0.959296605499498 0.847151828446915 -0.327155481755791 -0.864013628482365 0.863233299076315 -1.33281290994127 -1.23037275675405 -1.94410085516534 -1.52452737516395 1.28733063275133 1.51765224886485 -0.103116095858889 1.55703844361082 -2.8274016040414 2.66524298281974 1.48926882729927 2.08833478285414 1.96376464197744 -1.92975513538281 -0.954748326358467 1.61457198930831 -0.296631617914971 -1.46306030077349 2.27479263038104 -1.14070223792627 0.118328276958848 -1.86800652534173 -1.81656237722345 1.70953332148625 -1.56288075830396 3.25269038630542 -0.647916376144901 0.869091554600814 1.21016852433684 2.51351429329029 0.330211493393456 -0.995725004697796 -5.12357911680096 -1.08661319735328 -0.279127556641856 0.718068632524283 -2.553302865473 -1.00708876057543 3.23432834835092 0.638164958226196 -1.0021069936655 -1.47314647615074 -1.57049070550669 0.387213849452428 1.00584846105161 0.860819034455948 0.610398343990148 0.151109568208274 -0.920228198939974 0.828253458650237 0.163470911596771 3.04015462422582 1.24133464941532 2.23705322635854 3.3529379038502 -0.296263693242794 -2.89951972488162 -2.00580729913637 -0.469050992328274 -0.279767246777689 -0.555482437067947 -0.946430811931539 0.620908236949331 -1.46515831986851 0.36829619639201
-0.460759960250217 0.204895990095623 0.396113204223967 -0.775949276969109 1.11828762926397 -0.211346370372061 0.274476690537723 -2.52541952321377 -0.398396856871262 -0.348704400431208 -0.954254931916882 -0.967355209971932 -0.0847556005654925 1.11038380512183 0.270075992641855 -2.1913716887766 -0.602955775516692 -1.82449088394318 4.43512314962819 -3.60542267486684 0.95115675420917 1.19999210328528 -0.878460135456716 7.20703883347121 -0.602654185271784 0.739301048564165 -4.06964770905621 1.16095300728664 -0.817229859544995 1.82413478633943 -0.912664017349858 1.28991947518609 0.358703158346164 -2.58278003375796 2.19231014094533 -7.93059291175433 0.707068687555897 -0.955768539565455 3.13059544516251 -1.44018392222215 0.192003199958425 0.0752376386931443 4.30001097701941 0.997113656797327 -0.0991049198905891 0.164984776355527 0.870376848406694 1.65265540675595 -4.0726420142499 -0.557680729134415 1.09167903929311 1.97435629597488 1.20932597426645 -0.943662249478705 -2.70577743164395 -2.18715611021265 -1.76825085957743 -1.10485722173368 -0.0452927869849194 -0.467485191312509 1.51714419914282 -1.63904785030942 -1.12682240179572 -1.85244416017224 -0.758528262285171 0.483249387975825 3.70702979106045 3.36233296705498 1.11896845702912 1.26982425748656 0.778485154706135 0.927625001800818 -1.57542027904943 1.4624812886409 0.319922458081654
0.0924362530686032 -0.00728701681261224 -0.0365430703400105 2.99448054283919 -0.631813565370294 0.32732825979891 -0.0940676171810874 1.25321699653249 0.536295332535521 -1.05019353990121 0.97092287087419 -0.0206698589590126 0.219448169355274 -0.104776256311893 -1.8482620059321 7.87816685984636 0.708181460428841 1.81257819782439 -1.20046595735294 0.555628475652012 0.656684604723001 -5.50207898792395 -0.285820648931247 -3.21698652360341 2.22364081654107 1.35390854336369 -2.81111984457928 -2.62117866829022 -0.552276530193469 -2.72282563656223 2.60811952786448 0.18242301742174 -3.42284693399627 1.07945345008135 0.215038729713177 2.89777960316164 -2.62313039169098 -0.0419123022960398 4.72350461598424 -0.731257356482358 0.698597935459774 1.75106072983802 0.130172828879087 -0.315730533654555 2.78443540710437 -2.14932286097327 -0.649387046392877 -1.51802248752867 -3.70272936613603 0.58443715746062 -2.68654096195635 -1.54961130174836 -0.392771543172753 1.1496843821768 2.63711847120867 1.33023563746475 -0.535476179491806 1.13461129768596 -1.5481771411464 0.732173440065144 0.97858424011356 -0.0695519041015803 0.234535909126557 1.10031999833052 0.970004473299755 -0.441917126253113 -2.3851412356937 -2.80970573857161 1.0181455268943 -0.312068256204874 -0.133398533237672 0.360828945340966 0.844692569544486 -1.27998628036786 0.276175417518208
-0.663863635258664 -0.0542343078265049 0.360600117277906 0.0561628913107828 0.706030733746268 -0.0790305281158969 -0.436843056787412 0.123422915239206 -0.627726541897946 0.387701844580166 -0.744158888365784 0.314582536686511 0.945446079929834 -0.0715146832402254 0.86879510655957 -3.39572643765063 -0.465545552090353 1.620883787196 -0.0308113130256514 -2.25584052455607 -0.12308635800938 0.581922362758617 0.876619997875463 -2.69647261411348 -1.44555932482258 2.8052459053336 2.0968785542423 0.885320092255012 -0.0259838122256512 0.531793076117285 -0.0708451683231398 -0.331997637836235 4.23758462453538 -0.821387588317727 0.143990958565666 -2.48825347489984 0.19857570757189 0.189937576746495 -8.38649786041494 -0.47553556825908 0.603874430201311 0.363877500783318 1.06720214985127 0.057678298730638 0.593557112769355 0.185285939311812 0.0503185197361766 0.69595895653928 1.19594184656913 -0.339344818431719 1.90760997819252 2.24842161021947 3.64417509301119 -1.92391873422388 -0.966794452662345 -1.86630522725941 -1.71352058620751 -0.884253856325229 3.59418284609751 1.67342476735586 2.69726605613888 -4.00517758772583 2.52785564219971 -2.14897859043795 -4.55287447133591 2.17813514232445 1.62138335228198 2.46332252887444 1.27919335256283 1.01227672985229 -3.01611893585837 -1.68116198409928 -1.74230792787091 2.47029664259408 -1.53106157336012
-0.485305498110977 0.193530691556892 0.765563054008052 0.870848131372523 -0.922225687953352 -0.97852741876307 -0.721927342153938 0.262470930532609 0.193817112300991 -1.1459182322131 1.26303474887847 1.62538398673277 -0.186257558694173 -0.278931124461881 0.0497798739023461 -3.16033075207141 -0.432914927408289 0.34587464575477 0.658324196361348 1.54100916634861 -2.35548640427214 1.56945378013779 0.0471920599083111 -3.45014175104612 -4.01616004920175 -3.73723792359628 4.62243151764115 1.06729419529686 -0.414290379956733 3.23526268675672 -0.200863988202482 0.930950722020673 3.60120735341306 0.42167381308805 0.0979008729026044 2.88344442489662 1.16204366868383 -0.827549490968601 -5.01260239131071 2.1927225456792 -0.533785680037183 2.12477552334123 -2.83877847253837 0.490429704062404 0.605236085731605 1.44810702962803 0.255008564575046 -1.21572776071826 2.24285337498163 -0.807104860530082 -1.43119303622539 1.15941471706048 1.31025303402547 -1.30412635546969 -0.0389395943577354 -1.44343070961576 -2.0146454616843 1.01536333760176 0.0371673338648508 -0.483085865899302 -1.34044008352628 2.58863520396026 -1.7021028371914 0.346000886854727 -0.97508291363857 -0.557357284523933 -0.303138305321533 0.411268821083619 0.749677758448443 -0.266308300017058 0.507411317443232 -0.419602019231723 0.550267728332028 0.436290527003688 0.122143792077723
0.817595213115341 0.177920761003504 -1.1513185745013 1.28217377380663 0.323178758552041 -0.912542661343382 -0.676279228895819 0.280480470425921 0.194848124135673 -3.0479520047521 -0.433100560960569 -0.623038909037614 0.802126950272903 -0.135533061978704 -0.867119776605757 -1.96168436348507 -0.342334752752298 1.96860782649862 0.0286927251159794 -0.0150396601670225 -0.198199298263667 -1.57491042955611 -0.475053486665556 -0.819663921649469 8.66043384823737 -0.476290700867176 -2.03923650804749 0.217714732500054 0.300147342560221 -4.14720551004266 -0.625343387609749 -0.00517254266587161 -2.29766283828798 1.59183470736609 -0.311793148308837 6.09829410576735 -0.360299812583914 0.0510857365228831 4.41012612628571 -4.1324558701623 0.49956328621085 1.25965349285904 1.35944541115917 -0.386705028399851 -0.728467710994501 -0.840750041995103 -0.694444063339791 0.367228932021494 1.11824443475319 0.299072107774026 1.75863236762344 0.0266898367887531 -1.09567401731987 0.28627547684535 -2.07976350067638 0.66375204943915 2.05816418840505 -1.05152382798915 -1.98098176828609 -1.75140680014462 -0.927311070267115 2.46398844424896 -2.03144915481835 -0.00642595480903316 2.81413394725708 -1.6794617144577 0.333553925775221 -1.18586878381123 -1.28721673294016 0.825430903058929 1.28273658799768 0.736453553285085 0.220762002391491 -1.61806817357964 1.39570591740783
-0.69615744560072 -0.125490852442785 0.718594679959136 -0.861114196946276 0.16103710660248 0.625375783492833 -2.53970765031526 -0.750813671237876 0.601683594330156 -0.0437611816235218 -0.949044079833712 0.80466848443396 2.62498981253598 0.583144150349243 0.0225801876202824 0.157198194456932 1.6119792902208 1.47475855699948 1.98944095042397 -1.7835471157073 0.216046858741554 0.264852799269891 -0.498351525917368 -0.848499857137498 -2.78987920101353 4.70054519084372 -2.64072495574859 0.184774547157402 0.325334884548463 -2.42072914170307 -0.504379474162788 1.23659122364523 -2.42435748060857 -1.06101710728391 0.0887683191948919 0.212167066076876 -0.309561689028734 -0.808311221509716 2.99226065351733 -0.558950596329302 -1.57097355843076 -0.72174505103404 3.92199421593068 0.343335682695545 -0.842570124982066 0.617395340516097 2.03032095533441 1.8699857595321 -2.33470238839178 -1.10212311204539 0.889156176188544 1.32264703040723 -1.72888574786648 1.05318347422179 0.1254936806548 1.26183712964506 0.785038893276225 -0.904308450615814 1.41479660562155 -0.778275867017 0.978539502941681 -4.88969369643793 1.21061306784361 -0.744357891647591 -0.593912181932371 -0.219793725441512 -0.102157846206056 0.748145124646313 -2.95137190686066 0.671453013646734 0.514810177185541 0.344006997383913 0.591275774113709 -0.219499591391917 0.0279481340253956
0.516543356930578 -0.23587262496908 -0.0408167558053708 0.0478613177152135 -0.263588588499034 -0.101909991989439 -1.02429200293418 -0.167106449587397 2.21271440508508 0.262129745319486 0.488412417564918 0.788971650638645 0.347719925539687 -0.371906023364315 0.0437804648872627 -2.43580068353281 -0.679581552089002 2.05438801114421 1.61749533209144 0.319012802253447 1.12987584233155 3.24038046495356 -0.531410239054481 -1.7543676810145 -3.33799620266299 -0.370153303245355 -0.460911655258312 -0.214531965542065 -0.0635658648160239 -3.9421110308856 -0.916770838306313 0.382858402948807 -2.61109712089627 -0.0484146188294871 0.135512493164047 4.04423622409839 1.07600508830411 -0.312144103708922 1.76739339711642 0.758259325033531 -0.189102739981604 -0.616765163457043 1.10960681814816 -0.0990326719291064 -1.87575016983973 1.1243981098782 -0.00504321624371566 -0.614432145654571 -0.644452587756661 0.122952146493743 0.843645873988627 0.305075887662224 -1.2084291739474 0.444204378442973 -0.0400027449653196 0.679311843506812 0.680070318547289 -0.789421850569451 0.279012371279777 -0.999078749927621 -0.16285384715706 0.306193802738832 -0.455792077290183 -0.402180490327419 0.526139223188439 -1.25791131425759 -0.364403805328354 -0.871089300724376 0.0493481859047321 -0.0179311212874317 2.26253695927784 0.328049453862821 -0.00642286948683461 -0.133915838926296 0.344265650228225
-0.619379459799949 0.278031753041004 0.259204602765076 -0.254029746107555 0.640742744923086 -1.08509110506866 3.23885374468565 -0.4962972155535 -0.922431118989739 0.45269389958247 -0.611944090411623 0.69574529797703 -1.72776654723895 0.551387443179919 -1.13584131280245 -0.288936567241601 0.738422503068127 3.20439095283801 -0.122127851246364 -0.209258121464008 -0.180059403507466 -0.806736678747722 -0.305092085603766 -2.46645978733 -2.0903356142999 0.786016169082616 0.120315481564898 -2.41212340676076 -0.190931564714795 -0.7676253347876 1.83771920286947 0.222741236581861 0.604145424334417 1.57327675145198 0.125890401667497 0.0211239155425661 -1.46462533045871 -0.146047582921184 0.0690446257101018 -0.0436503671345571 -0.0163041280480622 1.41498481027566 0.385808742301171 -0.0937251464170481 2.41619114696937 1.3543158058939 -0.113993656380066 -1.36689569293812 0.412556943101514 0.0350613443541562 -1.9138729251454 0.411482479645868 2.39911440282075 -0.898692649994084 -0.491692629282345 -1.56178521181329 -0.497841933534241 -0.83776062189489 1.91299797919192 1.24353834079564 1.17575895429712 -2.57536986116759 1.46467341006297 -1.16876787130539 -2.5786732128015 1.38413955870583 1.42602357888171 1.97210041122738 -0.000147067024797622 0.473106905468454 -2.68346720971604 -0.549993648876724 -0.413664316660611 1.92038244076397 -1.11254558754228
0.802264504220921 -0.0672638805811711 0.0785695295573967 -0.481849937248599 -0.437362419357501 -0.372423843273305 -1.49000390531308 0.826155182445039 0.703618526007367 0.41005243280684 0.650315985484825 0.974316468182414 1.08341217557228 -0.713673333942263 0.797102760182745 -5.4359006265363 -0.312887666358773 3.26309974918296 2.02261459181298 -0.569510368664028 0.147301252174529 -0.265387074230607 1.56775865269987 -3.6007671807794 2.90663473498167 0.483256587060955 -3.31727672143861 1.35225661043655 -0.0322259332536873 -1.99364084526675 -1.87092601147211 0.0969778473448711 1.09650011233853 -1.13453570729209 0.0503740555357505 0.5893430768665 1.15169472669934 0.00856896818611039 -1.10621347795012 -8.12435114582336 0.178626271346239 1.9331507895725 6.46456915900913 0.00340388171555195 0.289413249521277 2.65392602099546 0.025393487244995 -0.138281312727063 -1.19077444610692 0.189595105982456 1.67047519933405 2.45450364959025 2.88043932107523 -0.952303722736481 -0.780329920270686 -1.33823587792559 0.668683679863351 -1.39692230568461 1.82130811698519 -0.172843863325787 1.99397071763181 -4.05496568915403 0.244780464376664 -2.40968060291006 -3.02525740310029 0.527901970604545 0.463071123687115 2.03806794226479 -0.188937675243981 2.5943060261612 -3.24664264057589 -0.876019388487478 -1.77261453360691 2.97778432176173 -0.265549053646031
0.229809709738743 -0.206654366638614 -0.413864862603516 3.158042728551 -0.136056281201541 0.260685814530564 -0.219185916968397 0.710235256572344 -0.188397486749052 -0.920370123761107 -0.0147105591325104 0.14080922004841 0.881598422353009 0.111399928851817 -1.59146652558373 3.46916533350202 1.15437818568153 -2.1845500413956 -0.160515687150925 -0.350876724369171 0.949540816707678 1.71714121180751 0.0221197032821486 2.47297444515224 -5.10913723780991 5.77110751367939 -4.60991385126127 -0.695601059164248 -0.431112070803603 2.103361587512 1.11805854409073 0.239230226851653 -0.963973182621953 -1.26136276135704 0.233133115966949 -5.00940702595375 -1.83058028152238 -0.147145700513685 3.12360950437444 2.63009962031714 0.396290353140201 0.777531275926416 -1.58732422342199 -0.049741050264681 1.78092176362651 -0.883402050288246 -0.924104906282453 -1.66731248697035 -2.50705002906396 0.377088336217149 -1.99034340716704 -0.982391013486206 0.0795923138662165 0.648786437004893 1.34355831582828 -0.0372308400801043 -0.450015839914128 -0.622995714526834 0.719208144856281 1.55814864538193 3.74050682246565 -5.8996872878633 3.7156869480394 -1.2257987665947 -1.59488609102045 1.38254033336624 -0.260695841827709 0.370544110723838 1.03197419809839 0.556997073157252 -1.07294316313223 -0.0648074498907577 -0.578566817757509 0.680821594502636 -0.812518829657991
-1.43273389755338 0.698553455398078 1.20499649589133 0.312757568606067 0.763600017759223 0.180530943583478 -0.346858863536108 -0.177645653107466 -0.253969839434867 0.111747284709337 -0.713988551026882 -0.42841164254932 0.805835507555562 -0.00951127700758467 0.801338907561356 3.00127853608333 0.565981788509618 -4.09015841681181 -1.96591459732946 -1.34093399218823 -0.190703507982286 -0.344714564608114 0.54076493596049 4.6524496457516 -2.13549161866735 1.37980622367796 -0.652015998016226 1.17618652853181 0.10576201675433 4.08573663588092 -0.0564356852151714 -0.0803685295093354 -0.388115277754772 -1.43875644648495 -0.00119247702974016 -2.6901178788252 1.08517132344582 0.23612793538101 1.41014831061925 4.28226394662316 0.0419876355797211 -2.10592600447937 -0.988678643016671 -0.113266034561574 -0.834552658138946 -0.573762199763815 -0.284475962673045 1.03777768915387 -1.79312369870142 0.00910170048572695 0.72773854651491 -0.827588057496083 -1.93765870241476 -0.216326080400523 -0.58338711947238 0.610017820918994 -0.311167085012714 0.183333701690679 -1.36949019179692 -0.841557625080574 -0.295021851057877 0.627886978652271 -0.308304934453191 -0.0796637904971496 0.695506956837192 -0.213744437050885 1.77257391019797 -0.41082633445831 -1.14839240350616 -0.539579400905696 1.50800521768053 -0.39477134617778 0.670561612641536 -1.34374549204166 0.967517703607722
0.233528808538913 -0.0796643047175161 -0.127683230975039 -1.46976984811461 0.211591910597029 0.976116239464902 -1.21902288482631 -0.332789280090346 0.327832195758007 0.704680391064035 -1.52060001711538 -0.187004463776406 1.12499049174033 0.797372982985301 -0.957993571090977 -1.93278980687526 -0.780816115627141 0.152269649354929 -0.853136582181555 1.01390835107496 -2.55122850051484 -0.890467952343295 0.163469626045855 -2.67240915784625 5.47569665491432 0.022139500766256 1.6807603779931 -0.840158688573714 0.983187540833799 -3.66536714275231 -0.491968251398749 -0.0206927417653186 -0.263833871613819 1.08337258060406 -1.01510648452873 5.02698050697633 -1.12266930100628 -0.0137001161124848 -0.418874397413231 -4.57381172488546 -0.65467888818376 -0.214995535202398 0.73737195085952 -0.0875269912303414 -1.51136796176676 0.928583765674017 1.19754878521421 1.69907536478407 2.39871948157934 -0.25380040382413 1.91637897810117 0.359667835753577 -0.652209344874002 1.52657988575654 0.46738517545124 2.30832596891636 2.4499281167698 0.249798740932608 -1.64883757764542 -1.24633827069082 -1.91652038870194 2.20730095017754 0.959196589638229 1.49788433242854 2.2972031252804 -1.28328140447591 -1.54891761847405 -1.87925252475545 -2.73297480393436 0.144249354299795 0.886483001613683 1.13495556822128 1.45330348354094 -3.14885746725573 -0.0167209036550499
-0.863905642205416 0.209603163329879 0.523396885974293 -1.2824959328662 1.57215832215501 -1.7741096293223 1.30252224503663 -1.77980333432954 -0.630678938131777 -0.871793268406013 -1.30181390648188 0.115332686214237 0.169941089357316 1.3251317432178 -0.263496543053444 -1.69367605093661 0.993822646452206 -0.935233149232262 0.654883290779414 -3.41160839077786 1.22395117281813 2.9846951863763 -0.986499634213944 -0.465869768031385 -1.30218825890864 2.48773591210103 -1.05836681551535 0.68729640024648 -1.31610666156667 0.336285207251488 0.489431602331173 1.56160343491376 -0.931316332701201 0.680776086000208 0.237733074254806 3.52237017215494 0.676494687229351 -1.06830078166414 3.29423733503111 4.06492510921096 -0.448623331161848 0.221918998215947 -3.66959120595231 1.47742196138738 -0.431214657766704 0.650553812404296 1.08655071957876 0.932668989375083 -2.00830923832921 -0.463054411525206 0.943236732125488 0.278981003837425 -0.92855599777423 -0.907883567713386 -1.54599761812331 -1.3496857657146 -1.69418538620955 0.927627830012833 -1.00650846289192 -2.85949332577945 -0.329354288042626 -1.17563914095175 -2.0657371117414 -0.270123815135933 1.59001565281986 -0.0542204238766114 1.17749959023747 1.08028957239716 0.0808266998558203 -0.468283518431385 1.05362776061838 1.45866037420817 -0.439909352832406 0.560505341607189 1.4189203958501
-0.271819713904403 0.0690855062292326 -0.02008621884312 -2.01621923311575 0.260417134389107 -0.698385305338257 1.93273452818587 -0.669292259667016 -0.404765733219622 0.715110579866422 -0.455503342554435 -0.659683537899993 -0.466137419732109 0.227074571609727 -1.71105927042361 1.29001203485205 0.523117407205141 -6.42180556489647 0.612830349213156 1.11445540198319 -2.43882969860124 2.8952822919521 -0.753458563692585 6.67824726163275 -3.58373054581937 -1.0387130560004 4.38714638944072 -0.679807809050229 0.120229606763705 3.70400334709385 1.52689793105317 0.474232533850558 -0.576751362753845 1.27173690013948 -0.0972701816231838 -1.32669445891136 -1.67672580499813 -0.442137469680126 0.68581261737916 7.21129400700338 -0.0828211035470007 0.784119210150874 -4.9862426839972 -0.126048524430173 0.670808695527604 -2.57229045250325 -0.0383736948444844 -0.817711426918153 -0.337794186916763 0.0607620782680902 -1.2749988570339 -2.04486773528021 -3.15108044189979 1.86269899982967 0.647214465344731 2.01374454760233 0.245828188373256 1.43191937249296 -3.26118504964858 -1.23728722091119 -1.91735728234829 3.88987755450486 -0.55733620148891 1.9710984528434 3.84006888426199 -1.96812523068473 -0.996426144167417 -2.57847163841787 -0.477225296383153 -1.5963739876507 2.98450415351018 1.13664786744719 1.6396623436473 -2.88321456839283 0.435433064542674
-0.561079982866669 0.0104785255168306 0.197500472785695 -1.66100917371871 0.314432384339514 -1.55076444092007 2.61377338079332 -0.12810026369221 -0.879420441991015 1.29698666279206 0.342057845084978 0.809817887183342 -0.530022872505866 0.697018250494115 0.32135713290398 -1.44822324343084 0.58456365567076 2.61646763840321 -5.44774286446489 -0.931195490915091 -1.29648118417186 -0.382650400810588 -0.5934599251201 -3.27859500859464 3.58196317041996 1.56285504728564 8.15256641732912 -0.75126772782143 -0.427039702611698 -2.66254898232004 0.861742060013681 0.312369332229416 -0.069913143908994 1.78912075025898 -0.169007522282071 4.49776701732722 0.968126797631753 -0.48663989996185 -5.50133208284171 1.74015205898467 0.665430978935528 0.794238552741756 -3.35213880540078 -0.185967538407509 0.975875584333415 0.396706100306455 -0.111881753335157 -1.13110894277024 2.69975282583091 0.48625732000923 0.00225614185769079 -1.36735540594571 -1.37011856908469 -0.486903952120009 1.94397512828575 2.12858872446846 -0.430332769838285 1.13327483895362 -0.307264923762096 -1.80861330168906 -1.66925341174342 0.793909194597061 -2.18710417395564 0.294001894961073 0.868634155584879 0.172205715851053 -2.01523681510569 -2.67665764651365 0.142659899147174 -1.44473837200758 0.645208491695306 0.41014447825243 1.31114314947975 -2.02447067022559 2.19026174411567
1.24196559780493 -0.254677920879434 -1.531409443438 2.59892115394986 0.133144251266475 -0.623122726957341 -0.631325570242557 0.390071372028654 0.0972488414779772 -3.28945045764006 -0.337650205214164 -0.501810943432494 0.879597590907249 -0.201523475822423 -1.36446265927438 -4.46093341248017 -1.3018319041947 2.06844216797898 0.589427666116777 0.322519013821918 -0.897004978751476 0.700671271977201 -0.712841068279204 -1.62678318034981 3.67752999707937 -1.24757677044336 2.41790427212011 -0.616824555909365 0.0910733119873931 -3.62919791061869 -1.08875441095907 -0.134294048005802 0.621408316255679 1.34473562335721 -0.229448727041512 5.32521932064656 -0.0692400294493434 0.122869357014749 0.330145673186554 -1.4783023066547 0.433094133205989 0.442184777953837 1.09992584841966 -0.347237329725797 -0.843497778523097 0.399908407638369 -0.910859618084072 -0.562671494900755 2.08306916630195 0.251527035584164 1.69957647253115 1.17858382388008 1.31982576036684 -0.364004513213825 -2.27166668477354 -0.662482696464629 1.37056594080348 -1.93803125507024 -0.166423822050968 -0.712717398281078 -0.135013956518797 1.67331009621415 -1.74738251155698 -1.09672919751178 1.16102216992593 -0.878824460586328 0.875578444523269 0.643854549470508 -0.0424370641799768 1.24523732488631 0.0160562738314453 0.537448214597047 -0.838879822522415 -0.0515205098426956 0.415182809402664
0.790962454787261 -0.00373246852969769 -0.550580374314815 -1.27040018429696 -0.277833263979563 0.969388951521144 -0.42106394773347 -0.0628063613348138 -0.155119972846025 1.14901409592916 -1.01791541328033 -0.949530789410533 0.251272753612966 0.741885777236001 -0.925296869091827 -1.13568267581941 -1.78439737908318 -0.896205880302051 -1.74601237139064 1.68474532872272 -1.52495520650882 1.15014306674365 1.07076235455822 -2.36461278733545 1.05906024167948 0.308617837546161 6.71158082555571 -0.556069933836588 0.976864172987867 -1.90655839754318 -0.56785149376194 -0.680880472734592 0.82081243283788 1.34921294008767 -1.33299468684081 4.84673752679805 -0.768040053513122 0.273856283665631 -3.8389108599968 0.084038006044146 -1.29633463136743 -2.65750499474578 -2.34532720960285 -0.290349130588171 -1.8218853293465 1.70518353140665 0.216248690235376 0.725137362791348 2.28601214744589 0.408233121150427 1.61078578475032 -0.037769743024118 0.500291165139525 1.15607125623798 0.293748898540791 1.41511979312185 2.69229431652609 0.685445721147715 -2.38621569914934 -0.617472987791427 -1.97917994012214 3.52215085716866 1.52698997649876 1.60307762145761 2.02451592161784 -1.09141910089789 -1.87867634083487 -2.78842755691911 -1.85182246774923 -0.114256680097492 0.344996871589282 0.763408984893097 0.413159095150598 -1.56640162515288 -0.671331657640258