0 0 0 0 0 0 0.00667020948308515 0.00892403734912703 -0.00223120216991917 -0.00682139027081418 0.00899859930225869 -0.0018347382674053 -0.00667020948308515 -0.00892403734912703 0.00223120216991917 0.00682139027081418 -0.00899859930225869 0.0018347382674053 0.063933532378018 0.00120096166578618 -0.0361059830285491 -0.0609579962276983 0.00119761923340441 -0.0368618869671942 -0.063933532378018 -0.00120096166578618 0.0361059830285491 0.0609579962276983 -0.00119761923340441 0.0368618869671942 0.00931355927669416 0.000739191776736299 0.0319271712207942 -0.00874457444124462 0.000686741299360924 0.032322349572392 -0.00931355927669416 -0.000739191776736299 -0.0319271712207942 0.00874457444124462 -0.000686741299360924 -0.032322349572392 -0.0449462024579488 0.000400063445078846 -0.00628043044533481 0.0479132539722225 0.00035738315466555 -0.00581480390353675 0.0449462024579488 -0.000400063445078846 0.00628043044533481 -0.0479132539722225 -0.00035738315466555 0.00581480390353675 -0.0141760270616113 -0.010967549085301 0.00762331693225436 0.0172348669112919 0.00506944148240334 0.00755595406425265 0.0168340321356635 -0.00463338261167473 -0.00822418343042226 -0.0144413647706868 0.0112835375004693 -0.00688335382496842 0.0141760270616113 0.010967549085301 -0.00762331693225436 -0.0172348669112919 -0.00506944148240334 -0.00755595406425265 -0.0168340321356635 0.00463338261167473 0.00822418343042226 0.0144413647706868 -0.0112835375004693 0.00688335382496842