-4.46776675945331 0 0 0 -3.01114691703763 0.619413101713116 0 0.619413101713116 0.375644074587309