10.374665 0.000000 0.000000 0.000000 6.211741 0.000000 0.000000 0.000000 4.935899