4.898783 -0.373491 2.564370 2.914783 4.574500 4.931030 2.187663 1.561640 2.339780 7.446593 1.663360 4.874600 8.143233 4.641740 2.432800 1.201103 4.791860 2.227470 4.103353 1.627020 4.649480 9.253823 1.526580 2.803870 6.319083 4.694790 0.248541 1.356983 4.710270 3.742160 3.857133 1.552590 1.257590 8.947713 1.699910 1.286280 6.537613 4.689310 3.675120 4.838823 4.574520 0.644272 0.466435 1.276130 3.033840 5.544983 1.354920 4.297750 10.027083 4.887120 1.904490 1.951533 5.852960 1.451620 3.257493 0.503945 3.914850 8.656083 2.806740 3.542200 7.049283 3.439840 0.964794 8.357403 0.457669 3.508960 6.912623 5.948890 0.956607 1.810663 3.442550 1.526760 3.533543 2.884120 3.893640