0.155027670290251 0.344445370246291 -0.201917625733288 -0.340476103237854 -0.16306750571931 -0.213072608142151 0.606868478284822 0.407972925645016 0.27235244620402 0.443660847515661 -0.0759578043163228 1.1075064850615 0.768827582004303 -0.092988525742144 0.198018292694685 -3.06674495937367 -3.20166249957376 -0.0917597961765708 -2.02692941490765 -0.117342259406227 0.236385559784589 1.13437424209704 0.864816069364172 -1.30982160313803 0.709998972313971 -1.11875351291595 0.861962403440695 0.763633184972858 0.0447942503396701 0.39954433961894 0.209983686401034 0.242144056558002 -0.913603240849134 0.357896603701426 -0.739764618224497 0.612425400674597 0.0373627376040924 -0.247164904215778 -0.655946955607364 -1.35819611277894 0.417490116186814 -0.232004402262646 -2.69852898135882 0.82116853044163 0.0330561420352809 1.99917874150296 0.355624006792009 -0.298292035478159 0.194492797862473 -0.298328545124175 0.251965665556724 1.41868848246484 1.49980880214989 -0.675794576200463 -0.150838059854802 -0.634792701063179 0.0584254609230539 0.292003891727327 0.255933904124428 -0.132651371045256 -0.187086996145217 1.27209993971818 -0.552041017265646 0.440569354672713 -1.00889804493469 -0.286436427820041 0.67195849226693 -0.24385898148003 0.597823599149585 -0.0668941561377114 0.991485000666437 0.26125531358638 -0.308831238998227 0.424796673373351 0.672620808098886