-7.13942090736378 3.15675173601458 -3.31359663359014 3.15675173601458 -2.18987243070697 1.79676749754289 -3.31359663359014 1.79676749754289 -2.1422233478992