9.977355 0.000000 0.000000 0.000000 6.773958 0.000000 0.000000 0.000000 4.967484
10.143060 0.000000 0.000000 0.000000 6.157282 0.000000 0.000000 0.000000 4.871560
9.836314 0.000000 0.000000 0.000000 5.814927 0.000000 0.000000 0.000000 4.711422
9.864642 0.000000 0.000000 0.000000 5.852308 0.000000 0.000000 0.000000 4.764649
9.769965 0.000000 0.000000 0.000000 5.826423 0.000000 0.000000 0.000000 4.762163
9.913953 0.000000 0.000000 0.000000 5.820122 0.000000 0.000000 0.000000 4.767849
10.374643 0.000000 0.000000 0.000000 6.110655 0.000000 0.000000 0.000000 4.770013
9.980454 0.000000 0.000000 0.000000 6.201343 0.000000 0.000000 0.000000 4.943460
9.983379 0.000000 0.000000 0.000000 6.373138 0.000000 0.000000 0.000000 4.902377
10.220408 0.000000 0.000000 0.000000 6.063673 0.000000 0.000000 0.000000 4.906327
9.538333 0.000000 0.000000 0.000000 8.344232 0.000000 0.000000 0.000000 5.113030
10.235955 0.000000 0.000000 0.000000 6.305019 0.000000 0.000000 0.000000 5.051188
10.096941 0.000000 0.000000 0.000000 6.765980 0.000000 0.000000 0.000000 5.003437
9.770786 0.000000 0.000000 0.000000 7.199552 0.000000 0.000000 0.000000 5.131181
9.950847 0.000000 0.000000 0.000000 5.854813 0.000000 0.000000 0.000000 4.727286
9.763349 0.000000 0.000000 0.000000 5.853226 0.000000 0.000000 0.000000 4.638311
9.850384 0.000000 0.000000 0.000000 5.843867 0.000000 0.000000 0.000000 4.800065
9.942757 0.000000 0.000000 0.000000 6.064460 0.000000 0.000000 0.000000 4.669341
10.309885 0.000000 0.000000 0.000000 6.215677 0.000000 0.000000 0.000000 4.901509
9.882373 0.000000 0.000000 0.000000 6.171210 0.000000 0.000000 0.000000 4.919706
10.180822 0.000000 0.000000 0.000000 6.123139 0.000000 0.000000 0.000000 4.979069
10.190675 0.000000 0.000000 0.000000 6.325478 0.000000 0.000000 0.000000 4.913612
10.733265 0.000000 0.000000 0.000000 6.080635 0.000000 0.000000 0.000000 4.935559
9.989718 0.000000 0.000000 0.000000 6.211176 0.000000 0.000000 0.000000 4.982766
10.089593 0.000000 0.000000 0.000000 6.426645 0.000000 0.000000 0.000000 4.969110
10.190793 0.000000 0.000000 0.000000 6.511962 0.000000 0.000000 0.000000 4.962006
9.944138 0.000000 0.000000 0.000000 6.330528 0.000000 0.000000 0.000000 5.113514
10.396063 0.000000 0.000000 0.000000 6.363833 0.000000 0.000000 0.000000 4.893787
10.188223 0.000000 0.000000 0.000000 6.296953 0.000000 0.000000 0.000000 5.116849
10.277686 0.000000 0.000000 0.000000 6.317595 0.000000 0.000000 0.000000 4.894754
10.096582 0.000000 0.000000 0.000000 5.849469 0.000000 0.000000 0.000000 4.681676
9.784016 0.000000 0.000000 0.000000 5.927004 0.000000 0.000000 0.000000 4.845846
9.730141 0.000000 0.000000 0.000000 5.958362 0.000000 0.000000 0.000000 4.810233
9.883001 0.000000 0.000000 0.000000 5.997345 0.000000 0.000000 0.000000 4.626824
9.961218 0.000000 0.000000 0.000000 6.081703 0.000000 0.000000 0.000000 4.866160
10.258221 0.000000 0.000000 0.000000 6.279375 0.000000 0.000000 0.000000 5.093181
9.973796 0.000000 0.000000 0.000000 6.335305 0.000000 0.000000 0.000000 4.809073
10.328258 0.000000 0.000000 0.000000 6.174237 0.000000 0.000000 0.000000 5.080460
8.800126 0.000000 0.000000 0.000000 8.958725 0.000000 0.000000 0.000000 5.516031
9.949245 0.000000 0.000000 0.000000 6.337918 0.000000 0.000000 0.000000 4.981015
10.002024 0.000000 0.000000 0.000000 6.659301 0.000000 0.000000 0.000000 5.216899
9.688293 0.000000 0.000000 0.000000 7.376075 0.000000 0.000000 0.000000 5.077985
9.413306 0.000000 0.000000 0.000000 8.439560 0.000000 0.000000 0.000000 5.250646
10.053487 0.000000 0.000000 0.000000 6.174357 0.000000 0.000000 0.000000 4.983164
10.155526 0.000000 0.000000 0.000000 6.604084 0.000000 0.000000 0.000000 4.954378
9.933651 0.000000 0.000000 0.000000 7.218702 0.000000 0.000000 0.000000 5.039207
9.917330 0.000000 0.000000 0.000000 5.874107 0.000000 0.000000 0.000000 4.759319
9.777700 0.000000 0.000000 0.000000 5.835263 0.000000 0.000000 0.000000 4.780403
9.892016 0.000000 0.000000 0.000000 5.885477 0.000000 0.000000 0.000000 4.880033
9.870846 0.000000 0.000000 0.000000 5.962329 0.000000 0.000000 0.000000 4.685520
9.764013 0.000000 0.000000 0.000000 6.578883 0.000000 0.000000 0.000000 5.105422
9.920540 0.000000 0.000000 0.000000 6.220400 0.000000 0.000000 0.000000 4.877972
9.934108 0.000000 0.000000 0.000000 6.388711 0.000000 0.000000 0.000000 4.879779
10.178163 0.000000 0.000000 0.000000 6.580136 0.000000 0.000000 0.000000 4.939767
9.956803 0.000000 0.000000 0.000000 6.304818 0.000000 0.000000 0.000000 4.951121
10.102138 0.000000 0.000000 0.000000 6.532994 0.000000 0.000000 0.000000 5.153453
9.952396 0.000000 0.000000 0.000000 6.692335 0.000000 0.000000 0.000000 5.026506
9.851213 0.000000 0.000000 0.000000 7.089762 0.000000 0.000000 0.000000 5.086656
9.374306 0.000000 0.000000 0.000000 7.845882 0.000000 0.000000 0.000000 5.225108
8.865216 0.000000 0.000000 0.000000 8.756146 0.000000 0.000000 0.000000 5.374682
10.167212 0.000000 0.000000 0.000000 6.291596 0.000000 0.000000 0.000000 5.011456
10.057736 0.000000 0.000000 0.000000 6.448739 0.000000 0.000000 0.000000 5.246317
9.831083 0.000000 0.000000 0.000000 5.899688 0.000000 0.000000 0.000000 4.793022
9.703505 0.000000 0.000000 0.000000 6.097542 0.000000 0.000000 0.000000 4.738881
9.770519 0.000000 0.000000 0.000000 5.905914 0.000000 0.000000 0.000000 4.845641
9.982114 0.000000 0.000000 0.000000 6.055418 0.000000 0.000000 0.000000 4.842506
10.088519 0.000000 0.000000 0.000000 6.260780 0.000000 0.000000 0.000000 4.924816
9.985505 0.000000 0.000000 0.000000 6.408869 0.000000 0.000000 0.000000 5.126199
10.017224 0.000000 0.000000 0.000000 6.696737 0.000000 0.000000 0.000000 5.125666
9.839207 0.000000 0.000000 0.000000 6.901440 0.000000 0.000000 0.000000 4.860255
10.110421 0.000000 0.000000 0.000000 6.191246 0.000000 0.000000 0.000000 4.959890
10.064620 0.000000 0.000000 0.000000 6.340904 0.000000 0.000000 0.000000 5.144070
10.043649 0.000000 0.000000 0.000000 6.860748 0.000000 0.000000 0.000000 5.113269
9.847139 0.000000 0.000000 0.000000 7.670840 0.000000 0.000000 0.000000 5.089015
9.146729 0.000000 0.000000 0.000000 9.044937 0.000000 0.000000 0.000000 5.119206
10.204424 0.000000 0.000000 0.000000 6.296951 0.000000 0.000000 0.000000 4.992396
9.975215 0.000000 0.000000 0.000000 6.449995 0.000000 0.000000 0.000000 5.125944
10.176095 0.000000 0.000000 0.000000 7.013126 0.000000 0.000000 0.000000 5.323887
9.813055 0.000000 0.000000 0.000000 5.931869 0.000000 0.000000 0.000000 4.802246
9.718984 0.000000 0.000000 0.000000 5.866067 0.000000 0.000000 0.000000 5.121618
9.844791 0.000000 0.000000 0.000000 6.002132 0.000000 0.000000 0.000000 4.854314
9.824647 0.000000 0.000000 0.000000 5.928310 0.000000 0.000000 0.000000 4.732016
10.112084 0.000000 0.000000 0.000000 6.170892 0.000000 0.000000 0.000000 4.925436
10.147609 0.000000 0.000000 0.000000 6.368282 0.000000 0.000000 0.000000 5.116681
10.014066 0.000000 0.000000 0.000000 6.920659 0.000000 0.000000 0.000000 5.205599
9.515271 0.000000 0.000000 0.000000 7.441106 0.000000 0.000000 0.000000 5.137292
10.169510 0.000000 0.000000 0.000000 6.329953 0.000000 0.000000 0.000000 4.994798
9.931955 0.000000 0.000000 0.000000 6.917069 0.000000 0.000000 0.000000 5.183688
9.689805 0.000000 0.000000 0.000000 7.979342 0.000000 0.000000 0.000000 5.325773
9.412149 0.000000 0.000000 0.000000 8.992045 0.000000 0.000000 0.000000 5.400438
9.157419 0.000000 0.000000 0.000000 8.931888 0.000000 0.000000 0.000000 5.241644
10.019176 0.000000 0.000000 0.000000 6.273560 0.000000 0.000000 0.000000 4.980081
10.087572 0.000000 0.000000 0.000000 6.720719 0.000000 0.000000 0.000000 5.190727
9.909313 0.000000 0.000000 0.000000 7.404154 0.000000 0.000000 0.000000 5.334846
9.663676 0.000000 0.000000 0.000000 5.892110 0.000000 0.000000 0.000000 4.769161
10.015393 0.000000 0.000000 0.000000 5.966141 0.000000 0.000000 0.000000 4.746894
9.691496 0.000000 0.000000 0.000000 5.870080 0.000000 0.000000 0.000000 4.818520
9.910674 0.000000 0.000000 0.000000 5.911769 0.000000 0.000000 0.000000 4.843017
10.027363 0.000000 0.000000 0.000000 6.164239 0.000000 0.000000 0.000000 4.893573
10.135307 0.000000 0.000000 0.000000 6.291476 0.000000 0.000000 0.000000 5.080146
10.103398 0.000000 0.000000 0.000000 6.527224 0.000000 0.000000 0.000000 5.014519
10.004691 0.000000 0.000000 0.000000 6.873454 0.000000 0.000000 0.000000 4.974665
10.206638 0.000000 0.000000 0.000000 6.292074 0.000000 0.000000 0.000000 4.995630
9.908246 0.000000 0.000000 0.000000 6.397344 0.000000 0.000000 0.000000 5.093715
9.967915 0.000000 0.000000 0.000000 6.931702 0.000000 0.000000 0.000000 5.072038
9.884239 0.000000 0.000000 0.000000 7.556022 0.000000 0.000000 0.000000 5.032370
10.406300 0.000000 0.000000 0.000000 6.218700 0.000000 0.000000 0.000000 4.946900
10.406300 0.000000 0.000000 0.000000 6.218700 0.000000 0.000000 0.000000 4.946900
10.406300 0.000000 0.000000 0.000000 6.218700 0.000000 0.000000 0.000000 4.946900
10.406300 0.000000 0.000000 0.000000 6.218700 0.000000 0.000000 0.000000 4.946900
10.406300 0.000000 0.000000 0.000000 6.218700 0.000000 0.000000 0.000000 4.946900
10.406300 0.000000 0.000000 0.000000 6.218700 0.000000 0.000000 0.000000 4.946900
10.406300 0.000000 0.000000 0.000000 6.218700 0.000000 0.000000 0.000000 4.946900
10.406300 0.000000 0.000000 0.000000 6.218700 0.000000 0.000000 0.000000 4.946900
10.406300 0.000000 0.000000 0.000000 6.218700 0.000000 0.000000 0.000000 4.946900
10.406300 0.000000 0.000000 0.000000 6.218700 0.000000 0.000000 0.000000 4.946900
10.406300 0.000000 0.000000 0.000000 6.218700 0.000000 0.000000 0.000000 4.946900
10.406300 0.000000 0.000000 0.000000 6.218700 0.000000 0.000000 0.000000 4.946900
10.406300 0.000000 0.000000 0.000000 6.218700 0.000000 0.000000 0.000000 4.946900
10.406300 0.000000 0.000000 0.000000 6.218700 0.000000 0.000000 0.000000 4.946900
10.406300 0.000000 0.000000 0.000000 6.218700 0.000000 0.000000 0.000000 4.946900
10.406300 0.000000 0.000000 0.000000 6.218700 0.000000 0.000000 0.000000 4.946900
10.406300 0.000000 0.000000 0.000000 6.218700 0.000000 0.000000 0.000000 4.946900
10.406300 0.000000 0.000000 0.000000 6.218700 0.000000 0.000000 0.000000 4.946900
10.406300 0.000000 0.000000 0.000000 6.218700 0.000000 0.000000 0.000000 4.946900
10.406300 0.000000 0.000000 0.000000 6.218700 0.000000 0.000000 0.000000 4.946900
10.406300 0.000000 0.000000 0.000000 6.218700 0.000000 0.000000 0.000000 4.946900
10.406300 0.000000 0.000000 0.000000 6.218700 0.000000 0.000000 0.000000 4.946900
10.406300 0.000000 0.000000 0.000000 6.218700 0.000000 0.000000 0.000000 4.946900
10.406300 0.000000 0.000000 0.000000 6.218700 0.000000 0.000000 0.000000 4.946900
10.406300 0.000000 0.000000 0.000000 6.218700 0.000000 0.000000 0.000000 4.946900
10.406300 0.000000 0.000000 0.000000 6.218700 0.000000 0.000000 0.000000 4.946900