5.40278 6.6431 2.36141 2.98561 4.82922 4.97481 2.41673 1.88608 2.67335 7.46809 1.50225 4.78896 8.12857 4.94765 2.73593 1.37286 4.79446 2.19492 4.12886 1.1824 4.72884 8.95849 1.42435 2.63085 6.20259 4.53704 0.242206 1.56828 4.77792 3.65488 3.86315 1.33683 1.24351 8.81312 1.34934 1.1487 6.37581 4.74653 3.65642 4.72979 4.83337 0.777548 0.448778 1.57443 3.01447 5.63062 0.788068 4.46731 9.76885 4.81159 1.87628 2.04643 5.96903 1.36161 3.34774 0.0845679 3.92707 8.14138 2.64884 3.29528 6.57492 3.06689 0.584638 8.35408 0.150479 3.33944 7.12891 5.57497 0.966199 2.01928 3.46498 1.58437 3.67253 2.57509 4.05971
5.2724 6.36311 2.39233 2.94622 4.67751 4.93442 2.3104 1.53242 2.42136 7.45928 1.55183 0.126653 8.13435 4.62325 2.56363 1.22465 4.62585 2.15087 4.08528 1.61575 4.67409 9.16761 1.53249 2.70892 6.23367 4.63341 0.257204 1.37894 4.61937 3.7955 3.88901 1.70068 1.31581 9.08671 1.49775 1.13989 6.4125 4.72669 3.61437 4.77515 4.72569 0.739249 0.448491 1.53706 3.2026 5.56129 1.44954 4.3805 9.88435 4.50011 1.81448 1.93876 5.84686 1.43907 3.37292 0.431943 3.87827 8.43598 2.7294 3.29918 7.01585 3.36993 0.787283 8.42549 0.325994 3.35372 6.98702 5.75005 1.11159 2.02143 3.48269 1.55488 3.46067 2.85249 4.05216
5.1331 6.03014 2.4865 2.95647 4.48614 4.64066 2.43516 1.5892 2.20786 7.51827 1.71085 0.391574 7.94806 4.61242 2.6978 1.17569 4.59777 1.93714 4.2854 1.68277 4.4135 9.22244 1.64217 2.9671 6.14277 4.53981 0.510197 1.40992 4.57801 3.4419 4.03741 1.6054 1.25015 9.14897 1.70765 1.44079 6.23692 4.56635 3.71946 4.65737 4.58905 0.951334 0.9165 1.58137 3.36514 5.73072 1.55373 3.99214 9.59613 4.69574 1.622 1.87555 5.80838 1.22041 3.48997 0.469347 3.79014 8.47347 2.85068 3.60886 6.84657 3.32212 1.18696 8.50951 0.470452 3.65406 6.87521 5.72285 1.20737 1.86797 3.38866 1.259 3.60399 2.90898 3.71878
5.07848 0.180869 2.46059 2.81966 4.6637 4.70409 2.47459 1.7192 2.31672 7.62104 1.60385 0.295736 7.95381 4.44718 2.63539 1.16056 4.68169 2.02688 4.27916 1.76598 4.47907 9.29399 1.59262 2.86548 6.12566 4.49275 0.482292 1.32662 4.5389 3.55018 4.05931 1.69427 1.17223 9.21837 1.52553 1.33956 6.29544 4.53946 3.67797 4.65709 4.4399 0.815663 0.832854 1.61438 3.3382 5.8004 1.5902 4.15609 9.54595 4.59492 1.62369 1.88342 5.89764 1.34363 3.38911 0.617387 3.79928 8.41648 2.74933 3.49898 6.85441 3.25286 1.13854 8.56188 0.379279 3.63054 6.87642 5.66398 1.18204 1.90136 3.47565 1.30988 3.63299 3.00774 3.78911
5.15889 5.97727 2.45436 2.8605 4.58484 4.62745 2.44716 1.71474 2.24097 7.5948 1.62263 0.343024 7.88986 4.44789 2.63584 1.11361 4.57234 1.85216 4.32193 1.7405 4.45215 9.22051 1.70346 3.11427 6.15974 4.47418 0.546941 1.41166 4.52582 3.33832 4.07662 1.65963 1.15964 8.9772 1.6459 1.62079 6.32187 4.53279 3.73406 4.69638 4.64998 0.783733 0.987716 1.60868 3.41841 5.84024 1.58019 4.18627 9.41569 4.66225 1.47517 1.87552 5.7577 1.2232 3.4614 0.608081 3.77133 8.58498 2.99247 3.70473 6.88006 3.26208 1.22257 8.54847 0.459582 3.75234 6.91868 5.64444 1.25599 1.80336 3.33096 1.14434 3.68799 3.02779 3.73253
5.05221 5.90256 2.39732 3.04161 4.59874 4.4554 2.33708 1.75 2.23143 7.40583 1.64691 0.376684 7.99227 4.50251 2.78842 1.1572 4.62421 1.85596 4.29631 1.71611 4.46299 9.24195 1.60975 3.03712 6.12344 4.44592 0.526127 1.49553 4.68058 3.35254 4.09575 1.60648 1.25034 8.99115 1.65589 1.53746 6.29344 4.55661 3.80871 4.61248 4.50983 0.915901 0.828654 1.8602 3.38345 5.78325 1.52853 4.06322 9.62197 4.40768 1.58434 1.84764 5.94394 1.18135 3.47921 0.577878 3.72483 8.37444 2.79576 3.68653 6.87252 3.30211 1.2964 8.69151 0.318804 3.74514 6.93053 5.61226 1.27593 2.02312 3.4439 1.25373 3.7497 2.98673 3.69049
5.27382 0.198965 2.39152 2.94964 4.63163 4.76045 2.12175 1.65592 2.41746 7.64899 1.5464 0.134723 8.14956 4.57865 2.49832 1.03908 4.73188 2.14406 4.14083 1.57417 4.57296 9.34213 1.65244 2.73618 6.29643 4.5522 0.370789 1.27556 4.76687 3.70195 3.83689 1.6033 1.31542 9.1787 1.58879 1.25191 6.37785 4.61866 3.6124 4.8271 4.6435 0.820283 0.373441 1.79943 3.11122 5.68106 1.39524 4.30578 9.89665 4.60181 1.80619 1.72206 5.93771 1.42052 3.4134 0.326238 3.85515 8.49007 2.78988 3.38164 6.94696 3.26124 1.09152 8.6027 0.402488 3.46938 7.06991 5.68162 1.1368 1.91383 3.5644 1.55613 3.38528 2.73945 3.89158
5.31144 0.0967446 2.435 2.92815 4.70053 4.8967 2.44971 1.72482 2.41456 7.51748 1.48676 0.0354 7.9456 4.54605 2.64121 1.14997 4.75366 2.01807 4.21198 1.61219 4.6364 9.25057 1.56266 2.83441 6.21945 4.49832 0.27947 1.49843 4.76608 3.59593 4.02462 1.53062 1.27603 9.02362 1.61039 1.37443 6.31513 4.54396 3.59437 4.65455 4.52247 0.615318 0.757248 1.62985 3.2285 5.65462 1.63164 4.21555 9.62535 4.77924 1.74735 1.8363 6.00399 1.36061 3.58513 0.381082 3.95983 8.43453 2.73726 3.58853 6.98024 3.30075 0.904455 8.38542 0.371912 3.56387 6.95782 5.7234 0.881257 1.87741 3.48977 1.31868 3.40002 2.78668 3.9167
5.27125 6.37086 2.42451 2.94446 4.53918 4.99828 2.41902 1.56331 2.45711 7.44152 1.67387 0.0213048 8.01004 4.8612 2.54963 1.29835 4.6948 2.14951 4.12611 1.41215 4.60405 9.10026 1.62367 2.72717 6.25467 4.54019 0.252016 1.61752 4.6804 3.76124 4.0136 1.35028 1.24274 8.9403 1.69066 1.23347 6.36832 4.61599 3.62278 4.7953 4.7431 0.730816 0.635658 1.40058 3.04543 5.60273 1.47082 4.23057 9.78498 4.91345 1.89217 2.0623 5.82679 1.38165 3.45112 0.248543 3.86458 8.55363 2.88586 3.40418 6.81308 3.27043 0.983067 8.22089 0.489208 3.29705 7.07238 5.81092 0.808673 1.95683 3.43094 1.54091 3.37181 2.68246 4.05523
5.21704 6.21909 2.45706 2.8407 4.54324 4.9062 2.31591 1.50829 2.31697 7.54533 1.59475 4.99967 8.05269 4.70711 2.66206 1.0836 4.55197 2.19564 4.15778 1.70782 4.5639 9.33117 1.68004 2.6579 6.29606 4.54828 0.360017 1.36942 4.65736 3.66939 4.02947 1.59125 1.18411 9.10469 1.62893 1.15459 6.56514 4.59023 3.756 4.81891 4.72872 0.701737 0.569134 1.56933 3.15835 5.67223 1.5714 4.22268 9.78754 4.62882 1.85019 1.7472 5.7758 1.34284 3.3966 0.52616 3.78824 8.57846 2.82775 3.43805 7.02712 3.37225 1.07676 8.54675 0.464232 3.37996 7.02481 5.7833 0.994789 1.65333 3.34102 1.42755 3.48691 3.00898 3.98231
4.82274 7.12322 2.67463 3.16667 4.39635 0.0348941 2.48806 1.58569 2.69919 7.2119 1.9412 -0.0250766 8.19902 5.85364 2.31894 1.54729 4.70473 2.28103 4.10201 1.14944 5.00634 8.79367 0.850499 2.57388 6.35909 5.22797 -0.0305674 2.01085 4.7728 3.72145 3.64252 0.700331 1.35477 8.35803 1.13001 1.10838 6.81463 5.46499 3.64571 4.85059 5.37226 0.0756152 0.805799 0.799454 2.59057 5.62511 0.818711 4.76793 9.51653 4.50935 2.2148 2.23195 5.75435 1.36125 3.39149 0.313679 3.88213 8.06165 1.76428 3.44703 6.66759 3.74236 0.337951 8.25364 -0.570803 2.87946 6.9182 6.24422 0.997653 2.05335 3.2807 1.59979 3.79878 2.69238 4.8148
5.14074 5.7885 2.73448 2.98797 4.47306 -0.075857 2.13768 1.54337 2.15239 7.41466 1.46208 0.00415435 8.16731 4.90854 2.61555 1.27412 4.68072 2.27415 4.12362 1.66927 4.58781 9.17179 1.67824 2.74633 6.27485 4.56634 0.358342 1.48844 4.72517 3.77464 3.80869 1.61952 1.08138 9.01563 1.54369 1.17075 6.68961 4.77325 3.96704 4.75489 4.94108 0.548574 0.42993 1.48528 3.10278 5.56345 1.1662 4.30552 9.99382 4.98059 1.98495 2.26728 5.80205 1.57583 3.12316 0.830891 3.85887 8.54844 2.99469 3.29492 6.74552 3.14476 0.825595 8.50493 0.574813 3.59635 7.01615 5.6488 1.17468 1.86151 3.40123 1.57499 3.90498 3.0549 3.98384
5.62935 0.210814 2.44789 2.96478 4.57999 0.174228 2.28574 1.48342 2.39509 7.41976 1.79428 4.88236 8.22981 4.8804 2.68471 1.23298 4.77729 2.26613 4.0931 1.38424 4.71661 9.04082 1.38958 2.56107 6.28545 4.6764 0.264752 1.43217 4.72011 3.79513 3.68566 1.21343 1.21559 8.72452 1.36435 1.06715 6.7555 4.73252 3.76817 4.80228 5.04683 0.438498 0.386739 1.0973 2.78924 5.66286 1.08543 4.5499 9.86504 4.92117 1.69808 2.0841 5.84711 1.51158 3.25731 0.362754 3.85737 8.5331 2.72102 3.20679 6.63407 3.25019 0.894195 8.16389 0.415593 3.35327 7.0908 5.71462 1.21296 2.02763 3.51281 1.57452 3.60763 2.81877 4.24606
4.69876 6.16378 2.34028 3.04109 4.44836 0.230617 2.58832 1.66608 2.43665 7.3178 1.66712 4.75489 8.09548 5.56119 2.59742 1.46432 4.77881 2.49006 4.03615 1.27026 4.77976 9.02205 1.24251 2.55839 6.31454 4.83707 0.100191 1.67788 4.94998 3.98515 3.65833 0.905734 1.09659 8.63863 1.25944 1.03021 6.48597 5.11506 3.68848 4.826 5.05566 0.358154 0.744822 1.31221 2.73882 5.53253 0.834937 4.63179 9.72173 4.77023 2.16212 2.30075 5.74994 1.63159 3.30942 0.441723 3.77822 8.31083 2.61948 3.19917 6.81789 3.39059 0.458429 8.37773 0.0400989 3.36483 6.98824 5.82544 1.02318 2.19285 3.41462 1.90709 3.6093 2.726 4.46135
5.18468 0.175758 2.49977 2.87008 4.46679 4.71686 2.41435 1.69635 2.54919 7.50348 1.68878 0.155991 7.9985 4.55306 2.4323 1.25665 4.66308 2.13874 4.20851 1.70889 4.54771 9.23503 1.63498 2.75312 6.22432 4.48796 0.407769 1.31526 4.58816 3.69335 4.11291 1.74472 1.34352 9.10654 1.71248 1.27567 6.36594 4.47911 3.64639 4.7253 4.6703 0.894404 0.686175 1.56693 3.24875 5.68245 1.56118 4.00969 9.75088 4.67038 1.65729 1.95884 5.87011 1.54554 3.37169 0.524852 3.87141 8.38927 2.85482 3.38993 6.81766 3.24972 1.11302 8.42932 0.480145 3.44374 7.08636 5.69055 0.968444 1.90218 3.40208 1.4013 3.59095 2.94165 3.77045
5.36414 0.391023 2.45657 3.0377 4.65098 4.47481 2.41321 1.75155 2.23389 7.45178 1.57926 0.416348 7.9075 4.34628 2.74464 1.13722 4.6246 1.83379 4.2847 1.76339 4.39375 9.27061 1.56284 2.987 6.12278 4.47517 0.570228 1.43739 4.60279 3.33379 4.1275 1.74529 1.29325 9.01683 1.74527 1.48546 6.26782 4.52467 3.66357 4.60434 4.70821 1.02645 0.900119 1.67407 3.50364 5.78992 1.57529 4.10023 9.41966 4.58915 1.54548 1.78628 5.93203 1.12052 3.55487 0.588851 3.71311 8.51978 2.78125 3.68934 6.64613 3.22077 1.28107 8.38874 0.331772 3.52657 6.95793 5.58663 1.20588 1.99779 3.50318 1.21804 3.74454 2.9916 3.70538
5.06476 6.00318 2.4663 2.80122 4.41033 4.71416 2.49358 1.57333 2.45071 7.65947 1.75329 0.257793 7.86969 4.53522 2.39357 1.15375 4.56396 2.08216 4.35759 1.7375 4.49759 9.2781 1.74731 3.03068 6.02573 4.57662 0.278764 1.20664 4.56969 3.59809 4.27121 1.71205 1.23537 9.30045 1.71552 1.43545 6.24672 4.63738 3.55143 4.64291 4.41068 0.835109 0.881239 1.68352 3.47984 5.78155 1.65008 4.02784 9.58401 4.55557 1.57164 1.92731 5.75865 1.41052 3.45704 0.470932 3.84919 8.51399 2.98974 3.60107 6.90797 3.39938 1.02028 8.40169 0.576969 3.52611 6.8037 5.78142 1.01922 1.99279 3.3604 1.49349 3.62409 2.97724 3.71069
5.1659 0.0566046 2.38388 2.96428 4.7018 4.55835 2.43475 1.61703 2.36526 7.55859 1.54233 5.0538 7.93168 4.44349 2.52936 1.15162 4.67848 1.99012 4.25878 1.73656 4.40426 9.24543 1.43074 3.08542 6.14991 4.60817 0.465389 1.46824 4.81023 3.45625 4.07344 1.63259 1.23276 9.01068 1.39528 1.49666 6.24287 4.78382 3.63205 4.69583 4.74974 0.858247 0.803983 1.80314 3.30719 5.72276 1.76563 4.01928 9.63418 4.47037 1.72072 1.6927 6.00574 1.3105 3.45919 0.633078 3.72436 8.32098 2.60812 3.59425 6.9009 3.35878 1.04164 8.66969 0.144562 3.71446 6.87396 5.8027 1.19406 2.01959 3.53823 1.32165 3.60043 2.96411 3.69094
5.24507 6.29393 2.3942 2.80937 4.7058 -0.00346111 2.26686 1.64178 2.3778 7.5763 1.41825 4.82405 8.10295 4.39472 2.572 1.03129 4.7508 2.23519 4.19097 1.72716 4.61311 9.39828 1.58213 2.73552 6.34215 4.64515 0.417572 1.25052 4.769 3.72176 3.94042 1.65317 1.24061 9.15296 1.56725 1.2239 6.68286 4.57536 3.74003 4.74443 4.7701 0.703725 0.556546 1.73403 3.11037 5.65242 1.5429 4.28903 9.90201 4.60749 1.74152 1.6628 5.9252 1.32817 3.33454 0.481636 3.92469 8.63237 2.67238 3.57573 7.00883 3.38471 1.14478 8.60795 0.302782 3.43326 6.99304 5.93984 0.96564 1.91204 3.5613 1.55518 3.46179 2.87648 3.93077
5.09224 0.138379 2.38653 2.92026 4.68618 4.89522 2.35119 1.60022 2.31117 7.48039 1.5357 0.0540091 7.9659 4.54075 2.58771 1.37018 4.62861 2.27001 4.22718 1.55368 4.49559 9.13303 1.60197 2.74745 6.3005 4.64911 0.394705 1.33853 4.72799 3.82181 3.97962 1.61873 1.09549 9.01856 1.64451 1.26135 6.52829 4.62982 3.75932 4.72106 4.82978 0.754149 0.708515 1.76354 3.22748 5.69156 1.52246 4.22729 9.74127 4.60099 1.68292 2.09873 5.91133 1.53633 3.48735 0.376167 3.7863 8.28024 2.75714 3.41839 6.80371 3.3806 1.05694 8.46423 0.359508 3.50322 7.04 5.79577 1.05655 2.22825 3.42314 1.54607 3.56851 2.78595 3.81554
5.31462 0.25031 2.45738 2.98521 4.58799 4.90623 2.29555 1.59657 2.50604 7.41503 1.58691 0.0624998 8.03931 4.58708 2.55232 1.27286 4.75338 2.22418 4.17589 1.60332 4.57368 9.12767 1.47773 2.72192 6.25188 4.61002 0.207226 1.39143 4.91763 3.73077 4.06424 1.57786 1.12052 8.96741 1.32818 1.2248 6.4018 4.57947 3.67826 4.82538 4.46139 0.621871 0.51493 1.68519 3.22794 5.73993 1.68971 4.17188 9.99402 4.57599 1.80166 1.93442 5.9735 1.42357 3.49705 0.423454 3.86467 8.25349 2.69829 3.4138 7.19526 3.60164 1.00647 8.45702 0.196897 3.47615 6.91487 5.95429 0.946759 2.11935 3.59421 1.48558 3.45138 2.73481 3.97443
5.21303 0.0396333 2.44114 2.93014 4.7548 4.82571 2.25176 1.62643 2.35535 7.47568 1.44 0.120839 8.19237 4.54618 2.64958 1.16867 4.64634 2.17077 4.07235 1.58925 4.58818 9.21471 1.50558 2.76301 6.38902 4.72872 0.285228 1.44857 4.71512 3.65535 3.85708 1.57679 1.20087 8.99779 1.63273 1.25696 6.60243 4.65412 3.59384 4.93452 4.80704 0.554826 0.51786 1.41307 3.07848 5.61285 1.42934 4.25575 9.84911 4.6846 1.88279 1.84506 5.87998 1.32923 3.31796 0.351561 3.92066 8.50473 2.73993 3.50617 7.17377 3.58704 1.1075 8.36104 0.34158 3.43994 7.09054 5.96585 1.05998 1.88138 3.45763 1.44947 3.44084 2.84231 4.01307
5.49919 0.21781 2.56215 2.69879 4.76796 4.71443 2.09231 1.70906 2.52013 7.73803 1.56671 0.0710205 8.32148 4.58838 2.47396 0.955511 4.54623 2.01486 3.88698 1.6987 4.83006 9.49106 1.52674 2.76241 6.53075 4.54893 0.317486 1.05056 4.64256 3.59524 3.74374 1.61889 1.41012 9.27476 1.4066 1.25255 6.77733 4.55725 3.76137 5.06886 4.6547 0.628371 0.283844 1.62489 3.04349 5.44094 1.53096 4.44297 10.1112 4.41836 1.76041 1.66138 5.78156 1.27173 3.09915 0.469479 4.09659 8.59014 2.56522 3.45374 7.16576 3.20998 0.886149 8.77253 0.291477 3.51348 7.19106 5.80855 1.11528 1.59687 3.3022 1.45886 3.16948 2.93114 4.0738
5.17425 -0.186534 2.54958 2.93755 4.78049 4.7319 2.3842 1.51189 2.47837 7.5282 1.67555 0.0877843 8.03533 4.46232 2.6594 1.25674 4.56042 2.05222 4.16037 1.73518 4.59941 9.18688 1.50932 2.8347 6.25404 4.62754 0.408095 1.33855 4.57136 3.66886 3.89766 1.58053 1.1039 9.02592 1.47116 1.29831 6.52992 4.61941 3.83754 4.74244 4.66861 0.5867 0.679299 1.63457 3.16988 5.72425 1.60628 4.27584 9.74588 4.67058 1.6799 1.89981 5.892 1.28905 3.39969 0.518042 3.82218 8.54056 2.71824 3.52523 7.06889 3.34005 1.04896 8.38826 0.306345 3.46665 6.93255 5.82256 1.06384 2.00943 3.41782 1.46088 3.40436 2.94584 3.92209
5.18539 6.33611 2.41255 2.9652 4.57335 4.96589 2.30508 1.58845 2.49965 7.52728 1.66025 0.0507205 8.11622 4.54021 2.45535 1.18915 4.79809 2.17293 4.10385 1.47215 4.77155 9.14694 1.55293 2.65289 6.33119 4.64014 0.231253 1.36217 4.78493 3.73798 3.95194 1.41823 1.30134 9.02901 1.38007 1.11897 6.62238 4.75245 3.73182 4.84837 4.73564 0.594151 0.538571 1.74955 3.03416 5.59176 1.50439 4.3659 9.8232 4.66942 1.78875 1.86297 5.89135 1.41887 3.56044 0.242755 3.97074 8.3986 2.79495 3.35157 7.0092 3.38728 0.909246 8.39751 0.441677 3.47164 6.96681 5.80123 1.09454 2.13672 3.51264 1.61706 3.2844 2.59214 3.98798
5.30988 -0.0337224 2.42907 2.94073 4.50667 0.154293 2.22538 1.56022 2.27527 7.54011 1.5291 4.87468 8.09895 4.45469 2.4305 1.12928 4.89245 2.40066 4.13804 1.54807 4.62316 9.16953 1.46723 2.74569 6.37734 4.7437 0.183684 1.45226 4.75194 3.92516 3.77044 1.52224 1.14873 8.92611 1.44855 1.20415 6.56359 4.78852 3.66167 4.79612 4.70091 0.607819 0.484917 1.43139 2.98346 5.63604 1.48926 4.36906 9.80611 4.94739 2.09154 2.04099 5.943 1.66306 3.49802 0.258866 3.95639 8.56464 2.83195 3.4346 7.09273 3.47845 0.841377 8.40537 0.360513 3.48808 7.10045 5.87621 0.980861 1.89996 3.52463 1.70199 3.46695 2.88154 3.99873
5.02101 -0.0985105 2.5384 2.90732 4.72062 -0.000143307 2.49265 1.70076 2.50027 7.44757 1.42041 5.0919 8.11584 4.7898 2.54041 1.34939 4.62273 2.27689 4.01555 1.59916 4.76432 9.06058 1.58988 2.76515 6.33345 4.51621 0.00522235 1.40362 4.66135 3.81005 4.00274 1.57106 1.1521 8.85162 1.52431 1.27299 6.50413 4.71356 3.58518 4.79613 4.54447 0.277357 0.611794 1.38737 3.05033 5.60645 1.54896 4.20431 9.7803 4.80469 1.77216 2.06177 5.8869 1.528 3.48985 0.362262 3.9292 8.44221 2.81375 3.31343 7.14932 3.50286 0.732538 8.36597 0.351051 3.47736 6.82041 5.79864 0.894262 1.87821 3.38133 1.52523 3.20897 2.75547 4.14654
5.50346 6.47773 2.60846 2.76478 4.53025 4.83885 2.26718 1.39427 2.3906 7.49824 1.67656 4.85757 8.22444 4.82795 2.78272 1.06621 4.66635 2.11499 4.14044 1.52979 4.64082 9.22287 1.49968 2.61203 6.26713 4.66963 0.46895 1.17066 4.81145 3.77146 3.89368 1.44513 1.25392 9.05116 1.56712 1.0989 6.50057 4.6713 3.74732 4.74994 4.91241 0.781761 0.333155 1.38262 2.81296 5.61647 1.4691 4.39584 9.93333 4.71861 1.77827 1.84722 5.77451 1.44355 3.5391 0.455033 3.71651 8.57191 2.86331 3.29333 6.87541 3.26898 0.911256 8.42925 0.466011 3.50819 7.14821 5.76866 1.09173 1.87013 3.3988 1.49721 3.59401 2.94176 3.97142
5.14724 6.44851 2.49996 2.85488 4.70296 -0.0278312 2.27541 1.53094 2.30306 7.64246 1.53777 0.0231836 8.09909 4.47176 2.45716 1.15156 4.68991 2.23866 4.09558 1.65104 4.68366 9.12883 1.48963 2.68746 6.33945 4.76209 0.152695 1.4109 4.69464 3.81845 3.84534 1.53117 1.21632 9.05666 1.49809 1.11888 6.3055 4.83016 3.75751 4.76563 4.6847 0.730253 0.480937 1.47788 3.00035 5.73305 1.65709 4.50182 9.90251 4.90111 1.97948 2.03893 5.77695 1.47503 3.54194 0.326201 4.00107 8.61807 2.81694 3.30768 7.14983 3.43522 0.755559 8.44009 0.408299 3.47943 6.94475 5.87184 0.914324 1.74618 3.4692 1.55977 3.21285 2.73438 4.11288
5.23298 0.0631385 2.42212 2.896 4.63642 -0.0445853 2.24349 1.50998 2.41271 7.56936 1.53629 -0.105641 8.202 4.82578 2.61394 1.20734 4.68366 2.2863 4.11681 1.55696 4.6565 9.2869 1.62893 2.61441 6.18734 4.58298 0.352209 1.36232 4.58855 3.85807 3.86203 1.63826 1.36041 9.18991 1.57183 1.02171 6.41925 4.71235 3.75351 4.67466 4.81758 0.865568 0.432282 1.57788 3.10612 5.56689 1.21552 4.36281 9.99809 4.80661 1.90521 2.01652 5.85661 1.5889 3.0842 0.449167 4.01157 8.5715 2.89326 3.26759 6.79799 3.27978 0.824257 8.40379 0.403208 3.21249 6.9341 5.59698 1.15777 1.96676 3.40503 1.64132 3.49177 2.76051 3.97823
5.24776 0.105697 2.52245 2.78285 4.63512 4.57593 2.35948 1.66796 2.26372 7.49035 1.54983 0.339664 8.19398 4.53632 2.68418 1.06158 4.52456 1.99331 4.19852 1.77023 4.37043 9.33311 1.62778 2.89802 6.19318 4.47851 0.625302 1.15336 4.56688 3.57703 4.00065 1.58766 1.25352 9.11686 1.56548 1.3545 6.57114 4.45568 3.81083 4.66867 4.69168 0.869177 0.70753 1.56546 3.30264 5.67822 1.75975 4.13701 9.80909 4.49173 1.44174 1.81118 5.78471 1.47571 3.39942 0.609821 3.65453 8.67557 2.83104 3.5735 6.86786 3.33476 1.41604 8.57395 0.454522 3.66383 6.83746 5.74428 1.36701 2.03185 3.3496 1.44263 3.41433 2.96043 3.69756
5.34136 0.141271 2.36555 2.86754 4.63424 0.0220477 2.44767 1.741 2.42063 7.46667 1.45199 0.169951 8.01255 4.41456 2.56977 1.22624 4.80351 2.15696 4.27428 1.6491 4.53111 9.15647 1.61433 2.90313 6.22257 4.39895 0.325785 1.30572 4.70117 3.65102 3.954 1.63233 1.19214 9.0968 1.65469 1.36217 6.28519 4.46859 3.67128 4.71938 4.82616 0.749606 0.829141 1.55107 3.42036 5.78661 1.55638 4.2076 9.55247 4.62448 1.58726 1.86718 6.02492 1.40551 3.53605 0.476554 3.74076 8.44522 2.82013 3.5839 6.76492 3.15074 1.15846 8.20159 0.455089 3.51103 7.10535 5.58001 1.01055 2.13393 3.61434 1.46827 3.52725 2.89462 3.92426
5.19012 5.97342 2.39674 2.8131 4.68988 4.69869 2.48686 1.68484 2.28504 7.45349 1.66618 0.324213 8.01068 4.54362 2.71448 1.15722 4.60986 1.87893 4.27619 1.62064 4.45461 9.24864 1.57644 2.99487 6.19735 4.50587 0.525227 1.33002 4.57584 3.38341 4.10811 1.66999 1.2299 9.03466 1.5261 1.46466 6.5308 4.40216 3.84943 4.61483 4.56037 0.68505 0.997638 1.56134 3.48025 5.78755 1.71196 4.13267 9.43562 4.53917 1.43968 1.87935 5.91001 1.27757 3.58061 0.356075 3.77889 8.71096 2.86964 3.79674 6.80242 3.28983 1.3386 8.36638 0.487032 3.70208 6.87951 5.67575 1.25319 1.95853 3.35811 1.22224 3.41646 2.79489 3.70481
5.29479 6.05521 2.50772 2.92223 4.67846 4.66425 2.46149 1.74558 2.38216 7.45169 1.52748 0.309394 7.89129 4.46381 2.59358 1.16983 4.69526 2.11467 4.33778 1.6326 4.49732 9.24381 1.58472 2.84922 6.09359 4.44433 0.483405 1.38949 4.79556 3.64006 4.15855 1.68783 1.32818 9.07251 1.47683 1.32834 6.2176 4.47842 3.58431 4.64524 4.42663 1.0289 0.781362 1.67728 3.24672 5.80584 1.65612 3.98554 9.57183 4.59122 1.67369 1.96182 5.95532 1.3836 3.59904 0.424228 3.85337 8.60019 2.87463 3.48908 6.77695 3.24221 1.16559 8.36333 0.393981 3.40216 6.85422 5.6243 1.158 2.18653 3.67141 1.54333 3.49776 2.72567 3.83145
5.21039 6.14886 2.49944 2.83421 4.67478 4.72757 2.44205 1.56261 2.31191 7.52091 1.51576 0.261899 7.98956 4.53367 2.573 1.09051 4.62072 1.98899 4.18298 1.64431 4.6744 9.22116 1.54039 2.92923 6.25781 4.58782 0.341886 1.48054 4.77956 3.45483 4.02945 1.51961 1.26536 8.95072 1.53515 1.50277 6.36694 4.61372 3.73227 4.78271 4.62071 0.846166 0.768653 1.48029 3.26853 5.69829 1.25211 4.31927 9.57084 4.85143 1.57764 1.88089 5.87077 1.19183 3.35106 0.441751 3.89539 8.65668 2.84668 3.61565 6.83777 3.3246 0.954533 8.5754 0.282017 3.70415 7.12331 5.78487 1.045 1.79299 3.44799 1.26937 3.72541 2.89449 3.91359
5.20303 -0.0272175 2.6044 2.89532 4.60367 -0.0961707 2.26007 1.62554 2.51169 7.64508 1.45592 4.90907 8.15621 4.67996 2.56787 1.23706 4.65412 2.1813 4.05239 1.52061 4.82028 9.20812 1.54841 2.6667 6.29312 4.5555 0.139753 1.54107 4.6851 3.68816 3.98661 1.50695 1.32186 9.06019 1.37415 1.12095 6.58509 4.80596 3.59834 4.71266 4.69809 0.446929 0.420543 1.57135 3.03455 5.58995 1.59258 4.42321 9.95072 4.71186 1.95702 1.89703 5.87587 1.58237 3.30787 0.306753 4.17912 8.3672 2.78488 3.29721 6.83217 3.24772 0.774852 8.5124 0.397845 3.4503 6.98618 5.69825 1.00229 1.84405 3.38947 1.5196 3.34551 2.81455 4.19194
5.3103 0.152916 2.30449 2.7867 4.57489 4.82706 2.34548 1.39973 2.37161 7.53439 1.40362 4.93229 8.10292 4.6297 2.615 1.22316 4.69538 2.2294 4.2374 1.71759 4.51686 9.15733 1.55192 2.71071 6.21558 4.54263 0.54621 1.10196 4.69987 3.77971 3.89277 1.70312 1.26912 9.05509 1.60978 1.12846 6.45887 4.59949 3.7382 4.77292 4.57424 0.986143 0.631126 1.25289 3.05267 5.69823 1.78992 4.2459 9.78367 4.92903 1.62489 2.24042 5.77063 1.64523 3.48232 0.452842 3.7535 8.47715 2.68734 3.58303 7.0538 3.45059 1.15152 8.1976 0.393597 3.27894 6.93513 5.81719 1.07516 1.96852 3.38397 1.45381 3.60203 2.84389 3.7188
5.08831 5.85139 2.46341 2.87725 4.52484 4.94996 2.22431 1.67692 2.32537 7.5227 1.61852 -0.0195506 8.16577 4.56531 2.62167 1.16245 4.73398 2.21872 4.07561 1.58016 4.59428 9.34126 1.47426 2.83152 6.34297 4.66213 0.27979 1.417 4.59631 3.719 3.83103 1.83281 1.10508 8.96533 1.39147 1.35445 6.77466 4.69917 3.83381 4.83222 4.52106 0.423904 0.512448 1.67325 3.20394 5.59199 1.73739 4.24615 9.96939 4.51798 2.03367 1.67126 6.02393 1.5778 3.44088 0.151855 4.0069 8.55752 2.67301 3.52117 7.21447 3.4759 0.942086 8.67751 0.134159 3.53545 6.88817 5.96271 0.909423 1.911 3.5803 1.36424 3.17725 2.60016 3.84145
5.37961 0.0245187 2.13452 4.00165 5.58084 -0.0272602 2.13273 1.155 2.20468 6.32491 0.574548 5.16916 8.43314 5.07677 2.71702 2.77645 4.314 2.75452 3.22856 -0.34747 4.88582 7.7023 1.82789 2.22391 7.12851 6.35381 -0.0584249 3.78187 4.39766 3.94857 3.03583 0.122751 0.877301 6.6872 1.8045 1.02314 7.59175 6.23141 3.95738 5.80571 5.59851 0.148352 9.06293 1.35123 1.80566 4.68352 -0.106814 4.42319 1.35147 4.55248 3.45976 2.92178 5.20705 1.56648 3.17604 7.05089 4.67052 7.7245 3.2949 2.73171 8.28551 5.96555 0.836536 7.0273 0.904277 3.38033 6.66386 -1.09267 0.472995 2.78262 2.82473 2.3262 2.25362 0.230746 3.93123
4.90112 6.04958 2.30237 2.8848 4.68701 4.79307 2.37019 1.64359 2.50871 7.47269 1.43551 0.230678 8.11382 4.52098 2.44138 1.32888 4.68644 2.12087 4.20565 1.50315 4.62443 9.10182 1.69983 2.9721 6.31706 4.68301 0.150195 1.38113 4.70807 3.70318 3.84659 1.61343 1.1338 8.90755 1.56515 1.47568 6.48393 4.81697 3.61235 4.71187 4.54242 0.422172 0.701234 1.66112 3.25888 5.67317 1.47635 4.25331 9.74986 4.94639 1.67951 2.35323 5.78774 1.58098 3.45939 0.255621 3.95117 8.58947 3.02348 3.49062 6.95493 3.35247 0.819522 8.25949 0.574584 3.70985 6.99654 5.85724 1.06195 1.91881 3.38012 1.55699 3.50713 2.67869 3.80973
5.03466 5.65696 2.35173 2.97988 5.06274 -0.105886 2.32632 1.87384 2.44931 7.52062 1.19702 -0.182833 8.15075 4.48647 2.4984 1.36685 4.80531 2.33214 3.99942 1.54303 4.75366 9.04436 1.47063 2.67267 6.32671 4.71617 0.139327 1.54908 4.66437 3.90482 3.73701 1.66773 1.06751 8.78939 1.53459 1.19783 6.67108 4.88742 3.85196 4.86341 4.50025 0.432608 0.629609 1.15191 2.83295 5.59173 1.29716 4.53389 9.81846 5.18268 1.8293 2.36563 5.86991 1.66843 3.25094 0.271011 4.16043 8.7124 2.86567 3.47747 7.01469 3.57985 0.83789 8.37575 0.452956 3.53762 6.76012 5.96407 1.00209 1.7246 3.39092 1.55622 3.39288 2.6592 3.83775
5.71648 -0.13649 2.94951 3.09783 5.47431 4.90076 2.39376 1.92372 2.7304 7.46109 0.72602 5.0513 7.99002 4.23985 2.36472 1.29009 4.96827 2.28971 4.06844 1.20246 -0.0431524 8.9164 1.30557 2.5503 6.37827 4.93812 5.0141 1.49158 5.16955 3.8367 3.80122 1.16955 1.49153 8.8432 1.35593 0.977263 6.65122 4.95902 3.39922 4.75668 4.70445 -0.0323727 0.65401 1.05719 2.83621 5.6246 1.20205 4.86637 9.47554 5.21428 2.06141 2.03104 5.91725 1.43594 3.52975 -0.156059 4.35146 8.3023 2.55977 3.23514 7.2618 3.79725 0.596359 7.98063 0.137936 3.20802 6.87923 6.33224 0.39307 1.81028 3.55298 1.78704 3.4528 2.3235 4.27092
5.28463 -0.221405 3.09638 3.43211 4.57407 5.01159 2.09974 0.540239 3.01569 7.26938 0.176481 -0.0608808 8.1534 4.3472 1.83873 1.72287 5.66949 2.39445 4.02987 1.22826 0.370381 8.50748 1.35581 2.40353 6.38023 5.48436 4.46624 2.04881 5.10754 3.77841 3.3368 0.967201 1.70399 8.47927 0.450046 1.23075 7.01981 4.48078 3.43993 4.84142 5.5313 4.40641 9.78234 1.20535 3.2988 5.60846 0.924642 0.844533 9.643 5.6267 2.16875 2.31194 7.09927 2.42304 3.5241 0.399413 4.45641 8.42001 2.66354 1.52758 6.89559 4.97808 0.556517 7.42018 1.39071 3.543 6.86729 7.00786 4.40312 2.55535 4.73875 1.4483 3.87338 2.71868 -0.0716531
4.83427 5.94976 2.32448 3.0262 4.56039 4.72251 2.18166 1.74287 2.21725 7.49128 1.55631 0.0967619 8.1441 4.72343 2.5386 1.36064 4.83825 2.12261 4.26728 1.42034 4.6682 9.17794 1.61079 2.92265 6.22993 4.50149 0.303093 1.35254 4.71797 3.72886 4.11184 1.54672 1.25038 8.87581 1.45501 1.47705 6.3825 4.60538 3.7435 4.69996 4.32318 0.671086 0.5865 1.74251 3.19862 5.71788 1.32938 4.20561 9.8556 4.70483 1.69448 2.05605 6.08575 1.53716 3.4746 0.210162 4.08498 8.48892 2.78166 3.59446 7.11747 3.34972 0.94709 8.351 0.400367 3.59558 6.804 5.83621 1.16627 2.19691 3.64204 1.49871 3.43001 2.67498 3.95359
5.22548 -0.0496479 2.51067 2.95659 4.28474 0.104363 2.17612 1.31226 2.27865 7.44494 1.26803 4.87887 8.05366 4.60571 2.5557 1.28072 4.82497 2.38033 4.06464 1.58117 4.47417 9.23817 1.5321 2.77466 6.21467 4.94709 0.27456 1.70705 4.89248 3.78585 3.62525 1.4582 1.04991 9.03375 1.51101 1.24661 6.53868 5.15337 3.73594 4.71858 5.03726 0.441299 0.603833 1.61025 3.21549 5.65779 1.24216 4.40424 9.93217 4.96208 2.3223 2.084 5.86398 1.45848 3.40947 0.568613 3.5598 8.62639 2.83979 3.41317 7.09854 3.62622 0.796472 8.46903 0.374448 3.40663 6.92265 6.06189 1.10138 1.87085 3.52103 1.6108 3.84376 2.98715 3.90545
5.28506 6.62371 2.67807 2.97431 4.53053 0.016619 2.43285 0.729283 2.18445 7.39326 0.881786 0.130804 8.05111 4.40221 2.37722 1.23604 5.16913 2.14931 4.14041 1.49606 4.76646 9.01415 1.57295 2.75565 6.33036 5.20225 0.178897 1.83631 5.22645 3.62353 4.12568 1.15526 1.30576 8.52014 1.57692 1.302 6.70315 5.31366 3.80466 4.7666 5.52724 0.402173 0.593587 1.58929 2.59716 5.64349 1.35816 4.36024 9.67183 5.2109 1.94427 1.87344 6.38035 1.39979 3.37967 0.384541 3.91368 8.48278 2.91271 3.46016 6.91775 3.96841 0.94308 8.29607 0.443299 3.58702 7.10538 6.41166 1.0424 1.87083 3.82653 1.48174 3.64461 2.89577 4.38552
5.33045 0.352001 2.46449 2.91748 4.6651 4.81224 2.25821 1.80997 2.29789 7.60076 1.41445 0.179565 8.01811 4.50744 2.71586 1.17827 4.75709 2.11062 4.26786 1.70465 4.4839 9.21425 1.64905 2.73588 6.1172 4.34543 0.374015 1.26811 4.66251 3.64988 4.05756 1.69801 1.33002 9.14116 1.67751 1.22884 6.17971 4.35312 3.64572 4.6613 4.59751 0.880001 0.741838 1.80398 3.3923 5.73862 1.53535 4.06671 9.63774 4.72592 1.67509 1.93091 5.89038 1.40606 3.41866 0.570402 3.81852 8.35294 2.74361 3.49392 6.98053 3.13751 1.11486 8.3539 0.430453 3.37852 6.87627 5.63027 1.17371 2.05544 3.63828 1.40544 3.55645 3.01055 3.78163
5.23133 0.186276 2.58103 2.95964 4.57763 4.61517 2.27692 1.89266 2.15139 7.55438 1.59864 0.260047 7.96868 4.53361 2.62491 1.08675 4.63331 1.98697 4.28308 1.75119 4.62823 9.22998 1.58015 2.91048 6.21693 4.53837 0.453018 1.21029 4.42387 3.51883 4.11098 1.68114 1.41364 9.06923 1.754 1.43444 6.46865 4.50733 3.68948 4.68027 4.5724 0.86034 0.883023 1.40514 3.23978 5.67362 1.86497 4.09926 9.44452 4.70834 1.47553 2.09738 5.7749 1.42743 3.54514 0.449116 3.94953 8.60464 2.76148 3.71085 6.94626 3.27847 1.16294 8.43347 0.373252 3.65983 6.97951 5.78833 1.19755 1.66419 3.39992 1.19974 3.33207 2.81724 3.93883
5.10162 0.303628 2.52165 2.812 4.55432 4.61442 2.49132 1.41106 2.33005 7.59137 1.71966 0.218003 7.95539 4.56803 2.60303 1.10747 4.48663 2.08443 4.19432 1.65894 4.54803 9.27166 1.69906 2.93491 6.17508 4.71185 0.516974 1.08576 4.664 3.5702 3.96353 1.85158 1.17569 9.14744 1.66107 1.39892 6.51725 4.65033 3.82168 4.62678 4.82821 0.792434 0.894474 1.6795 3.22821 5.74251 1.59655 4.15615 9.55907 4.68203 1.49704 1.81131 5.75557 1.2144 3.52114 0.399375 3.75058 8.50511 2.83545 3.53741 6.87167 3.43898 1.28681 8.50484 0.49465 3.5547 7.01099 5.87308 1.24244 1.81616 3.1849 1.41764 3.56504 2.88055 3.81398