-28926.4620386909
-28926.8436720315
-28925.886450733
-28926.3270674389
-28925.9164779354
-28926.0964352963
-28926.9753421361
-28926.7663503796
-28926.8114788039
-28926.990527305
-28926.5613422316
-28926.2070417598
-28926.1441821347
-28926.4990128201
-28926.0924680146
-28925.3529764517
-28925.6476740913
-28925.8122439666
-28926.4526981161
-28926.3709984269
-28926.073073927
-28926.8227653999
-28925.9412986505
-28926.4575575225
-28926.5213875051
-28926.4643036293
-28925.8487866595
-28925.8200822017
-28925.5630588399
-28926.1528485478
-28925.6534797731
-28926.1140845908
-28925.8500338927
-28925.3788404506
-28925.8589894266
-28926.3449159207
-28925.2075674624
-28926.2334501222
-28926.4533941829
-28926.4389429047
-28925.0898395113
-28926.0507561138
-28925.7901283339
-28926.0543383546
-28925.672472629
-28926.1342664476
-28925.1379153352
-28925.1001222798
-28925.0390564283
-28925.2229216139
-28924.9377014224
-28925.7684784238
-28925.274293415
-28925.5479902717
-28925.9936991773
-28924.8340367154
-28925.433996945
-28926.1621986467
-28923.5648154278
-28924.5137670549
-28925.3662745121
-28923.8859114976
-28924.4977282653
-28924.6626152892
-28924.1547169745
-28924.6941573487
-28924.8538094492
-28924.8583714354
-28924.1166486762
-28924.7867644433
-28925.1103178359
-28924.2976124495
-28924.4104023533
-28926.0196331095
-28923.1526329707
-28924.1362506586
-28923.7473773249
-28923.2130130958
-28923.8209163242
-28923.3478764547
-28923.4780567368
-28923.3389617378
-28925.7861039084
-28924.0041191852
-28924.168070138
-28925.0020130462
-28925.1476183655
-28924.2839507092
-28924.4728521752
-28925.3125199474
-28925.5242695763
-28926.0927503326
-28924.6378275
-28925.4364693701
-28924.01948599
-28924.1977042722
-28924.7134099371
-28925.4508635045
-28925.5892493752
-28924.9259433895
-28924.7299509125
-28924.9662050603
-28925.3253676597
-28924.231238476
-28925.3166417897
-28925.5006744614
-28926.4794758728
-28926.3929151446
-28926.3410169396
-28926.3005664218
-28926.2604067937
-28926.4513232616
-28925.4760612331
-28925.8438228975
-28925.7942451421
-28925.9168420236
-28925.250465915
-28925.0102182266
-28925.7318853899
-28925.7579698009
-28924.6788719058
-28924.5228966056
-28924.557664845
-28924.7554893274
-28924.9986642789
-28922.9114074418
-28923.7406109457
-28924.7331316496
-28925.4067536018
-28924.5534110276
-28924.8661147028
-28925.2829588757