-0.175553804656848 -0.285942262047907 -0.10111937817606 -0.0388848298887111 0.442103788246126 -0.00771510526766126 -0.286671940747864 -0.792221009134087 -0.64044938220404 -1.2045987464379 0.370317853762611 0.352604761910543 -0.84608867783933 0.0464397555122309 -0.607386812414179 -1.91070918434096 0.278031753041004 -3.75025772616399 0.306448598930396 0.620625929968163 -0.739369954093266 1.00803235494782 0.863295262630469 1.67167950343222 0.0316461497905428 -0.113404616950326 -0.288480453776582 0.666967212280224 0.00739063221644693 3.14693325464457 -0.339554363231037 -0.310353331282846 1.54256185474504 -0.54638073658222 -0.103803865598983 -2.16725603914217 0.0196686719055827 0.277369694319231 0.565983074060534 0.697860029233954 -0.144994202500562 -0.854961807372181 1.62370505723639 -0.0121821375907974 0.161205256662301 0.0950554345049903 0.625060309298032 0.123017452480279 1.77689336127594 -0.202610023456679 0.484210208730491 -0.49671501960122 -1.47212317762155 0.783926377513464 -0.223399181540702 0.377032543307392 0.308074820839216 0.507395633722056 -1.06645987275234 -0.490300634750432 0.0506100826839397 0.532959585018521 0.290870550039726 -0.515215639944468 0.336447700887279 0.28156881783146 0.125597038948452 -0.64282070942381 0.82318530271875 -0.0703507454408219 1.01359184843942 -0.435496313647744 -0.255756240987828 -0.64375144828704 -0.453028142820647
-0.110329064938736 -0.0442867148380084 0.356369112102959 -0.565912625870333 -0.427664223246721 -1.02485970221872 -1.13430610789849 0.358326491927757 0.653695698843154 0.425982208428144 -0.0358820400589709 -0.49325765896756 -0.319844810806323 -0.0605365926374128 -0.41396359291387 -0.622276577344388 0.873012227784624 4.01103352925868 -0.475014920138074 -0.168921647480878 -0.166026586817904 0.578341075016648 -0.711632393307921 -1.77507199273806 1.39561592884371 -0.685234633687298 0.947076415601586 0.0705577191383081 0.40655830541698 -3.0339382142161 0.144051122348538 -1.03204258940713 0.628273929478006 -0.311482559207516 -0.063747384605372 0.928045634060553 -0.336129398480461 0.101543609978361 -0.0477762142445701 -0.286659856569253 0.00598192552262495 -0.149391043743681 2.62874773497381 -0.0629426297319165 -0.400640400329975 1.73378601084833 -0.242834911620294 -0.440398119290693 -0.249386079088552 0.488216756715493 -0.190371835845941 -0.251066294135847 0.490154081946 0.712297280241709 -0.130228621788844 -0.0942308821474274 0.552145918220396 -1.5738799319418 1.50487875785266 0.951315905412579 -0.403493809143269 0.286781212575729 0.560773764638463 -0.713501070119511 -0.563448738984607 0.51848428170365 0.361968457672964 0.367140486118469 -0.850776824920029 0.855086248700856 -1.78496096460478 -0.663951566941323 -0.710624778499911 1.09577274763023 -1.16908771637331
0.351871997888387 -0.530329347844256 -0.481756863362276 -0.577707041304846 0.623480881442556 -0.452483069232236 -1.31094491752849 0.668681880092069 0.916874967930514 0.0853806354208824 -0.544316913141572 -0.501640479381024 0.714617699645203 -0.555208871833009 -0.278763231512244 2.3965605273709 0.368068653879867 1.42993962408223 -1.54886413955594 0.0334862873717956 1.28390206845819 3.22100052778373 0.791357890249042 -0.267643216088297 -1.12679797632831 -0.745548054685682 0.585271222894962 0.433679830203347 -0.128493642272525 0.381531457293246 1.35804827442359 0.898860028723355 -1.94275642601732 -0.621603462884738 -0.197056957719653 -0.0143140952299965 0.532323494425253 -0.248192316507896 -0.789326205581296 0.368923288128865 -0.350590560735256 -0.293559151225581 -1.61236598393635 0.487561897078851 -0.360627370957327 1.17354137896692 0.661086845279968 0.804389262774991 -4.65933042847473 -0.261648692166695 -0.67743416783881 0.658692892364075 -0.191004584006828 0.0405735295720516 -0.283472975848332 0.277622176519146 -0.325168791370107 -0.197004507242277 0.686176428288406 0.217322896580838 -0.00762383115262078 0.26143863314701 0.355642775835384 -1.00398518355387 -1.18119863444335 0.329213648772408 0.759629465199871 0.780478015736216 0.254345991632907 0.681437116281247 -1.04775767802545 -0.262970752728774 0.213993319708235 -0.556953364426106 0.0494363746975741
0.409576007637347 -0.293199196969083 -0.0359771708267595 0.924553820662343 -0.333650856314292 -0.299975850068018 -0.459166134224482 0.990277354135887 0.106448758053691 -0.707748486880311 -0.416812630854049 -0.523953015300582 -0.356734979893671 0.605817154745666 0.138856725317093 -0.513626699012214 -1.30247596520365 0.0489854034362191 0.982813959737591 0.470177906261295 -2.28415735458419 -2.45932523685603 -1.17178994439887 0.664055182345158 1.21275376722904 -1.21982686836922 -2.3449482291928 -0.199535756996006 0.537069748407358 -0.750550904630633 -0.284895823602231 -0.0848728428090374 2.88712829960169 -0.413199204339179 0.341468034324688 0.254102508289405 0.079821399039459 -0.0296679440409049 1.64582656028982 -0.993822389342022 1.00299710911978 0.797595126183597 2.29641559678922 0.540057111626105 0.563234566201991 -1.67752798876975 -0.109196237471501 -0.391363093589114 0.457260947766876 0.134415404012278 -0.0608027016770378 0.0471820326111658 -0.223377327175129 0.326859547934913 0.721232887549081 -0.389122378342416 0.00749656161193053 0.474432308462915 0.100273485673291 -0.0670363380690279 0.340190968044671 0.446834101396871 0.179271360795919 -0.124164678117774 0.198899409292555 -0.876450819374909 0.337405179209562 0.694513225979075 0.214967253082244 0.158421267598475 -0.134452684988844 0.48646943591038 -0.252312764304061 -0.354355168037855 -0.686081811740983
-0.129827787013215 0.26523846454471 0.458018137256437 0.284696306100058 0.17976681211897 -0.735352093260202 -0.218823905830434 0.0221482425124852 0.0374151880814677 -0.611640957505615 -0.62740026907545 0.552200168469054 0.609417725751375 0.864507280034133 0.128094864378362 -0.0675857825305533 -0.574773671224573 0.333861429554343 -0.304810549953148 1.09372177969874 -1.655347093264 2.55225385592549 -0.930583311568862 -0.635315663175834 1.29662028078098 0.111397357749985 -3.13382346351274 -0.171106312707636 -0.0325005269293584 0.792013778326417 -0.215914704107383 0.421088116090692 2.07395872406999 0.23532446605847 0.287210329471511 -0.979004358152929 0.157988294049945 -0.305334797616719 1.82729827003367 -1.85939102021246 -0.357197778223454 0.978783243395366 -1.45664977257545 0.51593452001673 -0.168602316633328 -1.00078390466269 0.0879180558190078 -0.732192980439068 -0.0952194708018799 -0.339821757821578 0.32999886327194 0.88664600946984 1.16650170215055 -0.480299562843827 0.421062919292737 -0.391259221075096 -0.488781370677828 0.0784116639049041 -0.90784474407572 0.926641041129663 -0.653731437158621 0.186436764491872 0.118605698846534 -0.629083826555126 -0.0276511717637851 0.398091409973605 0.231128942088807 0.661424173840343 -0.249186047366013 0.113809565488886 0.00288220515381354 0.197632627419866 0.547209402702714 -1.37180881142913 0.105290990898685
0.575736291750521 0.255422254859835 0.77221192334593 -1.22376708192695 0.140204754007677 1.00950045409396 0.187410183645515 -0.161472394142659 -0.125964706510446 0.947014194937248 -0.592116781522998 0.337086362582379 0.618238147696668 0.208589377877472 -0.8411115389127 2.28737637407801 1.02505870550052 0.0731226503260372 -0.316806282661117 0.284538440447566 0.711768661705024 0.604193761048861 0.795170577155902 0.308589555426007 0.242849052680371 0.568912844598241 2.04644202093202 -0.306931966074836 -0.00097521892492549 0.395989791336025 0.173744777407764 0.909967188638141 -2.37461154525041 -0.0340403598166188 -0.559651992909106 -0.359025574515912 0.0701604839052446 -0.28892448306299 -1.01778762951927 1.16232674699555 -0.283854784470403 -0.606637336230114 -0.938890541588462 -0.371540412683787 -0.212950737915308 -0.423433218071774 0.15489551565608 0.372179845709437 -1.62238736754743 0.3043456947419 -0.0610299870789978 -0.897824646015558 -1.67180317343034 0.452604168128529 -0.106794057029746 0.416956869666831 0.320890992141815 0.502423122778724 -0.934746696765624 0.283614129338916 -0.644658790123597 -0.657635912400888 -0.493710430000197 -0.294463921960306 0.505109667083112 -0.196526282301502 -0.39612708817386 0.716390217248271 -0.423311862065298 -0.0889223281946363 0.368084594711226 -0.697729931481248 -0.0764249735192202 -1.13092408054851 0.326397263825497
-0.0431852548131255 -0.117103146935839 0.0912265496565878 -0.404773703635301 -0.0258876530171297 0.111715403046619 1.28208378524251 -0.0561176399185374 -0.42289508645831 -0.954144374538101 0.0650262506566716 -0.223102219279092 -0.561359461635821 0.149835844360639 0.416252901985195 0.253783434552038 -0.157695188441082 1.45447256354401 0.111243605860424 -1.34506986659539 0.652141210675451 -3.56870039872913 -1.50417144773864 1.26106914152781 -0.332094825485489 -1.62905989102216 0.516595807407953 -0.152729362362514 -0.142615161975295 -1.2286382914581 0.188445823463496 -0.167422438002566 -0.0897016291599538 -0.144376880950668 -0.229295489372318 -1.68914088441492 0.901673585458251 -0.0592363864409065 0.2198184080191 -1.09194386278182 0.0387148800576076 -0.214290281969845 3.4351218883632 0.00406234089475949 1.23244635038166 -1.02238270271365 0.565915196972166 0.0083044018075846 1.12923898040773 0.108425935362596 -0.0513086510517284 -0.0535352252383497 0.684957468909794 0.24543635245404 0.299592755895031 0.476172944403264 0.15931961057862 -0.397300024829677 0.595723523173105 0.546560199490102 0.169991225843043 0.951149812234223 -0.951438032749604 0.389811433633426 0.377400467979569 -0.612315100405998 0.783791651777461 0.922801871873932 -0.352752600265891 -0.0931044824347729 -0.607294509858405 -0.541126175767903 -0.125147610348196 1.10078202532976 -0.538649176262833
-0.0288673029303808 -0.129621584646279 0.0699005455100166 -1.36513988749696 0.180841789794982 -1.20071586845102 0.00169744142956976 -0.0221004200184077 -0.211462069954507 0.184258012799328 0.234533852245092 0.359949371404195 0.735742643628502 -0.177545380136013 -0.44789519512299 1.45800628590208 -0.0815134411551813 2.22971170218708 -2.05768853456611 0.76879055813792 1.44436247691972 -1.34118081796411 -0.0256966201510027 2.88506190505921 -1.11751809848562 -0.267288404035464 -2.34183205377226 -0.582474378321975 -0.255066414366269 -1.96466529894923 0.277740447203424 0.532203166859509 -1.83042935784484 -0.513539024439738 -0.328836725243819 -2.42772562400865 -0.362610461800446 0.119255930499879 2.44722203209148 2.81028757891622 0.148417367479855 0.586165452112175 -0.769445931994929 -0.274384387981949 0.164265382062898 2.02843685191183 0.049606838749044 -0.029963106531233 -0.0388807161257797 -0.388316852138411 0.244794605436741 0.463102491129467 -0.601560181442214 -0.244329493115309 -1.00175115317193 -1.29904997201234 -0.569446091118225 0.743928003421259 0.112178972706951 -0.578802330685332 -0.374121027592692 0.165171181238356 0.375893030975393 1.10387737482545 0.0938195058542872 -0.835468741721733 -0.250051223132523 0.771044386003962 0.58431554434396 -0.373844377035555 0.945942045473251 0.633062863750524 0.37003606100181 -0.27082546882592 0.658030576532119
0.295927650233335 -0.361482776536875 -0.0329095892308497 0.967450083629537 0.0320593258549655 -0.530303122605568 -0.124555742706441 -0.190145835994897 -0.10453508696004 0.387192766417405 -0.57035806093808 -0.26403878842984 0.0849247790660464 -0.0751337661791264 -0.254678692209984 0.236640870196519 1.25339800210147 3.14340775981236 -0.372478350632146 1.34515754116786 1.32817695622777 1.92511326813509 -0.265231779679946 -0.0786651745455518 0.176811844783307 1.4045787898305 0.918994070060553 -1.59507301012365 0.102630928943167 -3.41867866370602 -0.626685245655935 0.38917071505686 0.141028020814324 -0.272178125499802 -0.195046613197113 -2.08901098263599 0.148645938432731 -0.303073256445181 -0.45985904616824 -0.470285635428061 -0.178874382673039 -0.300077151480204 -0.494680249611275 0.0951017143379685 0.136792130545896 1.2097769455278 -0.168756582743256 -0.452875676482002 0.0859647897571415 -0.550994321709787 0.125887059235116 0.0323166931483614 0.17929861447534 0.753859655578396 -0.370128877777949 -0.539385025607187 -0.523381459363301 -0.718781599062331 0.914070410052031 1.13237418198183 0.149462263264431 1.10255454293283 -0.501709899130492 -0.601349865312346 -1.04234705132992 0.907692534847259 -0.0737237739343883 -1.13752846982469 0.983090867404911 0.0175724525818501 -0.998124614037719 -0.252233831477815 0.00212038768095453 -0.241537790745987 -0.308345814972322
0.304516673013736 -0.259436773260517 -0.0659199656535187 -0.125738963769585 1.01322880886073 0.551926860344299 -0.499882874168583 -0.106084432924079 -0.293970013298354 -0.0916924333085691 0.0081761038261615 -0.963126261678451 1.46836499807354 -0.251035955134228 -1.21480833470309 -1.54734358993242 1.95788967429103 -2.02143445607203 0.401578852498701 -0.36561993649495 -0.0884505310084411 -0.730032997789899 -1.00216998566039 2.40126898615607 0.423438103165255 0.326770587811522 0.261679802498864 0.0613338913155551 -0.0840822289956586 0.541675106009062 -0.993095795964264 0.175364571562004 0.304641114342411 0.609376073901695 0.11252144347099 0.0835906343253561 -1.30548106902504 -0.112408314990377 -0.0438149176518132 -1.07398394515387 -0.370024491043565 0.0084671525535582 0.104225783409635 0.230837636251227 -0.689958004863097 -0.234209122083694 0.304512302140622 -0.228426199842876 0.486098168805821 -0.0671281264044348 0.389314696759459 0.760597999260033 -0.507849947415792 0.90022656934713 0.136014629351861 0.561899393020567 0.446393157432662 -0.0767432759260374 0.233131830416033 -0.152301788127831 -0.391893511897081 -0.280569687659495 -0.249799255152975 -0.364034080884894 0.117993005279938 0.0241557588230094 0.625887175647243 0.785671384326928 0.820750469283726 1.5912983755239 -0.982124133116031 -0.32458875079678 0.461401450157332 -1.43946272815824 -0.39749157191617
0.00914463788632346 0.12542400379515 -0.156199321395151 -0.294991769166441 0.882657202087479 1.17832979901907 -0.181372722323316 -0.0331214480218169 -1.21437844647676 -1.06271634848476 0.605157924235909 -0.0297324786968913 -0.253298010526132 1.35540286774852 1.10190302572856 -0.0848784992330681 -2.15730998881477 -2.2034160153092 0.336207817086341 -0.788301878611377 1.12116212111229 1.4095181335602 -3.99474739892344 -2.77321486159879 0.48326095793407 -1.45860098175585 0.0807572801063529 0.0299055138501934 0.337926598661118 0.783374361950107 0.686518899052445 0.627983137860793 -1.7022774150058 0.43505819789555 0.288744763044924 -0.258460268784675 0.217350407370442 0.392195359252173 -0.618729228146604 -2.27669370307571 0.571448465225084 -0.223917515670059 -0.510243643221502 0.476204568955799 0.531604100132624 -0.381490319663932 0.758241327320706 0.656968454365268 0.730111416395779 1.22857452813266 0.0870212554999621 -0.369778179488047 -0.555491435924359 0.333696879037087 -0.139829116030003 0.778024156147635 0.965925163132903 -1.08317254888152 3.3012338173367 2.15277713628474 0.738137882095311 -0.457438868013659 0.403601024089668 0.481670988561083 -1.4035878871844 0.104457182574526 0.307422018084039 -0.143319129656932 -0.507129267572248 0.332392044857283 1.13029724592183 1.22614535112167 0.441765174134834 -1.86759643459951 -1.04026780127828
-0.713810116559732 0.472734352812978 -0.201888315172401 -0.697211340241708 0.234711258271508 0.532599630762023 0.788715568896166 -1.47529925971478 0.831929877159994 0.0843534802389479 0.312493516447908 0.176169583545642 0.822965730622286 -0.555109884412472 0.979869791029623 -0.0731416764795949 2.32842015817516 -1.32051687253931 0.978209373466436 0.418058072581531 2.44913647451569 1.18754205688358 1.00535866615259 -1.73908376617342 -0.69890492501853 -1.5550707793787 -0.704003934172003 0.493232205059422 -0.477119881208036 1.18723583865537 0.28142715012051 0.201240140400522 -0.668892967552486 -0.737900312286022 -0.171085486782796 1.35945363868503 0.190325041792597 0.182956778162089 -1.7963632870099 0.979646362280411 -0.402205172905007 0.419852187439989 0.860418713900686 0.601392802712943 -0.706524385298036 0.853138896173204 8.97314539412064e-05 0.143113698620545 1.04249617523619 -0.483655364955118 -0.224314493792939 -1.84129714817905 -1.15824537994723 0.3255747683494 -1.78275598767355 -2.39717862025135 -1.88461044386342 -0.103975358091186 -0.0116769160807846 -0.0152165519730728 -0.636237660292834 1.10901237940458 0.211328629769419 -1.77998228301706 -1.57743962242838 0.137708471238866 0.962904889810704 0.964424410993491 1.4059939242789 -0.288264481222683 0.484535196002072 -0.626594999981628 -0.171894612529366 1.94865916160351 -0.271956753632056
-0.116832152802733 -0.332289972114547 -0.244650109513776 -0.584066918796794 -0.116188091793786 -0.869435825136136 -0.92157725607129 -0.363547371308073 0.576857035039145 0.286173404102615 0.263781678246627 -1.28499658650812 0.271865736627198 0.220756603077643 -1.11750627141719 0.960071021371335 -0.340487673196099 -0.693513324476561 -0.756045092135704 0.661707509262243 -0.00509283850907569 -1.2701407601221 0.974978269794003 0.426769479809141 1.75487907316891 0.100975653583644 1.62969469606451 -0.179994611741297 0.0145902315667669 -0.449093842797127 1.49187900987925 0.128137030448409 -0.523648339733475 0.460665086592611 -0.136582585746578 -0.552101438158701 -1.38092311031384 0.10371721946724 1.87929237683385 -0.181233882824381 0.0805114827712017 -0.134749904360638 3.12967473359642 0.187433580672187 0.145342072578448 -2.16445842323864 0.206568491837421 -0.0403626992218173 0.720097746090197 -0.565481452093086 1.4854088321187 0.153704838397622 0.702102604367145 0.0354187275088217 0.740079321088749 0.70675038514908 -0.0750774590490028 -0.202122542549308 1.27926868584651 0.665131188461902 -0.274721202321958 1.13286860486414 -0.910604050561958 -0.864503680491568 -1.90845895601749 0.489361154140973 -0.57085428359168 -1.34043082755968 -1.29292072235474 -1.02136120395574 -0.803584765011718 0.920629805046152 0.519745150042125 -0.857096850333579 -0.0601522129135099
-0.0411635974425246 0.471472198923588 0.390287601692735 -0.774231009614699 -0.184783546013815 -0.455279913805223 -0.658488232658238 -0.762018790132466 0.520610582918818 0.38546447176585 1.08777456405085 0.500591984053883 -1.11265228826832 -1.37118763322649 -0.0901256038520714 0.413644776286686 -0.701417405728884 -0.555288833099988 2.09299361937395 0.539563460074337 1.59027327722344 -2.40332535340141 3.73158509910817 -1.08865490931817 0.905046871062001 -2.44469001100721 -1.99430856041255 0.575737577301437 -0.410196157399255 0.925193253687992 0.0461844451003008 0.0880131865867965 0.53143415030152 -0.0566372595988101 -0.682567115536467 0.649780167863009 0.684899619118572 0.128926615821055 0.440695852882853 -1.80632116440572 -0.0560443635163218 0.392632960784001 0.736857216272729 -0.604688955261729 0.258767001233248 0.750591528039581 1.14805584627633 -0.183436031543598 0.858547723097448 0.022710285372988 -0.185533793528429 -0.0261648177946329 0.431560213852942 -0.327954323095033 -1.57338473772893 -1.90652908698229 -2.03188958456219 0.34612918483615 -3.54705377818409 0.440876858451835 -0.569282054821335 0.496675681743189 -0.492841397580939 0.268388578509431 1.28317624641098 0.083993268872267 1.37120614515968 1.29950068616351 0.994579321721401 -0.564322656497346 1.26291364998217 -0.109969110682239 0.150281159197963 0.679249108622108 -0.204434477316756
0.167223177610576 -0.320392969716933 -0.292361274881993 0.906515227318328 1.0921449229451 0.866069481507333 -0.0547780958639996 0.492546492200794 -1.39792374984822 0.138776764050114 -0.581950387768587 -0.550083123220482 0.782394000821517 0.138384156800348 0.783048603347976 -1.91400430844902 -1.51457181175978 0.623541559445794 1.59458835742829 -0.471346214933813 -0.261195149803508 -2.36718748871014 0.683312735067783 1.55734620450013 -2.31001415437933 0.933844754242914 0.473172725675356 -0.234016546556468 -0.170450938850627 -1.52858148853285 -0.287758745492304 0.13758557257129 -0.755841975090966 -0.0878098124318753 -0.109701973201881 -1.97710968892691 -0.151609647514623 -0.0257490706283781 -1.54804035852893 1.1595216748967 -0.366388181722389 -1.03237606131476 1.49378779587942 0.525246536632325 0.986007011102909 -0.933450861442232 0.417161529372669 1.27778747408102 -0.728873687973793 -0.0587036541412899 0.25469437593116 1.36805525986441 0.539981521232241 -0.84477613035403 0.533732458229258 0.248882143129455 0.640273775948906 0.948204615085522 -0.51854033172359 0.186624197815434 0.436784435665639 0.16338040881228 0.57342409987289 -0.305833077151785 -0.649722060961603 -0.283560907530991 -0.455023832062743 -0.298709068195329 0.968037066177811 0.412798883783917 0.298981090769168 0.989866749173296 -0.112022649715558 -0.585225200172167 0.291956840563799
-0.0636831070595689 -0.453945254844166 -0.357890690167212 -0.902367268732559 0.405375598574202 0.237723046957661 -0.318116516154768 -0.296442899040493 -0.266148377483099 0.578225375434203 -0.274798592487105 -0.316019525500486 1.02462624617236 0.530062981694447 -0.759305506369023 0.909966417307591 2.18856378846574 0.42778660769393 1.30274490245529 -0.488532745130661 2.33293784120439 -2.95903764697315 -0.240977290546583 0.12310229884074 -2.80404288678635 0.0599550094029858 -0.722436677426882 0.0656016632467015 0.203785274104144 0.359369845051234 -0.471105302692143 0.224361030736101 -0.850536684008909 0.715114693629353 -0.463810572574035 0.199422885625575 -0.965645427253568 -0.374229785200191 1.49902513031146 1.80683821298416 -0.306191231637 -0.974091496772102 2.06373576607527 -0.431555328759461 -0.550210906981538 -0.218969173083949 0.374816767748465 -0.0234785306004274 -0.387398711674158 -0.409061273050555 -0.265200155127411 -0.0396517895652344 -0.761238203616232 1.10873572884744 -0.828481258272563 -0.691791971799952 -0.730611752812311 -0.53441045778239 -0.166602770738484 0.252797674109601 0.814562598504348 -0.697742272770042 0.433371555093675 1.01414952042681 1.14887628487096 0.151931806574188 0.951130786080665 1.30387361615959 0.369113035444076 0.176756308983734 -1.4710733967435 -0.636841869223384 -0.930542688159914 1.08832323718182 -1.04254554039136
0.420712992333385 -0.277383321158941 -0.675408910925644 -0.30216565749844 0.957758829493704 0.303061943597119 -0.425942099239563 0.563287530899732 -0.921913041970566 -0.184680959050713 -0.715744870688407 0.677923448517463 0.453576301731256 0.469207058209484 0.458740359761082 0.803704835467279 0.0441962120535175 -0.328047654091539 -2.12143206251874 -0.0132992813368563 0.330545222411266 0.379861783763463 -0.191370708907722 -3.50798151497181 3.64094990287297 -0.442663002894613 0.521494784838887 0.532167942764409 0.0819081052864126 0.770073280841968 -1.23319505523518 0.15034415119285 -0.902788415212661 -1.32354280228554 0.16807344098646 1.01590686852907 -0.234589388044666 -0.676110564615631 1.5392939843164 -1.14907245994075 0.74083728190886 -0.178450407980922 0.329398510994138 0.0256122880109089 0.495327138832238 0.788154554476396 0.0509322417435051 -0.458633144814682 -1.04794485423883 0.077415104834772 -0.304928563527243 0.417790935101173 0.329890105664441 0.186537037463325 0.950126513705037 1.49395466038832 0.931278537504269 0.0265563966036657 0.100184011329533 0.0644037869031139 -0.614961535521806 0.53394791656279 -0.696783251786659 -0.231707697111218 -0.863403506017601 0.523953529520949 -0.219306244534141 -0.182751347125702 -0.268711251789363 -0.0706639056439749 -0.280270668516419 -0.377758622464784 0.416204308160568 -2.14455218152376 0.802864856498723
-0.448095741065896 1.02445578212089 0.857887978367324 -0.127666004592764 -0.34372263352128 0.617159827588274 -0.806368239855178 0.748450571543969 -1.18101094400961 -1.42640255929177 -0.354714350963803 0.0764375719181976 0.103189372261105 0.167361759999327 0.645176867142771 1.69200226364389 0.61595500926974 -1.32517133818601 0.854535775798598 2.445691712281 0.434174510195848 0.941712840069587 0.878238249368604 -3.12670511098032 0.976079729818886 0.0113205613668519 -0.60605678143642 -0.184347487143086 -0.248397747544283 1.33635768803723 -0.364672228359628 0.170201027752544 0.865147227280149 0.71165630455496 0.128772606821311 1.94919035124203 1.11666423556717 -0.928688152408402 -0.717871171903576 -1.59661181457018 -0.72655892499433 0.103901053248237 -1.39040070588742 -0.533383816820822 0.337358385156218 1.0334091300309 -1.06398184480653 -0.0744727358980867 -1.42805732043093 -0.385469613969514 -0.328730538738152 0.580157044240679 -0.324364036496652 -0.0985960988380113 -0.745650384538601 -3.11754401804227 -0.594254138476044 0.643604638372425 0.275752471266824 -0.295460481030438 -0.213351829801119 0.639939789820913 0.747033380214101 0.0324015395088215 0.25124421438263 0.0785479323020068 0.910770143740314 -0.128087408183049 -0.0890804509573121 -0.199386633089742 0.037600564523564 0.198541254807339 -0.66517181187085 0.759927713012398 0.19049576295425
-0.270827525707386 0.140240492323144 0.473887234874504 0.182844163901842 0.205634667651992 0.35022674982601 1.07280766606567 -0.0290328818883697 -0.276069745232908 0.738022182512865 -0.00279118814895627 0.691344085860796 1.58198867289996 0.372831877134064 -0.309360628865462 1.220424392435 -0.610164887943791 -3.34081207338953 -2.83031054865427 -2.59826012366882 0.808672975537496 -1.8936316688618 -1.99296747369691 0.191740176240999 -1.65243377777802 -1.01295087275268 -1.9506749054399 0.161339982398304 0.23501233429605 0.811709961021604 -0.00346893059190475 -0.0240444301136783 0.0425769321196444 -0.277006911850718 0.162539144292808 0.270625437103381 -1.8016854678024 0.242459787862987 2.30357971493425 2.29053497267878 -0.424569387971391 -0.621300587088913 0.223581215550417 -0.493379014974036 0.251972864641854 1.52651869353293 0.0850062829941248 -0.659424370835315 -1.29077436654528 -0.239021967603251 0.88192983737917 0.538370725934414 0.411975874087453 1.45100440428265 0.873448286655352 0.514359977254736 -0.0299391952841942 -0.459039121793975 1.05778368961983 -0.50595864490808 -0.538071449681154 1.36109040211137 -0.650919937305191 0.799231889609929 0.938517731822804 -0.507652229684902 0.403877160426439 -0.241531362991406 0.676102337089768 -0.0485136062500239 0.120605758961745 0.165039540824551 -0.547226886195173 1.82065582845038 -0.518300447922653
0.798800715832681 -0.365173593216893 -0.30329488542311 1.00644238557483 -0.300816086146757 0.171674526212536 1.25977124932295 -0.0185780105083947 0.33188759467782 0.436700103525546 0.156057910794384 -0.0545032450781453 1.503299072887 0.36456835584561 -0.745719804288068 -1.84591279018809 0.524559281112598 -2.18624105507059 -2.89065250888299 1.61142007557231 1.87540564219422 -0.350642496992265 -0.446361275769943 2.63166027912924 -3.76944971578989 -0.690726250090536 -2.26790696256442 0.402286162612719 -0.379834787194226 -1.52731727776199 0.00165681802062216 -0.542774766262663 0.143917939273634 -0.363955148058648 -0.363307744617318 -1.81386400585063 -1.43016922347583 0.516811779961852 1.47558336646723 2.04943169814242 -0.338179595081399 -1.05883707004045 0.0485498587858569 -0.264223907761753 -0.186323893121442 2.57675748482639 -0.616512938367311 -0.831448309786837 1.72133904976882 -0.141699335502692 1.55625014378909 -0.860958645285432 -1.74258972063171 0.762234505576181 -0.51934380104613 -0.610464421307234 0.199340867477131 0.268784785301762 -0.192377809495366 0.243197436978624 1.02342888404914 -1.22174568166653 0.700399249403362 0.206502414520335 0.359156186488984 -0.692857436399186 0.90391995712898 1.7694857597874 0.952794803186418 -1.6048987328853 2.27285916180328 0.868419211471713 -0.571688091915839 0.660447412254318 -0.244451106231969
0.0566593710745664 -0.363848447332615 -0.299136642430012 -0.967292217977045 0.229499891967972 0.0570396370355378 -0.128605999422589 0.161047905230175 -1.0564837405335 0.837976594448789 0.147332876727064 -0.151050947086502 1.37250249470344 -0.257612062290257 -0.564548913458574 -0.286904111243305 0.0683969651585892 -2.10324743059066 3.36956881894113 -1.17492180354058 3.29103862724176 1.31743257878149 0.440818237330062 2.90315963374536 3.242119815343 1.40519251183783 1.90679828134412 1.05461300684045 -0.800483501981808 0.73691095230102 -0.233967695621657 -0.3137878091102 0.401518945826012 0.36159281969529 0.810087338655349 -0.170424970722123 -0.0903917128916965 0.390894895945484 -0.463534436237264 -1.88958424035767 0.352530971287961 0.672222801535273 -2.39714519592753 -0.408733457566959 -1.29306316139624 -1.9792249344042 -0.31991577321689 0.170858972711386 -1.27676828931477 -0.0678295229842389 0.456951129996105 0.114298846167539 0.174138155988079 0.716152133218616 -0.12286781435365 -1.91162012572009 -0.634447916307491 1.51992973086774 -1.63161736601458 -0.849971298716024 -0.688345924014354 -0.887057642873163 -1.0971454588984 0.696250262376859 1.7310372458796 -0.518657316856952 -1.17747825009227 -1.45235680384635 -0.989017771348328 -0.175714498521356 -0.45824002334455 1.04202232116853 -2.52865294087785 4.1370476009243 -2.16394266021111