4.7835992753 5.7882554939 2.5117564471 2.7404315019 4.4466061593 -0.3086568094 1.9559020752 1.6348694779 2.1902238911 6.9902214941 1.3444939759 0.3666284677 7.7191789637 4.1861609850 2.8041572578 0.8542133023 4.4482857593 1.8047787392 3.9062947308 1.5884357532 4.4464960269 8.8125514147 1.3877845346 3.1877352439 5.7442355724 4.2586989358 0.5521370715 1.1392100524 4.3442494921 3.3746084547 3.7307028706 1.4967187354 1.0696362234 8.5384458094 1.4868290515 1.6354753551 5.8883441269 4.3157265294 3.9391066473 4.2275127820 4.3926682872 0.8552547225 0.5796538623 1.5244641775 3.3875872447 5.3920001519 1.4766664958 4.1490861624 9.1265972745 4.3345655523 1.6364173520 1.5689193701 5.7059299439 1.1908013964 3.0843752011 0.4379924467 3.7743525709 8.0454172643 2.5598789760 3.9273112756 6.4331801340 3.0042859315 1.2483599466 8.0819767792 0.1357332126 3.7932239370 6.5537672250 5.4078007361 1.2323960469 1.6394999784 3.2750966745 1.0823523161 3.1931359612 2.8406678314 3.7457310318
4.8197174826 5.8261725269 2.4965493287 2.3434354013 4.3622163313 -0.1812675236 2.2348324421 1.5907100312 2.3728709964 7.3644404429 1.4316208324 0.2322815208 7.4254766461 4.2559520125 2.6231408632 0.7769172408 4.4150219828 2.0709657067 3.9636253439 1.6030901050 4.6623420887 8.8874842565 1.4163504785 2.9431576650 5.7101022415 4.2245713014 0.3517225233 0.8199524007 4.3453557499 3.5684165573 3.8043944687 1.5238496317 1.1707216307 8.8087916221 1.4589884937 1.4116555900 5.8660050180 4.3125334438 3.8112306434 4.2264097182 4.2525965994 0.7019182615 0.6532338908 1.4049321687 3.3499366567 5.4508068858 1.5706872144 4.3091948862 8.9832461566 4.4553931497 1.6310521147 1.4544668212 5.5762244567 1.3708082215 3.2994049881 0.3833821623 3.9408337686 8.2539994643 2.6296899769 3.6674252929 6.3830449924 3.0835096329 1.1394161881 8.1635646509 0.2606881486 3.6381838723 6.3974207133 5.4276783100 1.0924651322 1.3937161682 3.2165452710 1.3374986075 3.3031117821 2.7305107557 3.8696793156
4.8074743564 5.8157617069 2.4999459524 2.6556301069 4.3333716228 0.0132920260 2.1000963828 1.4631936330 2.4445719482 7.0798940937 1.4599289700 0.0452087513 7.5489635837 4.3557146525 2.5532532570 1.0334428431 4.3592552404 2.2033688353 3.7499532735 1.5184599544 4.6844253406 8.6063945016 1.4643948591 2.8007931619 5.9190414191 4.3310268153 0.3163138761 1.0581227523 4.3896772078 3.7560380122 3.7346981053 1.4672349823 1.2944193544 8.6037276415 1.4560091225 1.2470889077 5.9095551827 4.3761517436 3.7105782501 4.4502518321 4.3801119852 0.7603051707 0.3475080622 1.4706780053 3.2856656460 5.2052626901 1.4606975975 4.2291675508 9.3241742659 4.3785459815 1.7263692836 1.7591425447 5.5685504768 1.4654151797 3.0678733502 0.2816501937 3.9441198834 7.9120912664 2.6813032241 3.5210111665 6.5954585844 3.1436105740 1.0491972007 7.9041601425 0.2541041439 3.5285574523 6.5841841387 5.5596205817 1.0617114057 1.7516565320 3.1441931196 1.4906812093 3.0707714826 2.7068290156 3.9478504644
4.8010439506 5.8382009240 2.5013124310 2.3967515641 4.3388364061 -0.1259095498 2.2196533814 1.5548629837 2.4102762080 7.3187410193 1.4539245216 0.1807239321 7.4539934242 4.2911052463 2.5835919253 0.7644844560 4.3955708005 2.1069983258 3.9705381743 1.5868955057 4.6422558693 8.8999670978 1.4409715522 2.8928546203 5.6725051849 4.2347851444 0.3620150308 0.8091280775 4.3282222229 3.6596358893 3.8562152387 1.5439352633 1.2717232455 8.8573418310 1.4726865897 1.3676985767 5.7875132458 4.2866837938 3.7618986874 4.2027780966 4.2839772950 0.8786048051 0.6137630362 1.4208575503 3.4880979553 5.4745008653 1.5412616908 4.1256400176 9.0297223257 4.4005076283 1.5203052243 1.5721521852 5.6699578195 1.4804921483 3.2593338185 0.3097513795 3.9296935365 8.1663545191 2.7096042415 3.5957396051 6.4810722630 3.0123935757 1.1000974795 8.0982989746 0.1846216856 3.5334904788 6.4079324748 5.5089793091 1.0520503589 1.4910673322 3.1299629855 1.3713854360 3.1673930716 2.8196263947 3.9078432005
4.8023331852 5.8348600120 2.5001490992 2.4436161961 4.3366561485 -0.0839868663 2.2055698927 1.5378539488 2.4307212560 7.2816661106 1.4550741596 0.1436490810 7.4632922478 4.3086783556 2.5685767862 0.8036486012 4.3966544147 2.0933174957 3.9364307528 1.5733319710 4.6292866626 8.8915837128 1.4432268753 2.9148006665 5.6873526336 4.2522964701 0.3757538209 0.8235540606 4.3355629119 3.5728987254 3.8909832042 1.5593534904 1.1356086803 8.8451828415 1.4764633692 1.4133646775 5.7618778692 4.2695201162 3.8564002700 4.2494798654 4.3078767336 0.9350517800 0.5908685616 1.4316085452 3.5225514971 5.4048355392 1.5224148141 4.0760777783 9.0477018893 4.3777315698 1.4819464589 1.6192309050 5.5636120422 1.5685576041 3.2038346937 0.3676775549 3.9910031016 8.0935821877 2.6586763014 3.5181188251 6.5086418287 3.0917194372 1.0572360476 8.0552852547 0.2567676635 3.4549759661 6.4452671764 5.4791141345 0.9937620259 1.5574012952 3.1945212478 1.4567942900 3.1352143225 2.7227319328 3.9583558871
4.7879367419 5.7941170092 2.5168763810 2.6906824853 4.4489817562 -0.2861004072 2.0216321128 1.6454058641 2.2191604605 7.0412588789 1.3358181295 0.3399074731 7.6510337696 4.1756358558 2.7818157105 0.9056800385 4.4537626698 1.8200506593 3.8513531479 1.5741969534 4.4434668491 8.7869317702 1.3876013015 3.1655178060 5.7764192310 4.2770429215 0.5387328755 1.1145174738 4.3622981232 3.2984714813 3.7362904608 1.5245678705 1.0205520234 8.5592616528 1.4901042530 1.7085457804 5.8902958321 4.2856721854 3.9856435763 4.2870199591 4.4325777219 0.9262185863 0.6047747924 1.5005037827 3.4477168373 5.3610734144 1.4201373595 4.0756211515 9.0791415528 4.3426253438 1.5552839206 1.5784311955 5.6581125494 1.2042985834 3.0808111117 0.4635461270 3.7365918932 8.0805354350 2.5510772534 3.9229405387 6.4329465612 3.0908820254 1.2053552023 8.0681166310 0.1816980876 3.7979361776 6.5589947352 5.3987111062 1.2724411628 1.5832341401 3.2876966227 1.0953743039 3.1990138974 2.7443969717 3.8181292401
4.8048071649 5.8035024822 2.4967288295 2.6985266871 4.4094404051 -0.3942827797 1.9382283594 1.5603701682 2.0042512244 7.0154174497 1.3896150571 0.4639544350 7.7048859212 4.2786348280 2.9937584816 0.8686910264 4.4514341522 1.8906145931 3.8745544661 1.6496342951 4.5149184205 8.7892013735 1.3744296955 3.1056193120 5.8034293862 4.1973063297 0.4926761032 1.0843823220 4.4791541310 3.3445557577 3.6288333787 1.6200318497 1.0403173739 8.5550690160 1.3592688892 1.6533052521 6.0445641514 4.2404155224 3.9724816793 4.3026078126 4.2773987798 0.6971602507 0.6243708978 1.5556505390 3.3314958019 5.3906024624 1.5156808987 4.2939752304 9.0047464497 4.2513437301 1.6226247211 1.5048080678 5.7087866440 1.1562530615 3.1228097622 0.3920306418 3.8049721968 7.9457870005 2.5051100959 3.8153484035 6.3952826705 3.0047059978 1.3245993863 8.1923336538 0.1262445395 3.8613044323 6.5427253308 5.4328620555 1.2056607409 1.6987406594 3.3028447335 1.1775698179 3.2885287569 2.8754643852 3.6836162947
4.8171809962 5.8095717283 2.5169655875 2.4922837573 4.4357180262 -0.2278998667 2.2190891842 1.6552895996 2.2799702318 7.2320463371 1.3506110114 0.2794497794 7.4447218475 4.1730504250 2.7248239587 0.8321558482 4.4398968675 1.8581160241 3.7968014441 1.5410733888 4.4847256196 8.8077676588 1.4091345308 3.1288329384 5.8542556019 4.2898049110 0.5155289747 1.0581317592 4.4204514789 3.3697832736 3.7499521416 1.5371115553 1.1086197766 8.5849269623 1.4605736406 1.6427978115 5.9330880391 4.3006083500 3.9200330579 4.3440930502 4.4361360846 0.8165152422 0.5860100693 1.3672552317 3.4949020178 5.3142610032 1.3778774098 4.1763823643 9.0752640512 4.4493841870 1.5002071007 1.5859885782 5.6175070992 1.1878464290 3.1206885125 0.3675582852 3.7676911804 8.1215090167 2.6559047891 3.8347701475 6.4745322352 3.0620062278 1.2459441476 8.0779660146 0.2026456666 3.8105983029 6.5319518777 5.4926928360 1.2137899980 1.5292491070 3.1987050710 1.1701619262 3.1992224523 2.7597456387 3.7678758238
4.7852869998 5.7886293014 2.5053232811 2.7374941703 4.4318626457 -0.3850363766 1.9108721859 1.6030268001 2.0681257403 6.9798669501 1.3732338595 0.4484611937 7.7477769338 4.2217225364 2.9269212357 0.9519837372 4.4430048680 1.8974425593 3.8418178163 1.6842014392 4.5191584080 8.7094449927 1.3875469893 3.0916794111 5.8129613008 4.1572230415 0.4690199303 1.1712451134 4.3946911672 3.4161861399 3.7054604490 1.5071632993 1.1251827164 8.5006473487 1.4213081977 1.6078249246 5.9507128886 4.3429461109 3.8965063308 4.3095477599 4.2863588413 0.8286380064 0.5127949288 1.5228255383 3.4494146793 5.3491170786 1.5673108087 4.1882998267 9.1720107562 4.3337871448 1.5483229066 1.4338072771 5.6829589503 1.1785104369 3.2179656298 0.4695757933 3.8085912590 8.0240906493 2.5376070487 3.8833152086 6.2880561960 3.0295514550 1.3574052037 8.2205504025 0.1277921633 3.8112174903 6.4437044507 5.3751880475 1.1986555814 1.6441116114 3.3144354964 1.1219960368 3.3823451044 2.7851407271 3.6363262918
4.7913449267 5.7981010279 2.5196889408 2.6589969442 4.4484329846 -0.2769127848 2.0601374169 1.6499310035 2.2290226290 7.0715507737 1.3343118734 0.3279032148 7.6119296809 4.1716335149 2.7736674882 0.9172535528 4.4499190839 1.8448411308 3.8438447747 1.5656178794 4.4811510612 8.7840856993 1.3916367256 3.1574791507 5.7863181751 4.2818318620 0.5136594533 1.1147214981 4.3761646489 3.2916771215 3.7372992676 1.5360097419 0.9965246065 8.5567341722 1.4886374459 1.6972530229 5.8970020180 4.2771727701 3.9928893836 4.3157098658 4.4493185704 0.9520650109 0.6045723395 1.4804510463 3.4833669671 5.3433809169 1.3931672717 4.0485961770 9.0477274128 4.3527609510 1.5094738154 1.5949901567 5.6720954719 1.1898270673 3.0633943481 0.4214914502 3.6990995080 8.0908086312 2.5687021627 3.9261649520 6.4453513042 3.0910950650 1.2099104211 8.0601822139 0.1803034729 3.8123398971 6.5691953075 5.4306950816 1.3003766534 1.5713287572 3.2616423365 1.0870171957 3.1825941061 2.7614894185 3.8175020993
4.8117762599 5.8095934215 2.5211938395 2.5239368561 4.4400234344 -0.2389824052 2.1963163136 1.6563051278 2.2695427085 7.2014211369 1.3441178444 0.2885250925 7.4706420526 4.1699248278 2.7352472318 0.8170894863 4.4389045533 1.8438267839 3.8192472472 1.5314992157 4.4782034226 8.8154536063 1.4076836105 3.1455376119 5.8429408530 4.2993140381 0.5206052879 1.0961603260 4.4170193128 3.4101807093 3.7353293187 1.5439911247 1.1357370868 8.5594540729 1.4682816873 1.6063633193 5.9351278575 4.2892888802 3.8866140611 4.3441688286 4.4531809601 0.8756527649 0.5645666777 1.3846707177 3.5167996763 5.2955302171 1.3636250325 4.1224134405 9.1183844358 4.4294499313 1.4834015516 1.6088833303 5.6645530355 1.1638789184 3.0931239650 0.3407117693 3.7161573758 8.1105147508 2.6591673424 3.8757872880 6.4849858288 3.0353626284 1.2563750721 8.0642362807 0.1762154333 3.8323832835 6.5455555285 5.5098030692 1.2592942913 1.5462394590 3.1810352583 1.1234388114 3.1705057357 2.8096333837 3.7625092723
4.8292022424 5.8184525100 2.4947646188 2.3500820349 4.3806281583 -0.1933872452 2.2420290662 1.6078862512 2.3543913750 7.3582628839 1.4136677088 0.2439299283 7.4110414973 4.2376455133 2.6453166749 0.7493699590 4.4258566065 2.0180634857 3.9452127866 1.5818398342 4.6241410133 8.9069579350 1.4081013976 2.9764503611 5.7246531648 4.2453863291 0.3708394565 0.8695887022 4.3628218111 3.5148776096 3.7388560122 1.5183092861 1.1827974797 8.7501975559 1.4532806674 1.5045253659 5.9420970416 4.3199011947 3.8392047795 4.2099362653 4.2693179473 0.6383274993 0.6989474722 1.3943948026 3.2937089000 5.4964333644 1.5544421531 4.3707071015 8.9346276001 4.4717742046 1.6752828803 1.4958850206 5.5691839953 1.3081670059 3.2313861218 0.3913223834 3.9518574590 8.2106423076 2.6304102912 3.6854277715 6.4159906225 3.0808372888 1.1867910454 8.1211469212 0.2662167395 3.6885994332 6.4616352671 5.4228919601 1.0946315594 1.4401757032 3.2054334324 1.3317424946 3.2771291727 2.7313012741 3.8100049158
4.8138488161 5.8306758683 2.4983966213 2.3487654435 4.3540454026 -0.1719971419 2.2321465011 1.5822313158 2.3818650669 7.3591235295 1.4395641814 0.2230506874 7.4332289918 4.2645041979 2.6121796384 0.7544674076 4.4051070763 2.0787834025 3.9900616216 1.6059480605 4.6534247990 8.8909850772 1.4252037803 2.9340769883 5.6948789847 4.2189095614 0.3604493837 0.8129583720 4.3373693350 3.6381269128 3.8157759002 1.5261477373 1.2401066527 8.8267945504 1.4628652886 1.3521662730 5.8421767368 4.3091594370 3.7568670012 4.2197602169 4.2547887856 0.7451025454 0.6323778625 1.4089118058 3.3867582173 5.4347298512 1.5684866168 4.2684669955 9.0316124578 4.4426332776 1.6096099940 1.4756813633 5.6267387808 1.3855043282 3.3042382493 0.3455321615 3.9211371313 8.2510895697 2.6546684023 3.6612416717 6.3955676510 3.0570302506 1.1302382863 8.1588380627 0.2281171885 3.6212134567 6.3857625949 5.4571421531 1.0952174488 1.4024112595 3.1834419360 1.3298373081 3.2774743501 2.7710821365 3.8757300186
4.8048365513 5.8320233798 2.4992182510 2.4688755186 4.3366535706 -0.0633795330 2.1971179623 1.5303864826 2.4407510907 7.2609262995 1.4543288898 0.1247960004 7.4683975533 4.3168290765 2.5610278006 0.7980670345 4.3892370660 2.0668839111 3.9363327692 1.5686702402 4.5957954183 8.8879382493 1.4476143059 2.9386174411 5.6975310727 4.2597663271 0.4051633851 0.8425005324 4.3399304984 3.5813404997 3.8953478922 1.5633255062 1.1322382313 8.8279010819 1.4777995294 1.3952934607 5.7587529725 4.2646304695 3.8477714905 4.2745429926 4.3192068467 0.9501425603 0.5779976391 1.4376121495 3.5287183862 5.3487408934 1.5147127919 4.0703949465 9.0913362525 4.3702577634 1.4828288455 1.6625982752 5.5336131451 1.5885550659 3.1570770911 0.3724399955 4.0105407412 8.0512426024 2.6297805501 3.4897257852 6.5205182515 3.1342868458 1.0426373760 8.0207188303 0.2862117606 3.4331389549 6.4766519078 5.4758608669 0.9768169125 1.6029175143 3.2172748924 1.4906335966 3.1147535750 2.6831390835 3.9714497547
4.8321776372 5.8155155488 2.4952574889 2.3606734475 4.3901009172 -0.1970749930 2.2471896953 1.6172171389 2.3434572520 7.3485749125 1.4042371387 0.2475177978 7.4043384171 4.2271178949 2.6573445641 0.7094844210 4.4253887003 1.9736362438 3.9560030655 1.5741156003 4.5957088464 8.9220659381 1.4086754260 3.0184328695 5.7267907919 4.2516804685 0.4011596941 0.9080643894 4.3727238998 3.5306789888 3.7020658477 1.5163337969 1.2210004579 8.7097053466 1.4518839779 1.5003475531 5.9825974247 4.3236836571 3.8167601880 4.2056622288 4.2879094732 0.6219103027 0.7022229479 1.3865992933 3.2859744543 5.4891224500 1.5358321244 4.3874265235 8.9548664219 4.4761474700 1.6868225892 1.5418661797 5.6013627835 1.2655253338 3.1794676404 0.3576947389 3.9363144365 8.1797699083 2.6456310305 3.6977347514 6.4449861451 3.0666105986 1.2147461037 8.0905919130 0.2488680049 3.7180105720 6.5021663335 5.4468838847 1.1030245349 1.4790524147 3.1759029533 1.3184155426 3.2433626829 2.7585848909 3.7688613088
4.7957086609 5.8022753221 2.5222332319 2.6254950127 4.4471639947 -0.2681691034 2.0985003846 1.6532736168 2.2383759319 7.1032616817 1.3344228303 0.3168038385 7.5729025316 4.1690636783 2.7652207168 0.9019240759 4.4448598022 1.8530540456 3.8480481934 1.5506694513 4.5052891207 8.7944233554 1.3967573806 3.1600811348 5.7941758329 4.2903333280 0.5015038014 1.1236423366 4.3889707663 3.3352637438 3.7330001924 1.5434845660 1.0164843706 8.5466670677 1.4863425275 1.6495526006 5.9095453023 4.2736427943 3.9626160471 4.3336567344 4.4611843170 0.9621028059 0.5915493862 1.4566875577 3.5105831104 5.3219062140 1.3722458098 4.0391551371 9.0426528665 4.3678453379 1.4769039512 1.6144460847 5.6969772919 1.1684754470 3.0497950637 0.3702924946 3.6694227074 8.0952623559 2.5982324452 3.9293922249 6.4659027371 3.0642848809 1.2284983990 8.0520852832 0.1676519054 3.8300997531 6.5762182607 5.4712797535 1.3186916642 1.5685153748 3.2232587075 1.0756652170 3.1587608936 2.8065244314 3.7984449635
4.8099206730 5.8258617941 2.4973851354 2.5188382506 4.3383391683 -0.0292220082 2.1810165815 1.5162919983 2.4550454652 7.2186848913 1.4513370606 0.0925933158 7.4783075096 4.3317211655 2.5497133831 0.7887901407 4.3673828283 2.0593041647 3.9171419700 1.5485785816 4.5646969409 8.8747752821 1.4608916315 2.9348668540 5.7227927296 4.2845903443 0.4264559182 0.8922833112 4.3502282021 3.6446171721 3.8833494430 1.5596653207 1.2064439368 8.7837665823 1.4779152010 1.3545229436 5.7641262097 4.2675687585 3.7920284399 4.2921826419 4.3400689394 0.9625257320 0.5603734851 1.4494811360 3.5297013095 5.3284858079 1.4988991568 4.0511384820 9.1442359371 4.3640779283 1.4853609567 1.7835409844 5.5611609256 1.5670226469 3.0406474266 0.3047602763 4.0108032679 7.9492760629 2.6258539846 3.4770019368 6.5776751096 3.1416528518 1.0587066117 7.9213029013 0.2770322857 3.4408515058 6.5636782648 5.5304026429 0.9822487076 1.7224773630 3.1876147150 1.5115004055 3.0352405867 2.7017721715 3.9440803630
4.8249622333 5.8219951947 2.4952106463 2.3440454587 4.3712393033 -0.1882408143 2.2378954325 1.5990987616 2.3639600749 7.3640366814 1.4228537636 0.2391130562 7.4181549200 4.2471650965 2.6340882358 0.7774887280 4.4232401283 2.0530895170 3.9446821288 1.5932842635 4.6531049857 8.8927723948 1.4101947003 2.9522459194 5.7209110683 4.2351560432 0.3513485720 0.8383213535 4.3540451949 3.5182424439 3.7786796027 1.5211567684 1.1473713242 8.7840933114 1.4555802500 1.4746423317 5.8991316885 4.3158713679 3.8468542143 4.2211944767 4.2572367672 0.6655509360 0.6791800197 1.4003054594 3.3170412751 5.4782187589 1.5662755178 4.3435676935 8.9449426461 4.4651458995 1.6542179796 1.4605938417 5.5528549260 1.3472885196 3.2751727781 0.4034451992 3.9543231909 8.2386417155 2.6218234783 3.6747816050 6.3915166059 3.0907121283 1.1588922265 8.1496373675 0.2742011386 3.6600371184 6.4237131207 5.4141850654 1.0906746920 1.4073302602 3.2251376875 1.3396878614 3.3022145356 2.7155869128 3.8481927759
4.8135040227 5.8141933655 2.4980458788 2.6199613865 4.3394233827 0.0150236131 2.1361789471 1.4770280500 2.4507374755 7.1213395136 1.4520207896 0.0475990294 7.5122330203 4.3549884902 2.5509625604 1.0032438475 4.3640045770 2.1627618926 3.7650498808 1.5123060301 4.6436209711 8.6588053897 1.4570798530 2.8411349583 5.8926739901 4.3329332039 0.3545595730 0.9762976503 4.3807644261 3.6998204489 3.8149546766 1.4976710600 1.2249591181 8.6927715362 1.4643963097 1.2912768991 5.8201334513 4.3416417895 3.7625288176 4.4571176317 4.3731731638 0.8404456450 0.3538696481 1.4693734867 3.3973780331 5.1622513017 1.4691781777 4.1474492498 9.3267389832 4.3743950217 1.6035553721 1.7612195328 5.5096539330 1.4868168060 3.0653159623 0.3257382210 3.9862913798 7.9101514782 2.6446250194 3.5168115020 6.5791301975 3.1790118017 1.0639006583 7.9072165659 0.2895489605 3.5094621011 6.5736069398 5.5307574610 1.0304327788 1.7561116073 3.1852125846 1.4989327303 3.0740046810 2.6599961272 3.9383995497
4.7821847029 5.7865453752 2.5096788542 2.7532374712 4.4438461925 -0.3231325922 1.9338714242 1.6297091742 2.1689281143 6.9742268661 1.3510805901 0.3820926001 7.7423393084 4.1917199920 2.8217371779 0.8711943417 4.4439078931 1.8312559149 3.9172302499 1.6112753364 4.4843917489 8.8051749822 1.3901471744 3.1774014277 5.7358423057 4.2336027632 0.5302791727 1.1519951395 4.3458034349 3.3891126157 3.7323147557 1.4864084572 1.0649853154 8.5269575607 1.4782964163 1.6102103229 5.8889532698 4.3321644979 3.9360705430 4.2224041549 4.3719203845 0.8286930714 0.5728702177 1.5294498963 3.3812001455 5.4077413732 1.5007231425 4.1755991820 9.0899080864 4.3319066725 1.6465006150 1.5572552839 5.7340830149 1.1777372245 3.0872017746 0.4043188253 3.7774711913 8.0314125769 2.5699762584 3.9278643715 6.4217447038 2.9699747574 1.2784253828 8.0985667513 0.1097304040 3.7965725585 6.5496123555 5.4286405783 1.2243115939 1.6632620754 3.2623972091 1.0750276527 3.2062425824 2.8794590192 3.7021238274
4.8075434569 5.8290162141 2.4982844648 2.4943168694 4.3371742961 -0.0449041519 2.1886153990 1.5233387584 2.4492938779 7.2395879995 1.4530568203 0.1074970038 7.4737382784 4.3244770166 2.5543027066 0.7820698350 4.3773275839 2.0506743612 3.9375007255 1.5606793374 4.5667656199 8.8849528493 1.4547473586 2.9475594598 5.7080600788 4.2697232166 0.4272045451 0.8669212442 4.3447051716 3.6142357513 3.8914007138 1.5635831981 1.1699885471 8.8062339444 1.4783190629 1.3701382166 5.7603350703 4.2637163053 3.8162999295 4.2882082363 4.3299838689 0.9591182717 0.5688796762 1.4436442698 3.5306076543 5.3161252725 1.5072414739 4.0651852032 9.1340927719 4.3658490565 1.4888349721 1.7246004543 5.5407387094 1.5849065310 3.0973863404 0.3455443687 4.0150439486 8.0011131776 2.6188544138 3.4765313686 6.5438827660 3.1514684607 1.0435341720 7.9722385020 0.2903634586 3.4300486945 6.5189665919 5.4956906913 0.9742892104 1.6620820551 3.2110438639 1.5074799428 3.0780611484 2.6796256929 3.9644742900
4.8062484972 5.8084886783 2.5235994563 2.5570783532 4.4431276031 -0.2497218419 2.1678852687 1.6563326256 2.2588120494 7.1690246280 1.3392540603 0.2976047474 7.5012218215 4.1682732537 2.7457017801 0.8311865428 4.4387613873 1.8416920716 3.8425648026 1.5299181361 4.4865154897 8.8187810560 1.4053189607 3.1582779186 5.8239427872 4.3020744119 0.5150201626 1.1226366712 4.4100658998 3.4214953273 3.7256865929 1.5476656386 1.1241181212 8.5422487519 1.4758504092 1.5880483112 5.9331499962 4.2801325976 3.8835554878 4.3436562862 4.4635507298 0.9229420987 0.5583256661 1.4066928234 3.5266218647 5.2886177297 1.3575807769 4.0794686314 9.1077978419 4.4080949470 1.4691261738 1.6248264277 5.6993116302 1.1505077255 3.0655300994 0.3243052854 3.6771291284 8.1021417636 2.6507722163 3.9074229465 6.4896255056 3.0242836956 1.2579322708 8.0527739600 0.1592549717 3.8443585811 6.5624827410 5.5166329014 1.2973658394 1.5598868595 3.1760440380 1.0894395241 3.1491273928 2.8417209402 3.7649444557
4.8081060483 5.8347229379 2.5000664777 2.3600327550 4.3472209492 -0.1598198348 2.2290922052 1.5733297017 2.3910747670 7.3488598507 1.4461699833 0.2112987699 7.4410523069 4.2731921512 2.6016246436 0.7352552956 4.3982858134 2.0853411453 4.0014148639 1.6024774844 4.6442444217 8.8970497137 1.4331912957 2.9200859031 5.6812263337 4.2199817514 0.3659408120 0.8114885409 4.3313108243 3.6867194834 3.8240252441 1.5296796999 1.2974076571 8.8408354616 1.4666910040 1.3229801252 5.8229398704 4.3039961935 3.7210348588 4.2065675155 4.2620368081 0.7916572301 0.6217837486 1.4126583731 3.4239052043 5.4442362946 1.5614265923 4.2208406548 9.0613090834 4.4283372459 1.5862035784 1.5097228554 5.6717556807 1.4057270827 3.2954811177 0.3121215708 3.9083908713 8.2314230781 2.6854670433 3.6500588714 6.4232503306 3.0249204558 1.1247580002 8.1414346628 0.1943490003 3.6009530190 6.3864162309 5.4880881368 1.0915116169 1.4269613641 3.1469043198 1.3284656330 3.2373805291 2.8124513406 3.8790537985
4.8118167721 5.8226213366 2.4966722101 2.5416290264 4.3398965734 -0.0161675049 2.1744539103 1.5089494501 2.4575754851 7.1986588073 1.4495404416 0.0800609537 7.4818587382 4.3384871514 2.5477145555 0.8298091227 4.3613080098 2.0914902319 3.8773915557 1.5351434905 4.5875212435 8.8495973940 1.4638678297 2.9050351826 5.7470732292 4.3014756001 0.4044012326 0.9135943752 4.3562676791 3.6563409354 3.8745639342 1.5518972226 1.2179792461 8.7642332410 1.4766490303 1.3553649604 5.7683204306 4.2763011843 3.7901813380 4.2989437064 4.3490806888 0.9583203402 0.5434146669 1.4549610087 3.5244995637 5.3536211359 1.4905568105 4.0374963482 9.1294384949 4.3644328353 1.4735924038 1.8210887558 5.5728070077 1.5436386356 3.0035633201 0.2733347617 4.0043245325 7.9078787030 2.6389287837 3.4855650233 6.6077761572 3.1243666538 1.0777707442 7.8831960716 0.2627382666 3.4582447613 6.5978899963 5.5616260980 0.9945853336 1.7676100546 3.1667585539 1.5092151478 3.0049272325 2.7242710261 3.9227350368
4.794104606116 5.821490919378 2.503482742868 2.699777793132 4.325292139717 0.003352940065 2.015208002383 1.443683208996 2.452298972615 7.029456748052 1.472498281599 0.052413348365 7.621418690769 4.354295389262 2.547768519146 1.005601426971 4.374736658975 2.231892434328 3.780964863135 1.516049982099 4.701299423449 8.628395457961 1.464334809507 2.775073051408 5.915415705007 4.330747440588 0.295831386454 1.213859013695 4.391761646582 3.752596353954 3.624036619449 1.438871993740 1.283544024535 8.420137871237 1.447309821900 1.254369131782 6.072344076785 4.407925338659 3.713576892809 4.460647931338 4.382565879780 0.637612608831 0.358411630123 1.468435688601 3.071574559870 5.173348953593 1.456505588702 4.369352876905 9.337959289518 4.378361688942 1.925551303753 1.707130963565 5.486053718215 1.523694044364 3.133853683879 0.381055324311 3.959238804806 7.927836335860 2.608856163118 3.474793518505 6.591402906327 3.198949690032 0.972388427184 7.926865903108 0.353011991472 3.483276387652 6.562517235762 5.465742053232 1.037887058817 1.706160485026 3.230215350508 1.532176913511 3.104977725861 2.647847687511 4.024737436439
4.8143633858 5.8150206494 2.4971290918 2.6011428561 4.3412096392 0.0109850230 2.1498498706 1.4847723009 2.4535069590 7.1413555029 1.4494227274 0.0528626290 7.4994109384 4.3529295316 2.5500010086 0.9822404492 4.3626960718 2.1670338347 3.7723328777 1.5106321070 4.6532827442 8.7059619166 1.4584248467 2.8409935610 5.8599639579 4.3328394521 0.3473545804 0.9545858761 4.3747475659 3.6619552326 3.8400218336 1.5129728149 1.1859253628 8.7184241857 1.4684119228 1.3338060961 5.7944386995 4.3232357185 3.8036364939 4.4161184771 4.3685466624 0.8811112621 0.3995947502 1.4673365213 3.4456261766 5.2348278377 1.4728905854 4.0965080488 9.2470559566 4.3716092038 1.5382324270 1.7865333691 5.5181490119 1.4947351726 3.0392959793 0.3098728985 3.9942379240 7.8958213673 2.6436962066 3.5131124770 6.5974405542 3.1566489178 1.0804827103 7.8893153822 0.2817670273 3.5016667975 6.5897018008 5.5465839786 1.0226354256 1.7726390158 3.1814417199 1.5004217334 3.0452937639 2.6823788830 3.9223461658
4.7854402198 5.7907896823 2.5141823032 2.7187531831 4.4484505456 -0.2964170244 1.9858530554 1.6401738938 2.2068085748 7.0134161102 1.3391949222 0.3526768172 7.6877787882 4.1806803985 2.7913423957 0.8742003796 4.4528035364 1.8012001501 3.8771012209 1.5768481304 4.4290232027 8.8010888876 1.3862496968 3.1809519939 5.7608906089 4.2726384063 0.5556922631 1.1242663720 4.3503555716 3.3374403329 3.7329437018 1.5104987966 1.0526602906 8.5513997051 1.4903267864 1.6772074600 5.8882587130 4.2991252470 3.9595311877 4.2532769926 4.4131238536 0.8909734614 0.5937989678 1.5152481944 3.4122833169 5.3764256312 1.4491643661 4.1125653813 9.1179575103 4.3373916094 1.6025426234 1.5719532459 5.6728734939 1.2029914706 3.0878854422 0.4685205858 3.7635711378 8.0639350096 2.5499650493 3.9240042689 6.4325898664 3.0543420798 1.2207898142 8.0740017884 0.1646348500 3.7920815037 6.5535822333 5.3912526779 1.2475028269 1.6084191785 3.2893349281 1.0923247781 3.1969356746 2.7818200180 3.7895653244
4.8009509519 5.7999937880 2.4983541043 2.7090132631 4.4159378437 -0.4003751448 1.9301686890 1.5662636647 2.0073306561 7.0041796791 1.3857202153 0.4686810362 7.7116492967 4.2690155712 2.9913005521 0.8906562789 4.4491008893 1.9110141904 3.8722668169 1.6441806664 4.5471502481 8.7779721149 1.3788225786 3.1013980724 5.8027139245 4.1979285029 0.4673569020 1.1204531444 4.4604783561 3.3727804943 3.6286192888 1.6038224620 1.0650106537 8.5201811816 1.3732811899 1.6059529282 6.0542654051 4.2590540491 3.9243118707 4.2936834243 4.2596925967 0.7253879662 0.5795427144 1.5430019712 3.3601410374 5.3937789456 1.5420203728 4.2764756261 9.0453310099 4.2692119051 1.5910735928 1.4945549699 5.7455412425 1.1553617800 3.1415753292 0.3841262802 3.8033981999 7.9477059032 2.5280218111 3.8308350715 6.3736864332 2.9666794409 1.3644917166 8.1981546252 0.1028536904 3.8570791015 6.5237128309 5.4367919871 1.2069956809 1.7031490969 3.2747366517 1.1641230803 3.3055154439 2.9120075452 3.6373814325
4.7813374613 5.7859425901 2.5070126826 2.7535496028 4.4375081310 -0.3559166452 1.9130176397 1.6186474471 2.1176159638 6.9672350969 1.3641712171 0.4163639068 7.7583690732 4.2038811724 2.8721267395 0.9439666654 4.4393243889 1.9061942385 3.8810632591 1.6662790431 4.5421491827 8.7411529286 1.3912625697 3.1163283483 5.7627939744 4.1756690612 0.4768579222 1.1573328042 4.3673191891 3.3557200435 3.7352968859 1.4837444879 1.0536884216 8.5185170593 1.4496998195 1.6308563158 5.8998620006 4.3512990539 3.9512182938 4.2703393450 4.3290185002 0.8182832716 0.5621965454 1.5297632585 3.4171846947 5.4014229538 1.5396376850 4.1889438612 9.0662537205 4.3329861439 1.6006959373 1.4961046492 5.7281077008 1.1696763109 3.1431898952 0.4074327998 3.7859773597 8.0260342682 2.5639164253 3.9119614743 6.3510583750 2.9898218981 1.3245724410 8.1611185303 0.1027216130 3.8015027085 6.5016188514 5.4209507524 1.2122002961 1.6657150776 3.2776220725 1.0870770592 3.2946522883 2.8470569911 3.6489705168
4.8330488242 5.8111080365 2.4990077377 2.3923213966 4.4082307349 -0.2015928642 2.2535851032 1.6357828365 2.3203775798 7.3215084244 1.3851946284 0.2536555861 7.3987936492 4.2044635295 2.6812811065 0.7199836961 4.4242629615 1.9078907691 3.9352574922 1.5683735527 4.5673144244 8.9066431576 1.4121482469 3.0966900052 5.7576617765 4.2549224457 0.4510950376 0.9668409769 4.3955822189 3.4881467529 3.6997454307 1.5151670058 1.1730256353 8.6468094886 1.4495617937 1.5215795236 5.9980503468 4.3272294907 3.8552658804 4.2494928848 4.3365118487 0.6289662263 0.6710157980 1.3664971582 3.3268131538 5.4139609654 1.4848915654 4.3756646191 8.9682541918 4.4821080796 1.6521606685 1.5920385257 5.6214833256 1.2161069012 3.1160728036 0.3191813014 3.8960662869 8.1419192116 2.6582137062 3.7212588224 6.4770054294 3.0666553455 1.2414025826 8.0652860830 0.2315478446 3.7556862711 6.5501799288 5.4864425756 1.1196983929 1.5221006970 3.1627570354 1.2924792520 3.2065147107 2.7729086425 3.7292752921