-28925.8171912658
-28925.7875330495
-28926.4668028576
-28926.024136047
-28926.107898494
-28925.966194741
-28925.9272435697
-28926.4741148248
-28925.4024786955
-28926.0427014123
-28926.0721528222
-28926.1430928636
-28926.071910641
-28925.963629253
-28926.0632495341
-28926.1791443912
-28925.9090607963
-28925.4507508494
-28926.0231292263
-28925.6705063354
-28925.9234884007
-28925.6246521838
-28925.5871502902
-28925.8508703702
-28924.3729521613
-28926.4629776192
-28926.0954815378
-28925.7267793123
-28925.9817905295
-28925.9248450235
-28925.9570841022
-28925.5241018182
-28925.8450954372
-28925.8029609438
-28925.7012632108
-28926.0311542675
-28925.8038759262
-28925.3146865167
-28925.5101440181
-28926.0016389109
-28925.8421238195
-28925.8992587166
-28925.8215094381
-28925.4366484209
-28926.531075297
-28926.0850440726
-28926.3783167888
-28926.0075326215
-28925.3550001613
-28925.6111407863