0.0434081693419708 0.0838971096637455 0.0354560084853875 -2.19417470399398 -0.226427425278581 -0.552973041679792 1.95873530968362 0.0356395851562013 -1.16507602618464 1.78059163415127 0.318419906170959 0.374044151647911 -2.03774963985797 0.0193938211197284 1.17842158735447 5.07071880579354 0.0191909611851736 3.14087651005863 -2.5043508863606 1.54337123760179 2.80129952113147 -2.58403935943534 0.113545256220543 -2.34785640247512 1.13322264558643 -1.53030515520111 -2.51048450689132 -0.152940706933114 0.542727715099135 -1.60578627723775 0.272972595965929 0.245841043882416 -1.53230444398577 0.103843974787564 -0.356732665902022 1.1667246166794 0.037107170081979 -0.0115712437954842 1.23200489219708 1.46348890344891 -0.0207125392494259 0.648797749852954 0.521573974775316 -0.299722596537554 1.29722680370318 0.0118111275964216 -0.244119176985441 -0.709069519001658 -3.21164557376754 0.0118448090304225 -1.6856722109332 -0.611467408131946 -0.347413964421664 -0.0619316724915245 0.448975829223033 -0.222863621029071 -0.542925432830025 0.31975893600513 0.0129910062271843 -0.195119889599329 -0.852044378123267 1.1155625184321 0.176797189502864 0.610388316693003 0.205387841876108 0.156312706985948 -0.307487838290941 0.304081385473557 0.49754574260318 -0.518544445486522 0.109026287640398 0.187601730732009 1.19784729013692 -1.42105158215875 0.0160896981552629
-0.0635198420932288 0.0331903535509179 0.0517807053481068 1.46901522972688 0.210714393541724 0.568081607375915 0.093246150145723 -0.0222536576876024 0.0205631582329794 -1.41475032578857 -0.203709940820463 -0.593357852377365 0.10649426655612 -0.0580500800555635 -0.00342573608112503 -3.00093555109893 -0.232735623623702 -1.37966969817068 1.02778330211203 -0.953004347985736 -2.4901409207548 1.20553437039461 0.370004950669641 0.00103949647072865 -0.60550373743233 0.675261843900846 1.14572385691459 0.805935780527015 0.0498109842345149 1.38418121055551 -1.01555205647624 -0.0279694741706023 3.26165041908019 -0.474381143536455 0.033197809746231 0.247799452147947 0.658809106166887 -0.00255644655168314 -1.32777097924847 -0.840640513057055 0.484085767401816 0.482994848894445 0.360643568898869 -0.0458463452093762 0.278177534514885 0.803095741443248 -0.468494091671436 -0.450270121885325 0.712968594930077 -0.21306052396354 0.122130679458379 1.93720361739048 1.92326207481596 -0.62516906690553 -1.37445370388384 -1.26024150384804 -0.439793396139777 -1.29429857582657 1.21241386756683 0.083087469696809 1.48748551106851 -1.3658055457613 0.729643218752149 -1.32166358395644 -1.35029485973863 0.345958206564314 1.03686829043585 1.13154834407335 0.0681509107132547 1.58064964306579 -1.73664687585693 -0.387705187012548 -1.8800343968226 1.81717867033261 -1.0936595590344
-0.0705988567676221 0.0430813822991076 -0.00742945585411204 -0.476913164620733 0.00173266552466989 -0.360700647359542 -0.620844987844261 0.104030636780577 0.382272705951448 0.230343727589275 0.0111213009748621 0.337887517913269 0.627537051692919 -0.100730627579043 -0.29691238223504 -0.168012248762855 0.278561657128605 0.875431377498471 0.291210449701933 -0.349551578484893 0.851458424015726 1.88707433074914 -0.0948258351113814 -0.670083130590578 -0.975862728824254 0.213007559265798 -0.845028355443762 0.328444117994053 -0.13223228144662 -1.3252587556483 0.110601087512575 0.202840137070654 -1.71831132025131 -0.339765193581271 0.0597827455802333 1.41065018969688 0.163432087959106 -0.241534962533971 1.4932260101291 -0.565012226008723 -0.0865142342186668 0.122121680601967 0.862155236078104 -0.0424203520180679 -0.187363903812537 1.02674714807368 0.0787109401581636 -0.0400863057748637 -2.20957714662952 -0.0575600280463602 -0.249877416648671 0.0113922951079682 -0.766343640524285 0.561718644561769 0.110779007759358 0.768197662055432 0.426947400055924 -0.202243641445601 -0.505436968346342 -0.310286996855577 0.229110370040404 0.04840844818509 -0.136726310338993 -0.144070405612279 0.613761088076386 -0.420801952456776 0.0530027500489164 -0.519456929526743 -0.380098068021836 0.0153402219711981 0.690725221649803 0.278341313701592 -0.174270053512067 -0.217353235582458 0.208909737165755
0.230074276117269 -0.186948670866648 -0.0631812279819378 0.590820946199606 0.405703671167981 0.520216433007953 -0.284411942237425 0.0976208799130859 0.0883664559785306 -0.385605625256433 -0.42768890582431 -0.416225648305775 -0.268663686405468 -0.0188693163459746 0.210198116293833 0.19860296125131 0.194959709955187 -1.24625882364421 -0.0369757867783574 0.0835060450750791 -0.150021735023101 -0.418850743276376 -0.223201720919995 1.85207083618621 0.873459599503414 0.0739114643681336 0.430382649213828 0.310709685996779 0.205666806424894 -1.35912273787924 0.0870965887836434 0.0266792952712413 -2.47254584247683 -0.536636774858828 -0.0432569885542418 0.0391298558933127 0.139684620107038 0.00529646977418009 1.30316887714741 1.02461287644283 0.0272138273421404 -0.573810279368076 -0.362328411929462 0.0508556229089078 -0.561831258822016 -2.08662705701724 0.0330540851538152 0.881720035469669 1.26197108405052 0.0835806070282108 0.576680914563645 -0.428189242240841 -2.15857754201801 0.327750434719745 -0.259831180281565 1.27914501584839 0.809250445008992 -0.06676920058867 -1.50637771022079 -0.472395738701687 -0.644733352076729 1.82579623234335 -0.382782298334576 0.0943838627064389 1.6557682397441 -0.25938020902021 0.21698685357138 -1.0553933362465 -0.389145518258905 -0.05730471763443 1.66521163966332 0.843447899147553 0.808524108741416 -2.09365567809573 0.464318622296063
0.0991583988086974 -0.0553753628196025 -0.0148267729353225 0.256727346149822 0.137072894865964 -0.186364773640573 -0.214635838056083 0.175337832102949 -0.0726056017475966 -0.354299632238281 -0.176777392018757 0.0431623720068196 0.137910302732688 -0.12107035706281 -0.0282445820666398 -2.68068784863551 -0.94023651339758 -1.48669875390788 1.73944449176047 0.135887874031537 -2.80687675522572 0.162434500448241 0.417318109474245 0.550364401760916 0.123273534222759 -0.106883531373504 2.06564506629581 0.553795537155889 0.00358488728453364 2.97714745983791 -0.717714334691816 -0.199846860317693 4.21234360362903 -0.495483976043998 -0.0293280443786978 -1.91863100619593 0.493137588512 0.197586090476704 -3.22002967973192 -0.174993818677811 -0.0358704701007263 -0.593194844521208 0.0435184696105691 0.0223739852533459 -0.482568560210678 -0.574240167594407 0.082533654362169 0.820008449294974 1.46265509512475 0.203433290263326 0.93951866176605 1.29627138226236 1.90765857201715 -1.4688938737204 -1.05179173680006 -1.69668064053763 -0.810792591887901 -0.373335555982977 0.225075797045432 0.699653629872045 0.104545371367368 -0.33205805872929 0.517662814668286 -0.811726673183513 -0.824615092447595 1.0529060523341 0.708800838860201 0.942877034979174 0.77648638014184 0.768836580860715 -1.01269556234075 -0.715050930303916 -0.501599855972077 1.08069837758847 -0.850120422622287
0.0928147192582922 0.0668566180509623 0.0120623242454203 -0.893968250377552 -0.26708477277036 -0.279205975247736 0.674213862794072 -0.174802785811684 -0.61571898212155 0.60568062923838 0.462592641636156 0.189209440707637 -0.583409488058319 0.257741645822596 0.340900592150338 -2.73041938582341 -0.658763340554275 0.814752860039925 2.50184200519281 -0.813097841790585 3.18778394899412 1.55147560768683 0.368125218120173 1.01440560216929 -0.772192897192373 0.0527294419241614 -1.11295876360671 0.705184069912949 0.136317248037502 2.27962630182543 -0.165648634848582 -0.186142373332094 0.572544268825937 -0.736111596741412 -0.0881592251708612 -3.02049597961738 0.330812617001808 0.350975711789708 -1.33673461156582 -0.358019245258818 -0.192222772054889 -0.665916402961434 -0.792002979698722 -0.376105146876544 0.0153471639461448 -0.165813442476021 0.14573673670968 0.702798858743285 0.524433297122824 0.34730726369563 0.102636071146831 0.714259545159988 2.03655973393006 -1.11794695827122 -0.732781762758625 -2.62720661653564 -0.744876739997314 -0.448296801229168 1.1699577772333 0.303823503959795 0.853627919741674 -2.57383285649234 1.41631895501635 -0.145193977112918 -1.30777526318985 0.60571662466403 0.339244288350082 1.73768328700546 0.212354242290254 0.940889830373123 -1.72992035924372 -0.808182409307926 -1.31062070158746 3.86253028697763 -2.06824393602772
-0.0566035781648092 0.0101411969564556 0.0467909680224994 -1.08142008587275 0.0835759790449129 0.593043920843662 0.598275084631307 0.387091465005219 0.723299539201744 1.27626229647421 -0.0135088261361746 -0.514107495054821 -0.171812594380921 -0.425799145977697 -0.814346111730083 -2.08896830234558 -0.349173112295204 -3.10638929274359 -1.11855116720177 -0.247938548757065 -1.93303380443913 1.2921110823878 0.265228951467931 2.82753735821813 1.27079047755508 0.272902661996095 1.71811874472408 0.355334243615529 -0.0197542895965925 2.79776502744285 0.41139377663266 -0.470599309851581 1.09523744422878 -0.402583639094696 -0.091539966969924 -2.83075432083049 -0.308762847689493 0.351620801239389 -1.4929380467239 -0.339076395400445 0.829690961684579 1.07388804305553 -1.69362308623887 -0.0419860929186218 0.674485371147544 -0.761714885895909 -0.506208556006163 -0.941216360305803 2.6827249326171 0.340451163550082 -0.14957102087193 -0.701065421888065 -1.24672624995729 -0.266102868980671 0.992725814410621 1.51128877183033 0.0263764194754169 0.813965074438562 -0.162286919203077 0.362624088640156 -0.117906102038012 0.571498858820994 0.0303963371899463 0.455778707560655 0.625639835650993 0.148742611861619 -0.81971354391483 -0.798209362411292 0.130292642224464 -0.887263331019733 0.714847041928629 -0.335588695765165 0.399703233712165 -1.59024756620511 0.135449244058976
-0.0269202075129116 -0.0403593567894355 -0.0953691089285097 0.519997118021673 -0.310419151489748 -0.238644786964478 -1.51644743054631 -0.30215203065873 -0.134985160178277 -0.700853563097098 0.320096778785872 0.0989545104334097 1.40505932876292 0.436043187007437 0.00820747126851344 -0.508892014988353 -0.346289107370108 0.607109133416309 3.18538305410328 0.482960910350261 2.81687448469994 1.44827877923042 -0.0396201650126992 0.846669746853391 -2.22417971948508 -0.585225200172167 -1.68747069666477 0.135029640239973 -0.296529288062053 0.512110777371992 -0.377689716935683 -0.105962819807419 -1.27432599968443 -0.169892238422506 0.105628833679426 -1.39148905329296 0.259690026790981 -0.0143220656456761 0.409151775835046 -0.390844245239391 -0.353158320135 -0.232880376656851 0.296445727252509 0.472998662081321 -0.888560451894041 0.191438585996091 0.511243287613833 0.441212387240927 -1.18955805783015 -0.231585826884376 0.657830801919763 0.522285912872632 0.819564934228933 -0.166176482054717 -1.06083018818071 -1.15476179407488 -0.262407424317356 -0.0830062228789138 -0.29182725703146 -0.0598223405484481 0.195317093109853 -0.145196291104567 -0.022436977248233 -0.379262717036578 -0.140895094849603 -0.089803444792506 0.797963307965957 0.377709771529974 0.34140169989742 0.29880677006495 -0.214171754175385 0.084701864537201 -0.627319022257554 1.04622864376589 -0.279852093138149
0.0911332186600817 0.0586632878425256 -0.0358488728453364 0.104894784106354 0.0388418924881146 0.798112431872221 0.532170513866241 -0.287642788799675 0.63759468783983 -0.0904577902087821 -0.222463043363625 -0.819497571360931 -0.465052671869135 0.412036037870325 -0.797703883791096 -2.45914628816852 -0.287707066345478 0.642901956241705 2.07099115833535 -2.41727795171381 2.42530647429481 2.87612912596386 0.135240213480024 1.52288624086451 -1.70459192087508 1.95275055594898 -0.50931033325644 -0.116054137388332 0.0547855520593127 -0.550962697157252 -0.419623616487113 0.515428012955801 -1.36366921724899 -0.168987724797964 0.105995215690504 -0.993890266430391 0.483824029235305 -0.571332765642639 0.384084561412548 -1.15944865560466 0.232207776417567 -0.871967074889864 0.424212776147275 0.135996374528853 -1.20050375254987 1.34620115140152 -0.448248464514724 0.719388636204896 -1.46895069507089 -0.407478502762698 1.16775280030207 1.60066695637981 2.05748516041119 -0.623018083112774 -1.72978409084662 -1.96442412959738 -0.416748096198063 -0.746304729954877 0.619250390487976 0.153244354059489 1.86848603583342 -2.22741545114081 0.34653336204416 -1.12546383158762 -0.99399748137679 0.392074774576246 1.52553601841269 1.43714385141584 0.33684159368796 1.07810182184821 -1.48894332580732 -0.418042645970538 -2.34848169444069 3.56110613524757 -0.925559378588887
0.0972827800221612 0.0193717096439721 -0.0273120434321276 -0.44920208618426 -0.17811333653073 -0.109788619333623 -0.0352004409632742 -0.292444321471171 -0.125844893165069 0.35092866062618 0.399944660174202 0.22378150438314 0.0190274391086504 0.35426517947373 -0.0738325315418873 -3.69013919468448 -0.166750609093831 -2.27385469243268 1.60644370797623 -0.873650118149174 -1.8580532759292 1.80834127911522 0.148855226121866 1.45951963644047 -0.279992218188 0.509227286667262 1.77186145788028 0.617603599764499 -0.0751319664078439 3.56959205684451 -0.376074036544375 -0.281073109398226 3.1165785693043 -0.534197313440506 -0.0586733151396709 -2.57955484361974 0.413569957223371 0.352094655307049 -2.65830537874612 -0.761165441434383 -0.345410561874071 -1.12007248815583 -0.90835767889123 -0.262914188488468 -0.59756468919509 -0.267976687995924 0.428557166913019 1.24585644620748 1.86621215337309 0.35063092703402 0.938097099563068 0.205255687241937 0.772208323803365 -0.487468823192528 0.270476056086934 -0.647890150906213 0.553749514433094 -0.412320915953325 0.843519118668303 0.000202602824371549 0.577209018879963 -1.91464862656815 0.994248678025789 -0.0115144224449942 -0.797577385580955 0.237788867164563 -0.225140588811602 0.609376331011878 -0.681629948918657 0.644186221606852 -0.873558329813767 -0.212192519985014 -0.525255535488738 1.97978594882397 -1.30580142831332
-0.0125251225752031 -0.114680397679427 -0.185559247436567 0.368087937143608 -0.297072304768998 0.0848507313332811 -1.39929363290438 -0.244344662616119 -0.0749669016702214 -0.438053274419794 0.402954134868705 0.00107369212509593 1.15233261706389 0.364532874640327 0.00773438853140221 4.00018990728168 0.116473226986968 1.66717159058995 0.119573718686329 1.09636975747565 2.0347365656209 -0.597831826675448 -0.125331444129193 -0.543771068222612 -1.05387947148774 -0.925690504782326 -1.4623725310334 -0.818497669858417 -0.249487380500738 -2.06057511059304 0.352849787915145 -0.227084598906872 -2.74454167685673 0.585773616192959 -0.00987148837426556 1.28380128126637 -0.284660567784592 0.153265951314878 2.15109589279671 -0.0416837313431637 -0.472944411832663 -0.839467576401239 1.0771186325076 0.326388007858901 -0.855570901396212 0.837349759822116 0.58156163717157 0.7810801677853 -3.80524536682731 -0.100661464939758 0.179267504143171 -0.492538521785114 -0.870582279443081 0.75076996250673 -0.0020771931701748 0.739696998246312 0.886043343200389 0.185722769513091 -0.825969548892759 -0.66469641514209 -0.411927537373009 1.10278722764863 -0.628721044086613 0.160650669997111 0.670951905899653 -0.69503541676118 0.235480789049864 -0.728386721286789 -0.526624647214345 -0.236854785868952 0.8983033851767 0.901508263610445 0.519938239789717 -1.26117841335567 0.552768381973954
-0.128748181353906 0.0616676203333651 0.0955873954740572 1.12643287986815 0.0207498202259918 0.360739470997208 0.253980895172745 0.134385065010659 -0.337675659122302 -0.967993871667032 -0.0604697439897775 -0.303938175101508 0.101479589542741 -0.249291976761496 0.197707960703547 -1.61398474964985 -0.423068635831979 -1.28951375531699 1.40725736371921 0.510279381536969 0.0729449871894373 0.126529320472781 0.365863419838452 2.43852219482212 -0.220076546643046 -0.539900274414346 1.48540446124559 0.510724953484476 0.0797419519928463 1.3579639422835 0.214924315681648 0.0617825485852611 0.196743283296133 -0.467371805721713 0.0639718417953166 -2.41327808859357 -0.17464800548139 -0.0175261727488719 -1.04826598485766 0.494842486136883 0.46127083818426 0.765643529495397 -1.16848916386679 -0.13354560026247 1.10514415669814 -1.80853334042208 -0.480139897420052 -0.738276464484062 2.16480192244341 -0.159773924272356 -0.67487874972786 0.757406233445631 1.12298374676035 -0.249410247445774 -0.576155895569524 -1.52365962829561 -0.926551823896088 -0.203557217371634 0.470026725473566 0.117671874661106 0.320357745621833 -0.308337330336276 0.00398469361942928 -0.146278210755526 -0.66348156952641 0.0601409000654485 0.184847052229068 1.08297457404045 0.314306914570107 0.427327151796529 -0.696207324976263 -0.381295944365423 -0.615074921112603 0.819704545058417 -0.209420615099798
0.0128174568535158 -0.0464520968010251 -0.0180645614725191 1.46831511869799 0.332989826033252 0.718896527314227 -0.0910959376835158 -0.104584966335583 0.0533261946593979 -1.22335879095601 -0.330781763779822 -0.623476253459259 0.0175511124366435 0.0335760188257368 0.100462718768135 0.444100763039138 0.424338503026866 -0.172820980519481 -2.06885920069615 -0.86805077257917 -0.0360864426546249 0.351664767080718 -0.118755336973164 -0.673534577690024 0.215431594073126 0.92365727745348 -0.443786831505435 0.39140037456568 0.136595698365921 -1.49623677037452 -0.221914627342833 0.087421318945041 -0.856176395877678 -0.280716754684293 -0.00361908293890092 2.14703920832598 0.325310716191241 -0.126771004045001 1.31299331435815 -0.463598713783067 0.358215934548976 0.238799567294772 0.727077002013504 -0.0165134157371973 0.0230571270101419 1.81263990426836 -0.344300102992775 -0.488768772278851 -1.32278329880433 -0.108839882757569 -0.139174256393361 0.908814820796982 -0.389503415633937 0.391573923939348 -0.96290617536162 0.31454088483683 0.492448019000623 -1.18723789553684 0.412373880651066 -0.354201673258477 1.07411738533896 -0.39892573251813 0.261983449625238 -0.898177144076743 -0.0848260487556927 -0.233104576736613 0.872312116755736 0.105012540570266 -0.45757256530893 1.12335887051766 -0.243325477849864 0.445632368400536 -1.02426372081403 0.0565274735505783 -0.193207761166777
0.0207220523262048 -0.0173616222316158 -0.000299019143076284 0.0450163935379658 0.129415382279342 -0.527241968764238 -0.0125217801428213 0.103804122709166 -0.367753951015614 -0.148009076508913 -0.130280043825486 0.384332415629165 0.0582205441070334 -0.124340027262725 0.203752364000693 -1.42865664426799 -0.616161982967226 1.40237612689092 0.173642190444662 -0.456644654657716 0.611952575047669 0.090537494365578 0.376602397970877 -2.04029065979866 0.0480855177949749 0.341133019755962 -1.01068444648766 0.387860738673391 0.0288428774629756 1.73257707876686 -0.588912160199436 -0.263167184908749 2.91348723558465 -0.310712771318977 -0.0578595614098029 -0.501917387048344 0.333499932636746 0.281670890574195 -1.6184561528461 -0.807562516656201 -0.0391877056845356 -0.433264597257459 0.265904637029414 0.00202037181968481 -0.303077884428478 1.66353528126877 0.0163457798977427 0.0335191974752468 -0.0621970102005999 0.217168373360728 0.36302698029725 1.32031298416403 2.63034130388936 -1.67536543501875 -0.916339150308699 -2.24303643743208 -1.06521905900815 -0.551925574793383 1.27318263069969 1.07685252346798 0.813954018700683 -1.79863356992766 1.09788439356495 -0.985827548195026 -1.79201632514232 1.32824431909577 0.774408672751299 1.63548250339881 1.02150210033614 0.967010425216243 -2.05362130857787 -1.20398476732039 -1.15004639331476 2.55630077020926 -1.42195172491018
-0.163009655928087 0.0514112380148302 0.0939647731078023 0.91065778659025 -0.039387737407075 0.286420744098865 -0.156157155325104 0.0519933354696236 -0.191399505248242 -0.657335864817079 -0.0313227051800614 -0.12312312476558 0.50082698276134 -0.189490976358255 0.0626790917941236 2.96178641194187 -0.0579744896616989 0.650756672338851 -1.17049462329585 0.520919886469223 1.2669412810022 -1.650703426245 0.162203101283349 0.309388653875432 0.967918795493534 -0.531375529179748 -0.233034642766779 -0.26205724024782 0.0965320182871804 -1.38387576365785 1.52386068845888 0.0642245811054147 -2.70348812257262 0.234585017171551 0.00985888997528814 0.135545660377681 -1.36816581724319 -0.0802322611122328 1.63575812551521 1.23277853673837 0.319129273166443 0.900012139454331 -1.15467951881625 -0.13332628527619 1.35153618770318 -1.87021201649333 -0.360870854300829 -1.00281738910172 0.17525144308139 -0.0796738177942949 -1.2614383517509 -0.729631905904087 -0.777497337382232 0.709776314895309 0.685566305823642 0.272486657719657 -0.314356279725283 0.449878028855926 -0.286187802272875 -0.0288662744896479 -0.468323113399599 0.557993632227385 -0.593189959427727 0.709858333043754 0.257669654971297 -0.425542550014851 -0.603482337171912 0.072327922749727 0.0315865002280375 -0.625624923260366 0.841249607081085 -0.00760943298236088 0.526908753966795 -0.710659488374645 0.834375509222713
0.0733427366428672 -0.0502832956410764 -0.0975910551318332 -0.194651691955699 -0.122676010156973 0.0184975350210492 -0.496530671599857 -0.308982419785956 0.137886391485649 0.244675563421914 0.376036498457626 0.277106927711988 0.428924063144463 0.365927697384255 -0.232408836580839 -2.58676189916537 0.142458581873719 -1.83001206801748 -0.091703231936264 0.179893053218928 -3.92833018217559 0.694818672876731 -0.0345491808691966 -0.0013194894602472 0.559580002057806 -0.0563719218897346 2.21546419849454 -0.151957517592509 -0.0961296408504526 0.938007110998943 -0.18240861925148 -0.248386434696221 2.74327926585716 0.163189633056336 -0.137186023346578 0.170709334584756 0.118178381722035 0.323673952764909 -1.25491135263986 -0.706107095470682 -0.481503352721628 -1.38380840078985 -0.507546300289418 -0.111532340596171 -0.904746052147642 -0.0307226100124431 0.629452779668036 1.46043392025198 2.15409842551627 0.277998585827369 1.37703457590293 -0.521172368669138 -0.83244178353477 0.396474186921198 0.953996021962387 1.05243374092754 1.48341905641082 -0.143468767783561 0.0808210434317897 -0.536881543753246 -0.237346123429071 -0.115004356510275 0.0384734535955709 0.32166206558127 0.158098851428726 -0.349365687822431 -0.639069728960921 -0.5967987579593 -1.31372273594792 0.0726323412066507 0.421388677894867 0.677191198715674 0.704349233148057 -0.816337172988881 -0.100879751485306
-0.0489815467834709 -0.00875922972168774 0.0189775597331071 -0.427986896526653 0.0970752921043087 -0.649827990357087 0.256243979005383 -0.0731499040054577 -0.796709124492246 0.216892237023957 -0.019007641624543 0.586440302898029 -0.251756892087956 -0.118251915234433 0.640641957731266 4.7045658798888 0.530818628522909 3.23108670316098 -2.65985009672686 -0.183023626809725 3.41443711701356 -2.05751369964153 -0.434547834181873 -2.3508738475853 1.30962722783953 0.276815878984591 -2.92243801239283 -0.287021610597033 0.0365911499442713 -1.32193174987753 -0.0520221318101434 -0.272795704159879 -1.76563682034471 0.207881039322721 -0.0610963215062666 1.16603144762546 0.0285590278207088 0.345755603739942 1.58881212005224 0.197440309002823 -0.0760470215498976 -0.539385539827554 -0.59888520709607 -0.0252937284939085 -0.30433772432622 0.905119376133667 -2.05688146570101e-06 0.0286657285467421 -1.76709129265114 0.150633914369331 -0.587684459074595 -1.51571903739727 -0.621806322819292 -0.38969496272043 1.39258177157161 0.663073792775835 -0.158570648614921 0.739677200762205 0.43044204166615 0.573370878064965 -0.261535563686082 -0.529306049315069 0.275734216443816 0.908943632998771 -0.0682195591321724 0.466946031258313 -0.743941630260969 -0.247166961097244 0.310128102762352 -1.08138640443875 0.182301147194897 -0.446772652063084 0.886160328333751 0.0249664272306788 -0.0674086336143198
-0.10229102928096 0.0646123032616993 0.090879708019434 1.34200408477076 0.0904845296678362 0.451791185729211 0.264775151994561 0.0986151249915691 -0.162671813147346 -1.32803580273718 -0.103617203605971 -0.498235826334923 0.0515143391982985 -0.181192230974701 0.0695089667009838 -3.93528886928424 -0.768350642614443 -2.35235197402859 2.67112694936257 -0.224756209087699 -2.70582911079077 1.22040896582401 0.557227958101777 2.07340645139645 -0.969305647821783 -0.0486187643149579 2.72475319160577 0.913876806084072 0.0061763008211337 3.31652981635638 -0.999631022601162 -0.0109549506863236 4.16442829277534 -0.651657072200462 0.0785507605140222 -2.34546296377959 0.697089984235232 0.0490226844127849 -3.06597774258696 -0.42815633213739 0.527210344211703 0.64786264011661 -0.437771481658993 -0.0909702108039249 0.677557837836935 -0.651644473801484 -0.52583994693518 -0.512500556409742 1.98303787842124 -0.221373153296987 -0.148857540113515 2.06633823534975 2.81272421212252 -1.10541926459418 -1.38547113234469 -2.28043105669889 -1.13045408313359 -0.895686517731962 1.16574965486466 0.233092749668185 1.13380191482921 -1.20996283619027 0.596770732949329 -1.03182893084488 -1.52313229530984 0.47535070603735 0.823990057592205 1.57292373917043 0.407208022849958 1.36257907007217 -2.00487501761204 -0.718057833896588 -1.71377589661944 2.17077716310127 -1.18332159322614
-0.146457159443042 0.11859258622719 0.0082146703536434 -0.0996679911918248 -0.23986940276712 -0.848077682216663 -0.743342563534084 0.148659051052075 -0.0992882394512197 -0.154247083774018 0.261519879964906 0.694817644435999 0.959207388265924 -0.314432384339514 0.0520378155313194 -1.41191362913719 -0.432014013326312 1.8724103085598 0.56905759763139 0.340171941891114 2.38303318930154 1.78747318820495 0.51356396412751 -1.71099704975928 -1.78011135232903 -0.300139372144541 -2.1606315952717 0.925435451480579 -0.0555067461232242 -0.145907714981516 -0.806173864556669 -0.0338130744146588 0.29972233942737 -0.918889426215985 -0.0232098504589702 0.698643443962203 0.970521264768012 -0.0114442313649772 0.341254889982805 -2.12872679263684 -0.0497860445467432 -0.00566593710745664 2.02160389168277 -0.069909544366429 -0.394294921008287 4.02259860240976 -0.0146408822728598 -0.325407132509945 -3.00356655960374 -0.0318664932175561 0.148694789367541 1.22520767028349 2.11444766439176 -0.22058588191599 -1.27536292505333 -2.09181554051447 -0.761361873614358 -0.591568622612388 0.920652687852457 -0.0615074406892236 1.20866905774834 -1.87770703544416 0.388511484547103 -0.920792298681942 -1.35152744595695 0.117467472065452 1.04552364764352 1.57619700891291 0.440847547890949 0.683749565269062 -1.35741732603399 -0.171272405885991 -1.43822628528717 2.26129434576237 -0.54065772101409
0.0535185130764409 0.0949484766687738 0.049141212207246 -2.25646710207256 -0.0894429763156419 -0.414920557015787 2.03432853176015 -0.0183844065404356 -0.893771561087394 2.13060755362704 0.0633514349232246 0.32754757478519 -2.53834008125076 0.0422133783205818 1.35543449230105 2.81676392732116 0.148651080636395 1.85277660363913 -3.12472510545939 0.715084611737917 0.231871990518291 -2.8667934552114 -0.140442580927149 -2.24989947955257 2.0250815640209 -0.69733629579075 -1.10077534046499 -0.539028928003438 0.498577268658229 -1.95566361432478 0.15876425258288 0.416872537526738 -0.725642070080994 0.374236984285321 -0.320057698038023 1.87673618739235 0.121795664889653 -0.269688013375388 0.946297371746451 1.61696414245292 -0.0286873258021319 1.04378198326243 0.366051881602747 -0.234205779651312 1.33292038199786 -0.666224420960923 -0.239147694482842 -1.00449503304718 0.353150863939687 0.14416090839677 -1.74077143741603 -0.969456057278962 -1.4021604114472 0.374596167211269 1.21652557361677 1.52536452592049 -0.0362625631301255 0.567180436183755 -0.571579077198156 -0.403060835594739 -1.23383114582844 2.16871025433842 -0.254527511422255 0.77844710239902 1.00904562617986 -0.0373763644438026 -0.944757024638824 -1.04064601035779 0.160222581542062 -1.07799563534254 0.912253155277084 0.601610575038124 1.60420222139898 -2.68745473154748 0.664228731718826
-0.0335652201980419 -0.014991837672945 0.00350801133975307 -0.227512944472104 0.159300584425062 -0.69078101455956 0.223500740063071 0.000238341139838104 -0.690277078600464 0.107625037141889 -0.110716015764471 0.592371320604378 -0.19079426787696 -0.0998595382783182 0.528186334467178 3.11603863791956 0.269491066975047 3.40708119467185 -2.95270399471989 -0.563726417982476 3.69811243857609 -0.986511204172188 -0.13562562164466 -2.96750557085726 0.576591440219887 0.673511180663352 -3.12595306369442 0.0666969526271873 0.0530225475330238 -0.178109994098348 -0.290783132577434 -0.295847431856173 -0.091747969108143 -0.0566974233816818 -0.0654242572202848 0.675925702393901 0.156515052700136 0.337724252946929 0.510139256487118 -0.686615058260966 -0.0490260268451667 -0.394521692189881 0.0433451773470837 -0.0138340705179385 -0.198074599824808 3.18664932175561 -0.0617121003950609 -0.626117289261219 -2.31072043605262 0.186877708456082 -0.671686726803275 -0.216923861576492 0.942094134471291 -1.00860262533418 0.209143450322295 -0.984025205810706 -0.619521641731265 -0.120993224007846 1.27007159748281 0.968191075177556 0.738832336700168 -1.91280668921561 1.01145757680858 -0.173961007071846 -1.23869592760501 0.984351478633202 0.169831303309085 1.05442814461872 0.743038659297527 0.0872022610689438 -1.2185207486385 -0.908739230403117 -0.434190451027207 1.81805233073517 -0.950724551991189