23.6350206191224 0.280188374911915 -3.31179178544953 0.280188374911915 13.5552003241547 4.33334815857557 -3.31179178544953 4.33334815857557 -1.30174474803796
15.5669876620315 -2.56520288583952 -3.79037441340466 -2.56520288583952 22.5803985371559 0.480322928420425 -3.79037441340466 0.480322928420425 20.2188108057554
26.3150833356712 -2.0030858355504 0.676976880998353 -2.0030858355504 21.0036863156019 -0.595182759129657 0.676976880998353 -0.595182759129657 4.35945266555495
3.02116160774586 -2.43119975001208 -0.403749707947604 -2.43119975001208 -2.02048884020331 2.1649337788225 -0.403749707947604 2.1649337788225 -3.39532620778351
5.32880002472225 -0.812720317291082 -3.61112346547965 -0.812720317291082 18.2748951860249 1.33655075734379 -3.61112346547965 1.33655075734379 21.1637939584087
12.2203898672762 -2.61915220026355 -1.81687368576422 -2.61915220026355 29.2057224085202 -0.0452478120975763 -1.81687368576422 -0.0452478120975763 16.4023318853714
14.2861265195771 -3.16734684683034 -4.35597206462436 -3.16734684683034 15.479972638767 4.44646768881952 -4.35597206462436 4.44646768881952 22.6012821427394
13.6335138450928 -0.763991904262923 -2.85583306354318 -0.763991904262923 16.5606992277129 1.04592057964013 -2.85583306354318 1.04592057964013 10.0189097786826
20.3963214532152 -1.74900196761785 -0.106158328382775 -1.74900196761785 29.2213851127078 0.765732204728214 -0.106158328382775 0.765732204728214 6.57485515787089
7.15785581374351 -3.74686690177237 -3.87216853527335 -3.74686690177237 19.6479922531399 -0.612585763782571 -3.87216853527335 -0.612585763782571 20.7182770392941
19.9908314448023 -1.20080732105106 -2.63133430352059 -1.20080732105106 5.77953784523273 1.27912084198918 -2.63133430352059 1.27912084198918 -4.3072436515962
12.2395331723944 -0.983269762889639 -3.62678616966727 -0.983269762889639 19.1206812121566 2.27979360953173 -3.62678616966727 2.27979360953173 22.5055656171483
19.212917136817 -3.74860720223767 -1.2530163350098 -3.74860720223767 10.762018077362 1.51406140480351 -1.2530163350098 1.51406140480351 1.14511770616174
14.0216008488528 -2.3459250272128 -3.54673234826386 -2.3459250272128 26.1880414017049 0.941502551722645 -3.54673234826386 0.941502551722645 14.0337829521098
17.081049066835 -1.96479922531399 -3.14472294078155 -1.96479922531399 9.83095732843109 3.30483058358836 -3.14472294078155 3.30483058358836 8.87031147159024
6.7558464062612 -3.19693195474029 -5.83696776058734 -3.19693195474029 8.02800604638921 0.464660224232803 -5.83696776058734 0.464660224232803 9.1626819497592
11.9610850979478 -4.49867670277826 -1.37309706711491 -4.49867670277826 13.4037941836743 0.9101771433474 -1.37309706711491 0.9101771433474 -3.21433495939321
12.4622916319517 -1.09986989406416 -4.75624117164138 -1.09986989406416 26.1741189979826 0.670015679137187 -4.75624117164138 0.670015679137187 32.2060004106826
27.2896515962344 -1.26345813780155 -0.457699022371637 -1.26345813780155 31.426345802232 -0.710042589838889 -0.457699022371637 -0.710042589838889 9.66910938515899
20.2570974159918 -0.908436842882108 -5.02772804422684 -0.908436842882108 7.10390649931948 4.6518231437239 -5.02772804422684 4.6518231437239 -0.0156627041876226
18.78306292189 -4.45168859021539 -2.32852202255989 -4.45168859021539 21.7781200226565 0.877111434506863 -2.32852202255989 0.877111434506863 2.59130739281889
19.0928364047119 -1.86212149786179 -3.96266415946851 -1.86212149786179 0.727445594491803 1.11553259825178 -3.96266415946851 1.11553259825178 -9.38021950792062
18.4193401246441 -3.8216998217799 0.750069500540591 -3.8216998217799 0.464660224232803 2.14230987277371 0.750069500540591 2.14230987277371 -9.07566692649463
1.69157205226324 -3.56935625431265 -1.60629732946396 -3.56935625431265 8.50136777294847 0.891033838229194 -1.60629732946396 0.891033838229194 -1.73681986436081
66.2097312020111 -0.367203398176484 1.22865212849573 -0.367203398176484 51.4189175474996 -0.643911172157816 1.22865212849573 -0.643911172157816 20.1996675006372
11.2806276160188 -1.05810268289717 -1.44967028758773 -1.05810268289717 21.4631256384388 0.490764731212174 -1.44967028758773 0.490764731212174 16.7764964854091
19.2111768363517 -0.0626508167504902 -1.9004081080982 -0.0626508167504902 24.6095888796856 2.73401203097278 -1.9004081080982 2.73401203097278 5.19479688889482
16.071674796966 -1.90562900949408 -3.77123110828645 -1.90562900949408 10.0084679758908 5.77953784523273 -3.77123110828645 5.77953784523273 13.4647046999595
12.4779543361393 -2.39117283931038 -4.1262524032059 -2.39117283931038 10.3878534773243 2.30067721511523 -4.1262524032059 2.30067721511523 16.2613675476828
20.8714234802397 -3.42839191662405 -5.5620002870713 -3.42839191662405 5.91702158199074 3.11861843380218 -5.5620002870713 3.11861843380218 5.65771681266233
9.73524080284007 -1.24257453221806 -4.36119296602024 -1.24257453221806 24.7401114145825 0.363722797245902 -4.36119296602024 0.363722797245902 28.0884495098031
28.744542785218 0.609105162851988 -0.215797257696133 0.609105162851988 16.6947023635404 6.09627252991576 -0.215797257696133 6.09627252991576 -4.80496958466954
15.0675214284929 -1.81513338529893 -5.71514672801694 -1.81513338529893 6.15196214480508 3.96092385900322 -5.71514672801694 3.96092385900322 7.69386835705326
14.178227890729 -2.78970164586211 -1.45489118898361 -2.78970164586211 20.318007932277 0.520349839122127 -1.45489118898361 0.520349839122127 15.6801071922755
22.0287232896585 -0.645651472623108 -2.23454579743415 -0.645651472623108 10.5357790168741 6.24071746853494 -2.23454579743415 6.24071746853494 0.991971265216095
9.84313943168813 -2.37028923372688 -6.99426757000612 -2.37028923372688 21.3830718170354 0.913657744277983 -6.99426757000612 0.913657744277983 31.6717281678381
34.6546031653476 -0.530791641913876 -0.370683999107067 -0.530791641913876 25.3718404834833 0.563857350754412 -0.370683999107067 0.563857350754412 22.8884317195124
28.0205777916568 0.372424299572359 0.424633313531101 0.372424299572359 26.224587711476 4.07578368971245 0.424633313531101 4.07578368971245 -2.19451888673245
10.7272120680562 -3.26480367288666 0.83534422333987 -3.26480367288666 -3.81299831945345 2.2850145109276 0.83534422333987 2.2850145109276 -10.4522445945401
16.4719439039831 -4.77712477722488 -4.33334815857557 -4.77712477722488 27.5019682529999 1.71071535738144 -4.33334815857557 1.71071535738144 20.4085035564722
-2.26065030441352 -2.64351640677763 -1.80643188297247 -2.64351640677763 7.8069878872972 0.958905556375559 -1.80643188297247 0.958905556375559 7.50243530587121
11.9349805909684 -2.49733116769315 -5.61420930103004 -2.49733116769315 1.66024664388799 0.958905556375559 -5.61420930103004 0.958905556375559 -4.99118173445572
34.884322826766 -2.15449197603075 0.683938082859519 -2.15449197603075 30.2690459928132 -1.25127603454451 0.683938082859519 -1.25127603454451 4.87980250467707
23.3548322442105 -2.99505710076649 -3.72250269525829 -2.99505710076649 5.02424744329626 3.47538002918692 -3.72250269525829 3.47538002918692 3.35181869615123
13.8719350088377 -3.22477676218496 -7.4032381793496 -3.22477676218496 12.3021839891449 2.2241039946424 -7.4032381793496 2.2241039946424 17.2254940054542
0.779654608450545 -1.77684677506251 -1.79599008018072 -1.77684677506251 11.783574450488 1.03895937777896 -1.79599008018072 1.03895937777896 17.9355365952931
0.769212805658797 -1.38353886990666 -2.11794566625963 -1.38353886990666 5.83522746012205 1.81513338529893 -2.11794566625963 1.81513338529893 11.2406007053171
21.2455880802774 -1.31218655082971 0.147925539549769 -1.31218655082971 15.1197304424516 0.219277858626716 0.147925539549769 0.219277858626716 11.4738009676662
25.2587209532393 -0.784875509846419 -0.328916787940074 -0.784875509846419 16.3901497821144 0.652612674484273 -0.328916787940074 0.652612674484273 21.1028834421235
51.5929475940287 -0.415931811204644 0.442036318184014 -0.415931811204644 41.441774979984 -0.106158328382775 0.442036318184014 -0.106158328382775 20.4746349741533