10.370369 0.000000 0.000000 0.000000 6.327398 0.000000 0.000000 0.000000 4.999999
10.236276 0.000000 0.000000 0.000000 6.324130 0.000000 0.000000 0.000000 5.149999
10.370369 0.000000 0.000000 0.000000 6.327398 0.000000 0.000000 0.000000 4.999999
10.236276 0.000000 0.000000 0.000000 6.324130 0.000000 0.000000 0.000000 5.174999
10.163144 0.000000 0.000000 0.000000 6.432490 0.000000 0.000000 0.000000 5.174999
10.255919 0.000000 0.000000 0.000000 6.387795 0.000000 0.000000 0.000000 5.174999
10.255919 0.000000 0.000000 0.000000 6.387795 0.000000 0.000000 0.000000 5.199999
10.199197 0.000000 0.000000 0.000000 6.295804 0.000000 0.000000 0.000000 5.199999
10.455794 0.000000 0.000000 0.000000 6.028800 0.000000 0.000000 0.000000 5.199999
10.370369 0.000000 0.000000 0.000000 6.327398 0.000000 0.000000 0.000000 4.999999
10.624944 0.000000 0.000000 0.000000 6.162714 0.000000 0.000000 0.000000 5.224999
10.080974 0.000000 0.000000 0.000000 6.576511 0.000000 0.000000 0.000000 5.224999
10.080974 0.000000 0.000000 0.000000 6.576511 0.000000 0.000000 0.000000 5.249999
10.370369 0.000000 0.000000 0.000000 6.327398 0.000000 0.000000 0.000000 5.024999
10.476036 0.000000 0.000000 0.000000 6.163330 0.000000 0.000000 0.000000 5.249999
10.564929 0.000000 0.000000 0.000000 6.171895 0.000000 0.000000 0.000000 5.249999
10.564929 0.000000 0.000000 0.000000 6.171895 0.000000 0.000000 0.000000 5.274999
10.115807 0.000000 0.000000 0.000000 6.277714 0.000000 0.000000 0.000000 5.274999
10.268100 0.000000 0.000000 0.000000 6.337609 0.000000 0.000000 0.000000 5.274999
10.268100 0.000000 0.000000 0.000000 6.337609 0.000000 0.000000 0.000000 5.299999
10.051509 0.000000 0.000000 0.000000 6.386642 0.000000 0.000000 0.000000 5.299999
9.993315 0.000000 0.000000 0.000000 6.791700 0.000000 0.000000 0.000000 5.299999
9.993315 0.000000 0.000000 0.000000 6.791700 0.000000 0.000000 0.000000 5.324999
9.357904 0.000000 0.000000 0.000000 8.378964 0.000000 0.000000 0.000000 5.324999
10.349274 0.000000 0.000000 0.000000 6.324642 0.000000 0.000000 0.000000 5.024999
8.811768 0.000000 0.000000 0.000000 8.828582 0.000000 0.000000 0.000000 5.324999
8.811768 0.000000 0.000000 0.000000 8.828582 0.000000 0.000000 0.000000 5.349999
9.006087 0.000000 0.000000 0.000000 8.594404 0.000000 0.000000 0.000000 5.349999
8.785420 0.000000 0.000000 0.000000 8.854777 0.000000 0.000000 0.000000 5.349999
8.785420 0.000000 0.000000 0.000000 8.854777 0.000000 0.000000 0.000000 5.374999
8.987850 0.000000 0.000000 0.000000 8.620821 0.000000 0.000000 0.000000 5.374999
8.803097 0.000000 0.000000 0.000000 8.832572 0.000000 0.000000 0.000000 5.374999
8.803097 0.000000 0.000000 0.000000 8.832572 0.000000 0.000000 0.000000 5.399999
9.145393 0.000000 0.000000 0.000000 8.423915 0.000000 0.000000 0.000000 5.399999
8.781594 0.000000 0.000000 0.000000 8.848927 0.000000 0.000000 0.000000 5.399999
10.328732 0.000000 0.000000 0.000000 6.319968 0.000000 0.000000 0.000000 5.024999
8.781594 0.000000 0.000000 0.000000 8.848927 0.000000 0.000000 0.000000 5.424999
9.088608 0.000000 0.000000 0.000000 8.430450 0.000000 0.000000 0.000000 5.424999
8.955216 0.000000 0.000000 0.000000 8.659262 0.000000 0.000000 0.000000 5.424999
8.955216 0.000000 0.000000 0.000000 8.659262 0.000000 0.000000 0.000000 5.449999
9.004121 0.000000 0.000000 0.000000 8.625996 0.000000 0.000000 0.000000 5.474999
8.758523 0.000000 0.000000 0.000000 8.772153 0.000000 0.000000 0.000000 5.474999
9.010297 0.000000 0.000000 0.000000 8.577692 0.000000 0.000000 0.000000 5.474999
9.010297 0.000000 0.000000 0.000000 8.577692 0.000000 0.000000 0.000000 5.499999
10.328732 0.000000 0.000000 0.000000 6.319968 0.000000 0.000000 0.000000 5.049999
8.918486 0.000000 0.000000 0.000000 8.862479 0.000000 0.000000 0.000000 5.499999
8.916686 0.000000 0.000000 0.000000 8.657821 0.000000 0.000000 0.000000 5.499999
8.916686 0.000000 0.000000 0.000000 8.657821 0.000000 0.000000 0.000000 5.524999
9.314138 0.000000 0.000000 0.000000 8.360947 0.000000 0.000000 0.000000 5.524999
9.157564 0.000000 0.000000 0.000000 8.682388 0.000000 0.000000 0.000000 5.524999
9.157564 0.000000 0.000000 0.000000 8.682388 0.000000 0.000000 0.000000 5.549999
8.888852 0.000000 0.000000 0.000000 8.373028 0.000000 0.000000 0.000000 5.549999
8.923411 0.000000 0.000000 0.000000 8.552411 0.000000 0.000000 0.000000 5.549999
8.923411 0.000000 0.000000 0.000000 8.552411 0.000000 0.000000 0.000000 5.574999
9.031537 0.000000 0.000000 0.000000 8.348496 0.000000 0.000000 0.000000 5.574999
10.490992 0.000000 0.000000 0.000000 6.415686 0.000000 0.000000 0.000000 5.049999
9.099068 0.000000 0.000000 0.000000 8.265866 0.000000 0.000000 0.000000 5.574999
9.099068 0.000000 0.000000 0.000000 8.265866 0.000000 0.000000 0.000000 5.599999
8.965558 0.000000 0.000000 0.000000 8.469653 0.000000 0.000000 0.000000 5.599999
8.842427 0.000000 0.000000 0.000000 8.631769 0.000000 0.000000 0.000000 5.599999
8.719067 0.000000 0.000000 0.000000 8.587190 0.000000 0.000000 0.000000 5.624999
8.697787 0.000000 0.000000 0.000000 8.481656 0.000000 0.000000 0.000000 5.624999
8.697787 0.000000 0.000000 0.000000 8.481656 0.000000 0.000000 0.000000 5.649999
10.386498 0.000000 0.000000 0.000000 6.355734 0.000000 0.000000 0.000000 5.049999
8.728375 0.000000 0.000000 0.000000 8.554487 0.000000 0.000000 0.000000 5.674999
8.778106 0.000000 0.000000 0.000000 8.589468 0.000000 0.000000 0.000000 5.724999
8.750149 0.000000 0.000000 0.000000 8.508259 0.000000 0.000000 0.000000 5.724999
8.750149 0.000000 0.000000 0.000000 8.508259 0.000000 0.000000 0.000000 5.749999
10.386498 0.000000 0.000000 0.000000 6.355734 0.000000 0.000000 0.000000 5.074999
8.800826 0.000000 0.000000 0.000000 8.458799 0.000000 0.000000 0.000000 5.749999
8.607144 0.000000 0.000000 0.000000 8.481848 0.000000 0.000000 0.000000 5.774999
10.189828 0.000000 0.000000 0.000000 6.303766 0.000000 0.000000 0.000000 5.074999
8.588685 0.000000 0.000000 0.000000 8.224658 0.000000 0.000000 0.000000 5.849999
8.912284 0.000000 0.000000 0.000000 8.226843 0.000000 0.000000 0.000000 5.849999
8.912284 0.000000 0.000000 0.000000 8.226843 0.000000 0.000000 0.000000 5.874999
8.840000 0.000000 0.000000 0.000000 8.408800 0.000000 0.000000 0.000000 5.899999
8.495776 0.000000 0.000000 0.000000 8.627732 0.000000 0.000000 0.000000 5.899999
10.306519 0.000000 0.000000 0.000000 6.410853 0.000000 0.000000 0.000000 5.074999
8.495776 0.000000 0.000000 0.000000 8.627732 0.000000 0.000000 0.000000 5.924999
8.429432 0.000000 0.000000 0.000000 8.661048 0.000000 0.000000 0.000000 5.924999
10.306519 0.000000 0.000000 0.000000 6.410853 0.000000 0.000000 0.000000 5.099999
8.396857 0.000000 0.000000 0.000000 8.753101 0.000000 0.000000 0.000000 6.024999
8.396857 0.000000 0.000000 0.000000 8.753101 0.000000 0.000000 0.000000 6.049999
8.516153 0.000000 0.000000 0.000000 8.437317 0.000000 0.000000 0.000000 6.049999
10.417780 0.000000 0.000000 0.000000 6.346723 0.000000 0.000000 0.000000 5.099999
8.402114 0.000000 0.000000 0.000000 8.611887 0.000000 0.000000 0.000000 6.099999
8.402114 0.000000 0.000000 0.000000 8.611887 0.000000 0.000000 0.000000 6.124998
8.487975 0.000000 0.000000 0.000000 8.491104 0.000000 0.000000 0.000000 6.149998
10.409132 0.000000 0.000000 0.000000 6.215168 0.000000 0.000000 0.000000 5.099999
8.487975 0.000000 0.000000 0.000000 8.491104 0.000000 0.000000 0.000000 6.174998
10.409132 0.000000 0.000000 0.000000 6.215168 0.000000 0.000000 0.000000 5.124999
10.281767 0.000000 0.000000 0.000000 6.263100 0.000000 0.000000 0.000000 5.124999
10.371250 0.000000 0.000000 0.000000 6.369804 0.000000 0.000000 0.000000 5.124999
10.371250 0.000000 0.000000 0.000000 6.369804 0.000000 0.000000 0.000000 5.149999
10.234094 0.000000 0.000000 0.000000 6.273665 0.000000 0.000000 0.000000 5.149999