0.0179929 -0.0543348 -0.0265353 5.20318 -0.0543348 2.47346 0.0179929 3.10936 -0.0265353 3.02357 4.66107 4.91566 2.30235 1.58202 2.44844 7.38278 1.55766 0.0312701 8.10401 4.63671 2.49849 1.1366 4.70358 2.19463 4.04106 1.52202 4.71634 9.26975 1.51514 2.75229 6.3653 4.69671 0.230586 1.2305 4.69444 3.74008 3.89858 1.47616 1.25397 9.17585 1.52429 1.20685 6.50777 4.74257 3.69295 4.86993 4.6967 0.645109 0.400506 1.5277 3.21477 5.53642 1.52203 4.30182 10.0058 4.69103 1.73215 1.83803 5.93458 1.52119 3.347 0.277635 4.01673 8.56479 2.75073 3.42852 7.14497 3.48327 0.862902 8.56832 0.28415 3.42574 7.05935 5.94109 0.930202 1.84157 3.468 1.51841 3.26139 2.73546 4.08403
0.0850394 -0.0527005 -0.0265349 5.20318 -0.0527005 2.54846 0.0850394 3.10936 -0.0265349 3.08086 4.71598 5.01018 2.27956 1.62359 2.46014 7.32549 1.50275 0.0867533 8.1268 4.59514 2.63679 1.20207 4.70646 2.27243 3.98223 1.65652 4.87333 9.20429 1.51227 2.8245 6.42412 4.56221 0.223594 1.2213 4.66928 3.85321 3.78204 1.51563 1.23398 9.18506 1.54945 1.24372 6.62432 4.7031 3.86295 4.85711 4.64298 0.574566 0.540198 1.39134 3.31383 5.54925 1.57575 4.52236 9.86616 4.82739 1.7831 1.93754 5.92815 1.67781 3.37452 0.297728 4.18173 8.58056 2.75537 3.46361 7.26961 3.41714 0.792543 8.46882 0.29058 3.41911 7.03183 5.921 0.915197 1.82579 3.46336 1.63332 3.13674 2.80159 4.30439
0.0179929 -0.0543348 -0.0265353 5.20318 -0.0543348 2.47346 0.0179929 3.10936 -0.0265353 3.02357 4.66107 4.91566 2.30235 1.58202 2.44844 7.38278 1.55766 0.0312701 8.10401 4.63671 2.49849 1.1366 4.70358 2.19463 4.04106 1.52202 4.71634 9.26975 1.51514 2.75229 6.3653 4.69671 0.230586 1.2305 4.69444 3.74008 3.89858 1.47616 1.25397 9.17585 1.52429 1.20685 6.50777 4.74257 3.69295 4.86993 4.6967 0.645109 0.400506 1.5277 3.21477 5.53642 1.52203 4.30182 10.0058 4.69103 1.73215 1.83803 5.93458 1.52119 3.347 0.277635 4.01673 8.56479 2.75073 3.42852 7.14497 3.48327 0.862902 8.56832 0.28415 3.42574 7.05935 5.94109 0.930202 1.84157 3.468 1.51841 3.26139 2.73546 4.08403
0.0850394 -0.0527005 -0.0265349 5.20318 -0.0527005 2.56096 0.0850394 3.10936 -0.0265349 3.08086 4.71598 5.03463 2.27956 1.62359 2.47221 7.32549 1.50275 0.0873034 8.1268 4.59514 2.64972 1.20207 4.70646 2.28359 3.98223 1.65652 4.89712 9.20429 1.51227 2.83834 6.42412 4.56221 0.224809 1.2213 4.66928 3.87204 3.78204 1.51563 1.2401 9.18506 1.54945 1.24989 6.62432 4.7031 3.88183 4.85711 4.64298 0.577484 0.540198 1.39134 3.33005 5.54925 1.57575 4.54444 9.86616 4.82739 1.79188 1.93754 5.92815 1.68609 3.37452 0.297728 4.20216 8.58056 2.75537 3.48055 7.26961 3.41714 0.796519 8.46882 0.29058 3.43584 7.03183 5.921 0.919769 1.82579 3.46336 1.64138 3.13674 2.80159 4.32541
0.121605 -0.10688 -0.0265349 5.20318 -0.10688 2.56096 0.121605 3.10936 -0.0265349 3.06485 4.67277 5.02302 2.32271 1.64484 2.59656 7.34151 1.54595 0.0989117 8.08365 4.57388 2.52537 1.28625 4.84489 2.30932 4.0465 1.41246 4.92447 9.1201 1.37384 2.81261 6.35985 4.80627 0.19746 1.29881 4.66724 3.93194 3.95326 1.4378 1.31077 9.10754 1.55148 1.18999 6.4531 4.78093 3.81116 4.88254 4.7287 0.66829 0.349209 1.45362 3.40183 5.52381 1.49003 4.45364 10.0571 4.76511 1.7201 1.96256 6.0955 1.78355 3.33034 0.101036 4.22135 8.31138 2.60341 3.56021 7.14827 3.63627 0.848025 8.44379 0.12323 3.33838 7.07601 6.11769 0.90058 2.09497 3.61532 1.56172 3.25808 2.58246 4.2739
0.0752177 -0.0845328 -0.0265349 5.20318 -0.0845328 2.56096 0.0752177 3.10936 -0.0265349 2.99819 4.5493 5.11664 2.28289 1.42667 2.62646 7.40817 1.66943 0.00528591 8.12346 4.79206 2.49547 1.20212 4.61819 2.29144 4.03411 1.49564 4.95969 9.20424 1.60054 2.83049 6.37224 4.72309 0.162242 1.25697 4.73934 3.84768 3.95165 1.35693 1.32456 9.14939 1.47939 1.27425 6.4547 4.8618 3.79737 4.83104 4.79859 0.578445 0.518736 1.48449 3.28695 5.57532 1.42014 4.54348 9.88762 4.73424 1.83498 1.94778 5.85395 1.62205 3.30382 0.292082 4.12505 8.62981 2.86886 3.41218 7.20054 3.50629 0.774375 8.45857 0.364782 3.49988 7.10254 5.92665 0.996876 1.77655 3.34987 1.70974 3.20582 2.71244 4.34755
0.0752177 -0.0845328 -0.0265348 5.20318 -0.0845328 2.57346 0.0752177 3.10936 -0.0265348 2.99819 4.5493 5.14149 2.28289 1.42667 2.63927 7.40817 1.66943 0.0054397 8.12346 4.79206 2.50766 1.20212 4.61819 2.30264 4.03411 1.49564 4.98378 9.20424 1.60054 2.84429 6.37224 4.72309 0.163154 1.25697 4.73934 3.86639 3.95165 1.35693 1.33108 9.14939 1.47939 1.28054 6.4547 4.8618 3.81585 4.83104 4.79859 0.581368 0.518736 1.48449 3.30296 5.57532 1.42014 4.56556 9.88762 4.73424 1.84397 1.94778 5.85395 1.63001 3.30382 0.292082 4.14511 8.62981 2.86886 3.4288 7.20054 3.50629 0.778244 8.45857 0.364782 3.51692 7.10254 5.92665 1.00182 1.77655 3.34987 1.71813 3.20582 2.71244 4.36868
0.103579 -0.0385377 -0.0265348 5.20318 -0.0385377 2.57346 0.103579 3.10936 -0.0265348 3.00139 4.78419 5.07804 2.39335 1.63001 2.72514 7.40496 1.43453 0.0688877 8.013 4.58872 2.42179 1.22524 4.62148 2.27496 4.06404 1.56293 5.01872 9.18112 1.59725 2.87197 6.34232 4.6558 0.128211 1.32551 4.62605 3.88614 3.95907 1.46882 1.34331 9.08084 1.59268 1.26078 6.44728 4.74991 3.80362 4.84674 4.68167 0.511889 0.426706 1.51347 3.37418 5.55962 1.53706 4.63504 9.97965 4.70526 1.77275 1.98726 5.74311 1.58502 3.3237 0.355 4.18218 8.49562 2.89116 3.45215 7.12858 3.43647 0.778335 8.41909 0.475615 3.56191 7.08265 5.86373 0.964746 1.91073 3.32757 1.69478 3.27778 2.78226 4.36859
-0.0247193 0.0949636 -0.0265348 5.20318 0.0949636 2.57346 -0.0247193 3.10936 -0.0265348 3.00315 4.5746 4.94859 2.31934 1.68154 2.42284 7.40321 1.64413 0.198338 8.08701 4.53719 2.72409 1.09438 4.66015 2.30463 4.1794 1.58921 4.79357 9.31198 1.55858 2.8423 6.22696 4.62951 0.353357 1.20514 4.6915 3.77558 3.9971 1.54498 1.13172 9.20121 1.52722 1.37135 6.40926 4.67375 4.01521 4.78511 4.45668 0.798425 0.284545 1.43204 3.33156 5.62124 1.76205 4.3485 10.1218 4.78669 1.81537 1.92717 5.84717 1.70104 3.43611 0.333705 4.14146 8.6828 2.81843 3.61015 7.01317 3.41272 0.978028 8.47919 0.371557 3.44589 6.97025 5.88502 1.00547 1.72356 3.4003 1.53678 3.39318 2.80601 4.1689
0.0179929 -0.0543348 -0.0265353 5.20318 -0.0543348 2.47346 0.0179929 3.10936 -0.0265353 3.02357 4.66107 4.91566 2.30235 1.58202 2.44844 7.38278 1.55766 0.0312701 8.10401 4.63671 2.49849 1.1366 4.70358 2.19463 4.04106 1.52202 4.71634 9.26975 1.51514 2.75229 6.3653 4.69671 0.230586 1.2305 4.69444 3.74008 3.89858 1.47616 1.25397 9.17585 1.52429 1.20685 6.50777 4.74257 3.69295 4.86993 4.6967 0.645109 0.400506 1.5277 3.21477 5.53642 1.52203 4.30182 10.0058 4.69103 1.73215 1.83803 5.93458 1.52119 3.347 0.277635 4.01673 8.56479 2.75073 3.42852 7.14497 3.48327 0.862902 8.56832 0.28415 3.42574 7.05935 5.94109 0.930202 1.84157 3.468 1.51841 3.26139 2.73546 4.08403
-0.109294 0.0280069 -0.0265347 5.20318 0.0280069 2.58596 -0.109294 3.10936 -0.0265347 3.0625 4.67867 4.89145 2.20235 1.50641 2.26806 7.34385 1.54006 0.280478 8.204 4.71232 2.90387 1.01467 4.61615 2.28484 4.06148 1.63931 4.8593 9.39168 1.60258 2.88709 6.34488 4.57942 0.312632 1.04308 4.63038 3.7986 3.89947 1.54231 1.1926 9.36328 1.58834 1.37333 6.50689 4.67641 3.97932 4.83847 4.64515 0.802537 0.283963 1.3227 3.40752 5.56788 1.57358 4.36939 10.1224 4.89603 1.76441 1.734 5.77164 1.62012 3.26435 0.462697 4.24224 8.81846 2.90025 3.55064 6.99012 3.26838 1.00695 8.67236 0.447088 3.55181 7.14201 5.75603 0.929689 1.58789 3.31848 1.62129 3.41624 2.95035 4.16497
0.16269 -0.178891 -0.0265347 5.20318 -0.178891 2.58596 0.16269 3.10936 -0.0265347 3.13346 4.95162 4.98023 2.39073 1.8549 2.80303 7.27289 1.26711 0.191698 8.01562 4.36383 2.36889 1.19791 4.67463 2.23083 3.96636 1.51175 5.00285 9.20844 1.5441 2.9411 6.43999 4.70698 0.169075 1.41415 4.85154 3.75376 3.8104 1.40201 1.39181 8.99221 1.36719 1.41817 6.59595 4.81672 3.78012 4.90954 4.73939 0.456335 0.558186 1.26077 3.45422 5.49681 1.47934 4.71559 9.84817 4.95796 1.71771 2.06664 5.61968 1.3727 3.2941 0.41437 4.17287 8.81644 3.06875 3.48515 6.99813 3.41246 0.775794 8.33971 0.599047 3.79923 7.11225 5.80436 0.999057 1.58992 3.14998 1.68678 3.40822 2.80627 4.39614
0.16269 -0.178891 -0.0265347 5.20318 -0.178891 2.59846 0.16269 3.10936 -0.0265347 3.13346 4.95162 5.00419 2.39073 1.8549 2.81657 7.27289 1.26711 0.192742 8.01562 4.36383 2.38036 1.19791 4.67463 2.24163 3.96636 1.51175 5.02692 9.20844 1.5441 2.9553 6.43999 4.70698 0.170011 1.41415 4.85154 3.77185 3.8104 1.40201 1.3986 8.99221 1.36719 1.42508 6.59595 4.81672 3.79833 4.90954 4.73939 0.458645 0.558186 1.26077 3.47088 5.49681 1.47934 4.73828 9.84817 4.95796 1.72605 2.06664 5.61968 1.37939 3.2941 0.41437 4.19297 8.81644 3.06875 3.50196 6.99813 3.41246 0.779633 8.33971 0.599047 3.81754 7.11225 5.80436 1.00396 1.58992 3.14998 1.69497 3.40822 2.80627 4.4173
0.0179929 -0.0543348 -0.0265353 5.20318 -0.0543348 2.48596 0.0179929 3.10936 -0.0265353 3.02357 4.66107 4.94037 2.30235 1.58202 2.46082 7.38278 1.55766 0.0315592 8.10401 4.63671 2.51111 1.1366 4.70358 2.20574 4.04106 1.52202 4.74006 9.26975 1.51514 2.76619 6.3653 4.69671 0.231872 1.2305 4.69444 3.75891 3.89858 1.47616 1.26038 9.17585 1.52429 1.21302 6.50777 4.74257 3.71155 4.86993 4.6967 0.648467 0.400506 1.5277 3.23098 5.53642 1.52203 4.32346 10.0058 4.69103 1.74095 1.83803 5.93458 1.52893 3.347 0.277635 4.03694 8.56479 2.75073 3.4458 7.14497 3.48327 0.867349 8.56832 0.28415 3.443 7.05935 5.94109 0.934986 1.84157 3.468 1.52613 3.26139 2.73546 4.10458
-0.03484 0.027699 -0.0265346 5.20318 0.027699 2.59846 -0.03484 3.10936 -0.0265346 3.13452 4.4362 5.09572 2.30495 1.71893 2.31766 7.27183 1.78253 0.101205 8.1014 4.49979 2.87927 1.12442 4.66809 2.25028 4.00404 1.51977 4.93598 9.28194 1.55064 2.94665 6.40232 4.69896 0.260952 1.26639 4.68989 3.82543 3.93068 1.45773 1.25376 9.13997 1.52884 1.3715 6.47568 4.761 3.94317 4.87005 4.47319 0.781025 0.34042 1.69838 3.41662 5.5363 1.74554 4.4159 10.0659 4.52034 1.78031 1.60018 5.976 1.59618 3.55301 0.186293 4.28148 8.42895 2.64748 3.6273 7.31693 3.64515 0.913947 8.80617 0.242732 3.60075 6.85334 6.03244 0.915453 1.9774 3.57125 1.56963 3.08943 2.57358 4.28298
-0.0792859 0.0234168 -0.0265348 5.20318 0.0234164 2.59846 -0.0792859 3.10936 -0.0265345 3.14461 4.60098 5.07255 2.25251 1.4808 2.52517 7.26175 1.61775 0.124383 8.15384 4.73793 2.67176 1.03919 4.58002 2.28757 3.93264 1.45905 4.93896 9.36717 1.63871 2.90936 6.47372 4.75967 0.257973 1.14531 4.73857 3.8725 3.72277 1.4354 1.25243 9.26105 1.48016 1.32443 6.68359 4.78333 3.9445 4.90136 4.77468 0.556591 0.295117 1.70658 3.36032 5.505 1.44404 4.64034 10.1112 4.51215 1.83661 1.58612 5.86101 1.65938 3.35474 0.271343 4.12744 8.54448 2.76176 3.56871 7.15217 3.47718 0.830314 8.82023 0.357715 3.53755 7.05161 5.94738 1.06949 1.86188 3.45696 1.62822 3.25419 2.74155 4.36662
-0.0792859 0.0234168 -0.0265347 5.20318 0.0234164 2.61096 -0.0792859 3.10936 -0.0265344 3.14461 4.60098 5.09683 2.25251 1.4808 2.53732 7.26175 1.61775 0.125102 8.15384 4.73793 2.68461 1.03919 4.58002 2.29858 3.93264 1.45905 4.9626 9.36717 1.63871 2.92334 6.47372 4.75967 0.259328 1.14531 4.73857 3.89107 3.72277 1.4354 1.25852 9.26105 1.48016 1.33086 6.68359 4.78333 3.96341 4.90136 4.77468 0.559368 0.295117 1.70658 3.37645 5.505 1.44404 4.66256 10.1112 4.51215 1.84548 1.58612 5.86101 1.66741 3.35474 0.271343 4.14722 8.54448 2.76176 3.58583 7.15217 3.47718 0.834394 8.82023 0.357715 3.55452 7.05161 5.94738 1.07471 1.86188 3.45696 1.6361 3.25419 2.74155 4.38754
0.145274 -0.0294929 -0.0265345 5.20318 -0.0294941 2.61096 0.145274 3.10936 -0.0265341 3.08684 4.81939 5.11985 2.35815 1.5548 2.54933 7.31952 1.39934 0.102083 8.0482 4.66393 2.6726 1.24245 4.70158 2.36744 4.11214 1.69387 4.94095 9.1639 1.51715 2.85449 6.29421 4.52486 0.280977 1.28347 4.82417 3.88691 4.01197 1.70996 1.31062 9.12289 1.39456 1.33502 6.39438 4.50877 3.91131 4.81668 4.68021 0.692923 0.481205 1.32691 3.45083 5.58968 1.53852 4.52901 9.92515 4.89182 1.7711 2.06236 5.88241 1.61007 3.36256 0.476552 4.35398 8.51299 2.81811 3.45103 7.11276 3.25004 0.869901 8.344 0.336316 3.61186 7.0438 5.74218 0.867948 1.89336 3.40062 1.7709 3.29359 2.96869 4.35203
0.0691262 -0.0594416 -0.0265336 5.20318 -0.0594396 2.61096 0.0691289 3.10936 -0.0265348 3.06651 4.50631 5.01613 2.28356 1.64255 2.57718 7.33985 1.71242 0.205797 8.12279 4.57618 2.64475 1.19551 4.70936 2.33636 4.05401 1.40239 5.01583 9.21084 1.50937 2.88557 6.35234 4.81634 0.206097 1.28869 4.79396 3.88775 3.80482 1.45369 1.20682 9.11767 1.42477 1.33418 6.60153 4.76504 4.01511 4.84327 4.57051 0.720153 0.394594 1.54361 3.45462 5.56309 1.64822 4.50178 10.0118 4.67512 1.76731 1.89402 6.05818 1.81886 3.46357 0.187066 4.22899 8.57385 2.76027 3.56815 7.18695 3.67624 0.919257 8.51233 0.160548 3.40307 6.94279 6.03166 0.992939 1.8325 3.45846 1.65378 3.21941 2.54249 4.30267
0.0691262 -0.0594416 -0.0265335 5.20318 -0.0594396 2.62346 0.0691289 3.10936 -0.0265347 3.06651 4.50631 5.04003 2.28356 1.64255 2.58952 7.33985 1.71242 0.206898 8.12279 4.57618 2.65741 1.19551 4.70936 2.34755 4.05401 1.40239 5.03973 9.21084 1.50937 2.89938 6.35234 4.81634 0.2072 1.28869 4.79396 3.9063 3.80482 1.45369 1.21267 9.11767 1.42477 1.34063 6.60153 4.76504 4.03426 4.84327 4.57051 0.723691 0.394594 1.54361 3.47112 5.56309 1.64822 4.52324 10.0118 4.67512 1.77581 1.89402 6.05818 1.82761 3.46357 0.187066 4.24916 8.57385 2.76027 3.58519 7.18695 3.67624 0.92374 8.51233 0.160548 3.41932 6.94279 6.03166 0.997771 1.8325 3.45846 1.66174 3.21941 2.54249 4.32319
0.177422 -0.0839556 -0.0265371 5.20318 -0.083954 2.62346 0.177423 3.10936 -0.0265356 3.08998 4.65915 5.21997 2.44563 1.54092 2.57441 7.31637 1.55958 0.0269587 7.96072 4.67781 2.67252 1.26988 4.59623 2.35644 4.0324 1.36557 4.96504 9.13648 1.6225 2.89049 6.37395 4.85316 0.281896 1.36204 4.52318 3.92372 3.81767 1.27227 1.22675 9.04431 1.69555 1.32321 6.58869 4.94645 4.02018 4.90748 4.89729 0.61846 0.535542 1.51866 3.35961 5.49887 1.32144 4.62847 9.87081 4.70007 1.88731 1.98705 5.7647 1.58678 3.32524 0.226986 4.27021 8.43034 2.88117 3.59056 6.94321 3.52226 0.859878 8.41931 0.454034 3.66015 7.08111 5.99174 0.976719 1.97601 3.33756 1.65637 3.46314 2.69647 4.38705
0.207866 -0.276716 -0.0250349 5.20307 -0.286774 2.62345 0.207675 3.09433 -0.026202 3.06025 5.16013 5.04283 2.409 1.8948 2.84836 7.34512 1.05872 0.203888 7.99773 4.32453 2.39811 1.28341 4.79451 2.30023 4.03292 1.5052 5.20932 9.12247 1.42495 2.94668 6.3734 4.71361 0.0375765 1.48851 4.94947 3.88607 3.71187 1.37939 1.46324 8.91856 1.27037 1.3606 6.69477 4.83945 3.7837 4.83258 4.50224 0.291502 0.712711 1.10784 3.2806 5.57351 1.71694 4.95499 9.69332 5.11249 1.96711 2.11893 5.8347 1.51049 3.63181 0.246134 4.43086 8.87642 2.86273 3.45469 7.27336 3.63365 0.806651 8.28776 0.384403 3.73632 6.7748 5.97242 0.816155 1.52908 3.35659 1.79166 3.13252 2.58495 4.44063
0.207866 -0.276716 -0.0250278 5.20307 6.50493 2.63595 0.207675 3.09433 -0.0262003 3.06025 5.16013 5.06674 2.409 1.8948 2.86192 7.34512 1.05872 0.204975 7.99773 4.32453 2.40955 1.28341 4.79451 2.31121 4.03292 1.5052 5.23402 9.12247 1.42495 2.96071 6.3734 4.71361 0.0378789 1.48851 4.94947 3.90453 3.71187 1.37939 1.47026 8.91856 1.27037 1.36715 6.69477 4.83945 3.80167 4.83258 4.50224 0.293002 0.712711 1.10784 3.2962 5.57351 1.71694 4.97849 9.69332 5.11249 1.97651 2.11893 5.8347 1.51774 3.63181 0.246134 4.45189 8.87642 2.86273 3.47111 7.27336 3.63365 0.810581 8.28776 0.384403 3.75407 6.7748 5.97242 0.82013 1.52908 3.35659 1.80024 3.13252 2.58495 4.4617
9.57327 7.33454 1.06144 5.07723 6.96043 2.64898 0.93116 3.26562 5.36836 3.37489 6.0032 5.21897 2.39077 1.56641 2.833 6.99221 0.412465 -0.0250041 7.95056 4.50422 2.38194 1.91891 4.94362 2.63161 3.79541 0.713625 5.26955 8.57164 1.24652 2.6425 6.6169 5.57145 5.15206 1.9483 5.2561 4.10536 3.21812 0.427285 1.3626 8.51384 1.01336 1.10603 7.23324 5.74482 3.69757 5.09342 5.25417 -0.384018 0.679537 0.707645 3.078 5.29946 1.0827 5.33031 9.77971 5.29198 2.11977 2.88816 5.83192 1.81175 3.61372 -0.659824 4.38071 8.50797 2.73472 2.99274 7.21669 4.31277 0.610958 7.5101 0.43089 3.43867 6.84093 6.90607 0.708739 2.11274 3.44141 2.34114 3.0243 1.94096 4.59881
0.0285407 -0.0529565 -0.0265353 5.20318 -0.0529565 2.48596 0.0285407 3.10936 -0.0265353 3.03037 4.66003 4.95489 2.30959 1.58458 2.44084 7.37598 1.55869 0.0170405 8.09676 4.63415 2.53109 1.14292 4.69917 2.1982 4.04312 1.52448 4.7265 9.26343 1.51955 2.77373 6.36324 4.69424 0.24543 1.23794 4.69745 3.74887 3.89287 1.4724 1.25065 9.16842 1.52128 1.22306 6.51348 4.74633 3.72128 4.87826 4.69783 0.649254 0.410508 1.53 3.21893 5.52809 1.5209 4.32267 9.99585 4.68873 1.75299 1.8418 5.92606 1.52336 3.36203 0.27251 4.03248 8.56534 2.76149 3.44289 7.1352 3.47859 0.865569 8.56456 0.292666 3.44857 7.04432 5.94622 0.939453 1.84101 3.45724 1.52904 3.27116 2.74014 4.10636
9.70326 7.41406 1.81876 5.08929 7.35426 2.59715 0.517405 3.36506 5.21685 3.99663 5.68021 -0.0861806 2.3766 1.29158 2.55613 6.66899 0.672277 5.08353 7.8904 4.80102 2.62705 2.40669 4.58795 2.63669 3.48779 0.0407579 -0.0647008 7.82588 1.53968 2.47975 7.08234 6.3294 5.31371 3.28662 4.52203 3.92322 2.95712 -0.24824 1.33778 7.60661 1.79063 0.938722 6.9697 6.085 3.71197 5.72553 5.99646 0.657772 9.23551 0.848784 2.59291 4.7863 0.860428 0.0516433 0.971708 5.0911 3.09132 3.04086 5.57263 1.61612 3.82545 7.52358 4.48654 7.77309 2.89892 3.18151 8.12065 5.30447 0.609211 6.73675 0.558314 3.07294 7.61139 -1.13803 5.58089 2.20561 3.1735 2.02556 2.4291 0.800538 4.4324
0.891495 7.41406 1.82743 5.08929 7.35426 2.60947 9.32917 3.36506 5.24146 3.99663 5.68021 5.26354 2.3766 1.29158 2.56825 6.66899 0.672277 5.10753 7.8904 4.80102 2.63951 2.40669 4.58795 2.64919 3.48779 0.0407579 5.28512 7.82588 1.53968 2.49151 7.08234 6.3294 -0.0112137 3.28662 4.52203 3.94176 2.95712 -0.24824 1.34419 7.60661 1.79063 0.943253 6.9697 6.085 3.72953 5.72553 5.99646 0.660985 9.23551 0.848784 2.60521 4.7863 0.860428 0.0520104 0.971708 5.0911 3.10596 3.04086 5.57263 1.62383 3.82545 7.52358 4.50773 7.77309 2.89892 3.19657 8.12065 5.30447 0.612196 6.73675 0.558314 3.08749 7.61139 -1.13803 0.257216 2.20561 3.1735 2.03519 2.4291 0.800538 4.45333
9.75383 -1.13958 0.999058 5.42419 -1.03568 2.63899 9.35085 2.84159 5.33953 3.60745 5.78302 5.10256 2.34478 1.5705 2.58577 6.68951 0.468256 0.0924617 8.14499 4.59077 2.64302 2.16072 4.8181 2.43296 3.55568 0.524126 5.23442 8.23804 1.29737 2.82012 6.85079 5.76146 5.35592 3.39366 4.99484 3.34457 2.35481 0.60983 0.84443 8.09768 1.23353 1.22462 7.13978 5.69427 3.81976 5.31769 5.49077 0.346469 9.60066 0.711498 3.24734 4.89277 0.682921 0.693268 0.868464 5.32977 3.22813 2.33283 5.78859 1.16223 3.61144 -0.861936 4.47955 8.11258 2.78892 3.18066 7.84963 4.80839 0.791979 7.13104 0.490069 3.44998 7.15414 7.22097 0.544643 2.05326 3.37789 1.86529 3.57009 1.64388 4.10733
1.08212 7.52433 1.14721 5.28294 -1.22453 2.65526 9.40011 2.83148 5.25996 3.73646 5.79983 0.167561 2.57789 1.74156 2.3149 6.75332 0.384932 5.07328 7.75394 4.63464 2.74819 2.3386 4.76865 2.85762 3.41733 0.166061 4.96937 8.09976 1.3433 2.52597 6.92705 6.1025 0.149517 3.07559 4.56353 4.22182 2.35037 0.907448 0.438037 7.7703 1.46097 0.97858 6.78193 5.73517 3.98438 5.52883 6.15852 0.748928 9.56226 0.901672 2.69739 4.83519 0.374623 0.324642 0.807002 5.14272 3.19227 3.03296 5.92848 2.05005 3.03942 7.48667 4.89456 7.88213 2.67701 3.28635 7.83071 5.08958 0.932583 7.07088 0.372243 3.23702 7.62349 7.51299 0.183935 2.34263 3.54892 1.93072 3.52031 0.706265 3.50797
1.08212 7.52433 1.15269 5.28294 -1.22453 2.66779 9.40011 2.83148 5.28466 3.73646 5.79983 0.168469 2.57789 1.74156 2.32585 6.75332 0.384932 5.09711 7.75394 4.63464 2.76116 2.3386 4.76865 2.87109 3.41733 0.166061 4.99272 8.09976 1.3433 2.5379 6.92705 6.1025 0.15034 3.07559 4.56353 4.24168 2.35037 0.907448 0.440208 7.7703 1.46097 0.983276 6.78193 5.73517 4.00312 5.52883 6.15852 0.752552 9.56226 0.901672 2.71012 4.83519 0.374623 0.326283 9.59242 5.14272 3.20731 3.03296 5.92848 2.05976 3.03942 7.48667 4.91755 7.88213 2.67701 3.30183 7.83071 5.08958 0.937065 7.07088 0.372243 3.25227 7.62349 7.51299 0.184918 2.34263 3.54892 1.93986 3.52031 0.706265 3.52449
0.846178 7.60549 1.28839 5.47621 -1.26893 2.4507 9.72857 3.19661 5.34694 3.73529 5.62787 0.309831 2.31265 1.54525 2.43989 6.66572 0.629164 5.12403 7.91478 4.6844 2.54421 2.32458 4.78168 2.99384 3.41383 0.225246 5.15691 8.06894 1.4105 2.48583 7.03331 5.99313 5.30758 2.72925 4.50635 4.42952 2.36126 1.17987 0.486649 7.63379 1.68119 0.964068 6.85835 5.74931 3.75685 5.56988 5.64825 0.520205 9.50883 0.775212 2.52482 4.85929 0.545917 0.32195 0.760359 5.22607 2.92878 3.33946 5.73834 2.25007 2.99284 -1.24704 0.0364522 8.23139 2.77838 3.24549 8.03597 5.00646 0.583729 7.03537 0.422784 3.06842 7.46324 7.39922 0.3448 2.40175 3.43664 2.16024 3.4244 0.48867 3.5514
0.893991 7.35914 1.01162 5.41448 -1.01826 2.30203 9.85404 3.0876 5.32406 3.66015 5.85162 0.433414 2.53078 1.55956 2.41345 6.79577 0.197791 5.0357 8.00625 4.69695 2.53281 2.22122 4.86494 3.12385 3.53285 0.316162 5.1188 7.95553 1.45672 2.43961 6.89723 5.89404 5.3152 2.36414 4.91779 4.62712 2.56309 1.35884 0.349878 7.7033 1.41993 0.910089 6.91845 5.7156 3.77204 5.47422 5.79092 0.555665 9.4198 0.97527 2.70522 4.98512 0.440257 0.289817 0.950502 5.67619 2.61407 3.48411 5.43256 2.42054 2.94532 -1.07995 0.159073 7.66544 2.82671 3.02078 7.75465 4.77382 0.628442 6.93873 0.425795 3.13075 7.5002 7.33885 0.323637 2.01964 3.39522 2.67488 3.53881 0.474405 3.54149
0.893991 7.35914 1.01645 5.41448 -1.01826 2.31286 1.05094 3.0876 5.34894 3.66015 5.85162 0.435553 2.53078 1.55956 2.4248 6.79577 0.197791 5.05925 8.00625 4.69695 2.54471 2.22122 4.86494 3.13851 3.53285 0.316162 5.14273 7.95553 1.45672 2.45108 6.89723 5.89404 5.34004 2.36414 4.91779 4.64876 2.56309 1.35884 0.351629 7.7033 1.41993 0.914445 6.91845 5.7156 3.78971 5.47422 5.79092 0.558373 9.4198 0.97527 2.71793 4.98512 0.440257 0.291288 0.950502 5.67619 2.62635 3.48411 5.43256 2.43192 2.94532 -1.07995 0.159936 7.66544 2.82671 3.03495 7.75465 4.77382 0.631488 6.93873 0.425795 3.14544 7.5002 7.33885 0.325265 2.01964 3.39522 2.68745 3.53881 0.474405 3.55809
0.861381 7.06016 0.651836 4.78131 7.14795 2.51667 9.44762 3.12716 5.45817 3.80286 5.46316 0.174953 2.29994 1.59361 2.34837 6.80223 0.718888 5.29395 7.99043 4.59347 2.78336 2.11704 4.80825 2.9368 3.52719 0.363195 5.03031 8.2043 1.45916 2.62424 7.05126 5.91427 0.0162815 2.97122 4.5167 4.22833 2.48705 1.10512 0.470578 7.80883 1.83195 1.11897 6.89313 5.69688 3.90664 5.66879 5.84236 0.742577 9.51347 0.690708 2.62936 4.87515 0.430521 0.364362 0.717704 5.26572 3.34473 2.6914 5.79585 1.86428 3.10284 7.28644 4.85102 8.37009 2.82111 3.33573 8.06323 4.97338 0.728047 6.99919 0.734298 3.34603 7.63791 7.35901 0.235188 2.14699 3.42015 2.16946 3.59232 1.03316 3.66132
0.773291 -1.46209 1.35729 5.14844 7.6863 2.39734 9.26961 3.03567 5.64206 3.61644 5.94003 4.97976 2.52979 1.52829 2.7928 6.92492 0.316206 -0.154765 7.89362 4.66167 2.80187 2.22721 4.78358 2.33125 3.70116 0.367334 5.43446 8.13393 1.3342 2.64694 6.78068 5.93055 0.178375 3.31179 5.2015 3.24407 2.67249 0.313046 1.21751 8.00637 1.34383 1.06764 6.85234 5.69913 4.00043 5.30496 5.86124 0.562521 9.51474 0.74915 3.14813 5.1094 0.416898 0.635029 0.887895 5.3502 2.8725 2.30194 5.43701 0.863148 3.50249 -0.963755 4.58639 8.04209 2.81943 3.15673 7.71199 4.96116 0.895632 7.06713 0.442229 3.29366 7.29327 7.37035 0.483505 2.15351 3.28135 2.07676 3.52978 1.577 4.45027
0.0388117 -0.0506197 -0.0265353 5.20318 -0.0506197 2.48596 0.0388117 3.10936 -0.0265353 3.04554 4.70606 4.96851 2.32201 1.6021 2.38223 7.36082 1.51266 0.00342039 8.08435 4.61663 2.5897 1.17848 4.69658 2.24651 4.04477 1.52218 4.69347 9.22787 1.52215 2.72542 6.36159 4.69655 0.278453 1.26261 4.70165 3.76282 3.98417 1.47843 1.17716 9.14374 1.51707 1.20911 6.42219 4.7403 3.79477 4.82884 4.6993 0.777232 0.400776 1.53833 3.22809 5.57751 1.51943 4.1947 10.0056 4.6804 1.74384 1.86402 5.92377 1.51149 3.36887 0.286368 3.99176 8.53826 2.68149 3.47261 7.12862 3.44245 0.924603 8.54234 0.294956 3.46044 7.03749 5.93236 0.98017 1.86809 3.53724 1.49932 3.27774 2.77628 4.04733
9.55489 7.38684 1.3637 5.14844 -1.16262 2.40856 9.26961 3.03567 0.243303 3.61644 5.94003 5.00294 2.52979 1.52829 2.80585 6.92492 0.316206 5.26964 7.89362 4.66167 2.81496 2.22721 4.78358 2.34217 3.70116 0.367334 0.0347476 8.13393 1.3342 2.65932 6.78068 5.93055 0.179324 3.31179 5.2015 3.25921 2.67249 0.313046 1.22327 8.00637 1.34383 1.07271 6.85234 5.69913 4.01907 5.30496 5.86124 0.565248 9.51474 0.74915 3.16283 5.1094 0.416898 0.638092 0.887895 5.3502 2.88592 2.30194 5.43701 0.867267 3.50249 -0.963755 4.60774 8.04209 2.81943 3.17147 7.71199 4.96116 0.899902 7.06713 0.442229 3.30903 7.29327 7.37035 0.485866 2.15351 3.28135 2.0865 3.52978 1.577 4.471
9.8811 7.16158 1.35691 5.32262 -1.22719 2.72687 1.02751 3.40418 5.31775 3.8617 5.52974 5.28932 2.09304 1.30431 2.68934 6.64843 0.943507 5.066 8.00838 4.62984 2.82453 2.26113 4.57524 2.64236 3.44676 0.359929 5.24684 8.02681 1.49586 2.4925 7.08442 6.04375 0.206839 3.40027 4.47 3.75783 3.00797 0.19935 1.30485 7.37634 1.93643 1.19836 7.17365 5.67333 4.14461 5.63686 5.69837 0.722912 9.39388 0.761636 2.22612 4.74528 1.16406 -0.27643 0.993959 5.09819 3.27253 2.69007 5.53272 1.5075 3.52437 -1.06494 4.52009 8.24668 2.71697 3.41984 8.12181 5.22582 1.02839 6.96979 0.49827 3.18764 7.43157 -0.874497 0.462229 1.96987 3.16208 2.0143 2.36473 1.13941 4.47565
0.79066 -1.04951 1.67675 5.54163 7.40567 2.47552 9.48474 2.88768 5.3831 3.50974 5.88456 0.0682492 2.64811 1.60956 2.47002 6.82582 0.361337 5.2963 7.7721 4.53525 2.61666 1.93671 4.93084 2.80887 3.73266 0.548409 5.12822 8.29792 1.2625 2.66085 6.81946 5.70851 5.35908 2.39043 4.93517 4.28709 2.67114 1.13903 0.656698 8.06184 1.22891 1.1025 6.74347 5.64045 3.79665 5.35046 5.54965 0.425659 0.82269 0.887518 2.95091 5.06044 0.570454 0.530921 9.49769 5.56977 2.64027 2.8822 5.89114 2.02321 3.32893 -0.920692 4.81111 8.03214 2.67851 3.25062 7.77133 4.6177 0.653003 7.31521 0.332608 3.3886 7.33837 7.12167 0.310596 1.98502 3.48316 2.25451 3.95017 1.28446 3.77658
0.79066 -1.04951 1.6846 5.54163 7.40567 2.48705 9.48474 2.88768 5.40802 3.50974 5.88456 0.0686861 2.64811 1.60956 2.48153 6.82582 0.361337 5.32082 7.7721 4.53525 2.62884 1.93671 4.93084 2.82194 3.73266 0.548409 5.15197 8.29792 1.2625 2.67323 6.81946 5.70851 5.3839 2.39043 4.93517 4.30697 2.67114 1.13903 0.659847 8.06184 1.22891 1.1077 6.74347 5.64045 3.81427 5.35046 5.54965 0.427743 0.82269 0.887518 2.96463 5.06044 0.570454 0.53349 9.49769 5.56977 2.65256 2.8822 5.89114 2.03265 3.32893 -0.920692 4.8334 8.03214 2.67851 3.26573 7.77133 4.6177 0.656135 7.31521 0.332608 3.40434 7.33837 7.12167 0.31215 1.98502 3.48316 2.26503 3.95017 1.28446 3.79411
9.66927 -1.09575 1.86939 5.55845 -1.05013 2.63993 9.57691 3.40663 0.0585509 3.71063 5.78239 5.33418 2.46755 1.68968 2.45993 6.84354 0.345938 5.41831 7.7482 4.56951 2.70035 2.09049 4.88619 2.59038 3.72391 0.392967 5.14633 8.3041 1.35453 2.74201 6.69334 5.73261 0.0867785 2.89347 4.85314 3.90474 2.49437 0.576238 0.629226 8.10078 1.27456 1.16965 6.57298 5.72132 3.97511 5.37656 5.52976 0.861256 0.726352 0.871231 3.02189 5.04165 0.725041 0.46955 9.63512 5.29607 2.89726 2.68485 5.84749 1.57821 3.75232 -1.08181 4.61687 8.10724 2.739 3.30832 7.58119 4.57811 0.654613 7.28183 0.373184 3.52836 7.20273 7.15905 0.637706 2.12486 3.44071 1.92614 3.55105 1.35627 3.9334
9.68146 7.31879 1.73969 5.47735 7.50638 2.86454 9.34153 3.42724 5.37941 3.87511 5.74908 5.13032 2.25017 1.48555 2.52612 6.7362 0.655523 5.49071 7.88556 4.61559 2.81564 2.42647 4.58005 2.49254 3.49279 0.144902 5.21666 7.94302 1.48549 2.80224 6.95466 6.1477 0.0954957 3.40925 4.62078 3.65031 2.42837 0.472584 0.791873 7.8505 1.85689 1.26186 6.91749 5.79487 3.98438 5.56733 5.93944 0.752877 9.26096 0.641241 2.97814 4.90549 0.260029 0.39963 1.0688 5.2151 3.0115 2.76392 5.49002 1.24884 3.27376 -1.28394 4.63485 8.04678 2.80443 3.62895 7.87976 5.05782 0.813284 6.82025 0.61915 3.41689 7.53342 7.58082 0.413788 2.2195 3.20702 1.8753 3.336 1.17039 4.0801
0.81347 -0.965674 1.50303 5.01835 7.50952 2.18475 9.39729 3.15647 0.150262 3.56962 5.63501 5.40467 2.61945 1.71144 2.49881 6.7077 0.449911 5.51518 7.83932 4.49229 2.67819 2.14389 4.89194 2.51897 3.52337 0.373967 5.29672 8.3501 1.37613 2.81555 6.91778 5.7721 0.0635284 2.60906 4.69785 4.00145 2.37328 0.807951 0.732159 8.07072 1.25876 1.2459 7.02448 5.62206 3.97058 5.38372 5.5746 0.435331 9.74854 0.727281 3.18694 4.86131 0.564545 0.566472 0.723703 5.50527 2.49617 3.12228 5.88511 1.76206 3.32074 -1.09203 4.82892 8.5137 2.8811 3.20537 7.72814 4.60975 0.747171 7.20333 0.75708 3.70951 7.42961 7.17125 0.534647 2.12062 3.49876 1.78683 3.59454 1.31042 4.0587
0.81347 -0.965674 1.51002 5.01835 -1.06817 2.19484 9.39729 3.15647 0.151069 3.56962 5.63501 5.42947 2.61945 1.71144 2.51034 6.7077 0.449911 0.0404817 7.83932 4.49229 2.69054 2.14389 4.89194 2.5306 3.52337 0.373967 5.32102 8.3501 1.37613 2.82853 6.91778 5.7721 0.0639397 2.60906 4.69785 4.01985 2.37328 0.807951 0.735623 8.07072 1.25876 1.25171 7.02448 5.62206 3.98883 5.38372 5.5746 0.43744 0.738242 0.727281 3.20161 4.86131 0.564545 0.56918 0.723703 5.50527 2.50769 3.12228 5.88511 1.77023 3.32074 -1.09203 4.85109 8.5137 2.8811 3.22012 7.72814 4.60975 0.750704 7.20333 0.75708 3.72657 7.42961 7.17125 0.537209 2.12062 3.49876 1.79511 3.59454 1.31042 4.07736
0.0388117 -0.0506197 -0.0265352 5.20318 -0.0506197 2.49846 0.0388117 3.10936 -0.0265352 3.04554 4.70606 4.99336 2.32201 1.6021 2.39422 7.36082 1.51266 0.00356949 8.08435 4.61663 2.60271 1.17848 4.69658 2.25781 4.04477 1.52218 4.71696 9.22787 1.52215 2.73911 6.36159 4.69655 0.279971 1.26261 4.70165 3.78167 3.98417 1.47843 1.18315 9.14374 1.51707 1.21526 6.42219 4.7403 3.81378 4.82884 4.6993 0.781231 0.400776 1.53833 3.24428 5.57751 1.51943 4.2157 10.0056 4.6804 1.75265 1.86402 5.92377 1.51914 3.36887 0.286368 4.01175 8.53826 2.68149 3.49002 7.12862 3.44245 0.929335 8.54234 0.294956 3.47779 7.03749 5.93236 0.985179 1.86809 3.53724 1.50691 3.27774 2.77628 4.06759