-31251.0900562967
-31249.8878876341
-31251.0900562967
-31249.874556784
-31249.8058521567
-31249.9814656305
-31249.9292529981
-31250.2323865705
-31249.7533474102
-31251.0900562967
-31249.1949804398
-31249.5544588272
-31249.4995854671
-31251.081769074
-31249.6434555173
-31249.6383709368
-31249.5773465826
-31249.5612699692
-31249.5477340814
-31249.4857239953
-31249.7361615253
-31249.559189796
-31249.5002890171
-31249.7433114488
-31251.067005137
-31250.384368058
-31250.370070524
-31250.3431073217
-31250.2885312458
-31250.2908473416
-31250.1150110067
-31250.3858392407
-31250.380569895
-31250.1114260447
-31250.3110580424
-31250.6047393373
-31250.3033355916
-31250.2329814111
-31250.314793075
-31250.3081464258
-31250.1384031248
-31250.0657357056
-31250.0198864521
-31250.0043476714
-31250.6112782295
-31250.114368002
-31250.0878736517
-31250.0647443954
-31249.9730671133
-31249.8059189606
-31249.7950169973
-31250.0260209833
-31250.2021771879
-31250.2086098197
-31250.1925953843
-31249.5763481974
-31249.8908870074
-31249.8530310938
-31250.1987131805
-31250.099177935
-31250.0006134551
-31250.3939372084
-31250.366425697
-31249.927223302
-31250.2289311347
-31249.7450951541
-31249.8000730059
-31249.7635897699
-31249.8960804334
-31249.7487867846
-31249.808363494
-31250.0393258466
-31249.914393005
-31249.5211013612
-31249.4507577931
-31249.7313244322
-31249.5926576041
-31250.2758795915
-31249.550815633
-31249.3184484934
-31250.2771904993
-31249.1093034008
-31249.0853123605
-31249.1707395991
-31250.1961474205
-31248.8776277021
-31248.8210103653
-31249.3740826834
-31250.0897664746
-31249.3064010675
-31250.0915614726
-31250.0788368918
-31249.9360708068
-31249.9442387077
-31250.1763944149