-2.545390813805e-05 1.51695008095449e-05 -1.92832637409469e-05 -8.22752586280403e-06 8.48463604601665e-06 5.91353421389039e-06 -2.87963405198141e-05 1.28555091606313e-06 -2.26256961227111e-05 -0.0187628727301246 -0.0133293632282922 0.00363862331282508 0.0378646166817234 -0.0385565001847486 0.056753216291439 0.0188060672409043 0.0133247352449943 -0.00349052784729461 -0.0379582047884128 0.0384659974002577 -0.0567791844199434 0.0794341911035407 0.0139852513056676 -0.0326812753881569 -0.0280725753540706 -0.00547079047839825 -0.0126392794965495 -0.0804096671386495 -0.0135769603347259 0.0329563832841944 0.0276887098505341 0.00531755280920353 0.0125814297053266 -0.0280844024224983 0.000830723001959994 -0.019707752653431 -0.0217978013327664 0.0254706202999588 0.0372830334472965 0.0279396493893496 -0.000900142751427403 0.0192536960698775 0.0218409958435461 -0.0254891322331501 -0.0370572907064358 0.073624272293485 0.00655450990063947 0.00803289345411207 0.0631326341573106 0.0030138455676184 -0.0273518955105256 -0.0732596900536896 -0.0065694222912658 -0.00813573752739712 -0.0615069264688572 -0.00305729718858133 0.0275825233448673 -0.0398682763394994 -0.0792714403575672 -0.0266908652294859 0.0113802109293572 0.0114938536303372 -0.00507586923698366 0.0205287054684289 -0.0617241845736719 0.0143845434201968 -0.0257400717719656 -0.0182203702435459 0.00261738166510453 0.0396600170910972 0.0791035474079293 0.0267070631710283 -0.0113056489762256 -0.0113429299527914 0.00504270202334923 -0.0207112536985099 0.0616514223918227 -0.0144483067456335 0.0256397988005127 0.0182717922801885 -0.00273925189194732
2.00545942905848e-05 -1.41410600766944e-05 1.41410600766944e-05 3.75380867490434e-05 -6.42775458031565e-06 2.18543655730732e-05 2.59681285044752e-05 2.03117044737974e-05 9.51307677886716e-06 -0.623043537020912 0.614466598419122 -0.124286291234434 0.00882376437767411 -0.535520916663685 0.376272268495632 0.622965375525215 -0.61440643463625 0.124248496037501 -0.00942874463877342 0.535552026995854 -0.376600855309778 -2.41059771493358 1.17559594644097 1.64144720253916 1.29500537172022 -3.45743570983368 -0.483747410400708 2.41049229975846 -1.17541982596547 -1.64146057226869 -1.29465313076922 3.45729661322456 0.484053114408548 0.138875494360468 0.0829578861644698 -0.884049710839758 0.628524354796455 0.23720034195519 0.862941993238735 -0.138771364736267 -0.0829455448756756 0.883997517472566 -0.628511499287295 -0.237180544471082 -0.863166193318496 2.24240548904247 -0.701115044153426 0.18135780993269 -2.21500499970732 0.639273360226025 -0.153081089093149 -2.24265257192854 0.701098846211883 -0.18136423768727 2.21511761396757 -0.639248420538254 0.15303635192127 0.23989177135306 -0.0393160036659587 -0.728778814316188 0.372982543701426 1.43492396209399 -0.00615727466757596 -0.208393717028047 0.641711536093431 0.666142917032844 -0.250002886418079 -0.40512337348447 0.906701375090974 -0.239940879398053 0.0391069730870068 0.728971904063781 -0.372832905574797 -1.43474887005922 0.00623723593455509 0.208537955840829 -0.641790211809494 -0.666089695224919 0.250128356187487 0.40506732346453 -0.906671550309721
-2.545390813805e-05 1.51695008095449e-05 -1.92832637409469e-05 -8.22752586280403e-06 8.48463604601665e-06 5.91353421389039e-06 -2.87963405198141e-05 1.28555091606313e-06 -2.26256961227111e-05 -0.0187628727301246 -0.0133293632282922 0.00363862331282508 0.0378646166817234 -0.0385565001847486 0.056753216291439 0.0188060672409043 0.0133247352449943 -0.00349052784729461 -0.0379582047884128 0.0384659974002577 -0.0567791844199434 0.0794341911035407 0.0139852513056676 -0.0326812753881569 -0.0280725753540706 -0.00547079047839825 -0.0126392794965495 -0.0804096671386495 -0.0135769603347259 0.0329563832841944 0.0276887098505341 0.00531755280920353 0.0125814297053266 -0.0280844024224983 0.000830723001959994 -0.019707752653431 -0.0217978013327664 0.0254706202999588 0.0372830334472965 0.0279396493893496 -0.000900142751427403 0.0192536960698775 0.0218409958435461 -0.0254891322331501 -0.0370572907064358 0.073624272293485 0.00655450990063947 0.00803289345411207 0.0631326341573106 0.0030138455676184 -0.0273518955105256 -0.0732596900536896 -0.0065694222912658 -0.00813573752739712 -0.0615069264688572 -0.00305729718858133 0.0275825233448673 -0.0398682763394994 -0.0792714403575672 -0.0266908652294859 0.0113802109293572 0.0114938536303372 -0.00507586923698366 0.0205287054684289 -0.0617241845736719 0.0143845434201968 -0.0257400717719656 -0.0182203702435459 0.00261738166510453 0.0396600170910972 0.0791035474079293 0.0267070631710283 -0.0113056489762256 -0.0113429299527914 0.00504270202334923 -0.0207112536985099 0.0616514223918227 -0.0144483067456335 0.0256397988005127 0.0182717922801885 -0.00273925189194732
1.36268397102692e-05 -3.34243238176414e-06 9.51307677886716e-06 7.45619531316615e-06 2.31399164891363e-06 2.18543655730732e-05 2.21114757562858e-05 1.61979415423954e-05 5.14220366425252e-06 -0.613658244003101 0.611945890182905 -0.142904925151776 0.0246956902077559 -0.532020361519245 0.344812266477735 0.613227070225854 -0.611866700246476 0.142880499684371 -0.0246612374432054 0.531956855303992 -0.344824350656346 -2.38920974723285 1.16470527330045 1.75927308620001 1.23612636843398 -3.46983381997837 -0.275006594625324 2.38906910796264 -1.16460294344753 -1.7592273205874 -1.23587697155627 3.46979165390833 0.274938203316589 0.139369145912236 0.0858400913182833 -1.10780293310274 0.633887673218271 0.255829003169677 0.572846630401395 -0.13934549177538 -0.0858418910895658 1.10781578861191 -0.633844992927857 -0.255823860966013 -0.572824776035822 2.23786415187639 -0.699710451222535 0.152882085811342 -2.20991370385934 0.637864653532204 -0.185725340614923 -2.23814285931499 0.69970685167997 -0.152884656913174 2.21000446375402 -0.637859254218356 0.185702457808617 0.223445204263497 -0.0544921893402671 -0.677778438374132 0.380004479915146 1.44449026068078 0.0416096836103985 -0.191314144667416 0.61979494985602 0.613643845832841 -0.268174662836998 -0.3832980613621 0.854998317018197 -0.223407409066565 0.0544181416075019 0.677764811534421 -0.379900350290945 -1.44444578061908 -0.0415572331330231 0.191457355039465 -0.619893423056191 -0.613736662608981 0.26825642387526 0.383329685914635 -0.854930954150196
2.57110183212626e-07 8.22752586280403e-06 3.85665274818939e-06 4.49942820622095e-05 9.77018696207978e-06 3.41956543672792e-05 6.42775458031565e-06 1.38839498934818e-05 1.41410600766944e-05 0.167030859193533 -0.495137905737394 0.327459385992348 0.499918612484049 -0.0091168699865365 -0.346876347028566 -0.167159671395322 0.495066171996278 -0.327615194763375 -0.500448773681834 0.00897443094503671 0.346918770208796 1.81663591073585 -2.67428066286985 1.39681740472986 0.0728634832613589 -1.15038655008715 0.609459377601056 -1.81801067888548 2.67413076763304 -1.39738613245513 -0.0726603662166209 1.15041431798694 -0.609740399031307 -0.108775090991399 0.299266997292901 -2.36357560485637 -0.208321211956381 -0.160707234237418 -0.85335872537985 0.108981550468519 -0.299173152076028 2.36345553440081 0.208142520379048 0.160754799621313 0.853400120119348 0.158352619179557 0.371242679091627 -0.00133774428325529 2.55982086572762 0.279948766567037 0.106228928847045 -0.158418182276276 -0.371247307074924 0.00130174885760552 -2.55781103542545 -0.279810698398652 -0.10569156856413 0.574435571333649 1.50151755642752 -0.237772155002655 0.846162982682279 1.48476168578755 0.848371302045892 0.64823082189897 -0.792524399150278 -1.13692888887744 0.910623333825699 -0.726206169822962 0.551857183484649 -0.574605006944386 -1.50169830488632 0.237875513296306 -0.84613264368066 -1.48461821830532 -0.848308824271371 -0.648368632957172 0.792669152183426 1.13699753729636 -0.910539515905972 0.726127751217083 -0.551603158623635
-1.13128480613555e-05 -2.3397026672349e-05 -1.28555091606313e-06 -9.77018696207978e-06 6.9419749467409e-06 1.2341288794206e-05 7.19908512995352e-06 2.59681285044752e-05 1.0284407328505e-06 0.232904802124256 0.849359119369795 -0.146699614345811 1.15722131008749 -0.263146873204275 -0.352939262258903 -0.23280581470372 -0.849118978458674 0.146845910040059 -1.15717014516103 0.263026545638532 0.353001225813057 -1.71496400277606 2.95297653151409 1.01607527569908 0.402726078136196 -1.27412339686006 -0.919657157223058 1.71483313369281 -2.95315059510813 -1.0162264564868 -0.402382064711057 1.27409742873156 0.919485150510489 -0.0579495499739273 -0.514386202493424 -0.0321598559366017 -0.683494254857131 0.514674423008805 -0.334389276760478 0.0579387513462324 0.514346093304843 0.032212306413977 0.683595042048951 -0.514687278517966 0.334352767114462 1.56648261486059 -0.53174705339449 -0.0345116427824476 -2.44228191703124 0.138516825654886 0.350262745251659 -1.56674075348453 0.531735997656612 0.0346211717204961 2.44225517757218 -0.138547421766688 -0.350231634919491 -0.507425972723675 -1.04306258896981 -0.184482984209639 0.623621006492407 0.692879033654575 0.826189378099406 -0.764108838811801 1.20969235627753 1.11009841281847 -0.767907641768768 0.388509941886003 -0.340599773235979 0.507522646152563 1.0431392078044 0.184411764688889 -0.623687340919676 -0.692995247457388 -0.826226659075972 0.764019364468043 -1.2096008250523 -1.10998374167675 0.767812511000979 -0.388396556295207 0.340539866563291
-5.39931384746514e-06 -1.69692720920333e-05 1.72263822752459e-05 -1.13128480613555e-05 7.19908512995352e-06 3.90807478483191e-05 6.9419749467409e-06 2.69965692373257e-05 2.00545942905848e-05 0.228281961030093 0.841810878611039 -0.162961576323827 1.16191434226167 -0.26613166532119 -0.354975574909947 -0.227958259309429 -0.841813449712871 0.162962604764559 -1.16199456063884 0.266091041912243 0.354500692401553 -1.6875529719234 2.94590600147575 1.16173925022691 0.365244298517276 -1.30196611571034 -0.753303526252108 1.68736013928599 -2.94593094116352 -1.16169117062265 -0.364884087150595 1.3019728005751 0.753076240850148 -0.0606060123868802 -0.526930608332368 -0.283501257968486 -0.672827010465823 0.529384210810766 -0.599269072599607 0.0605689885204976 0.526930608332368 0.283537767614502 0.672792300591089 -0.529385753471865 0.599357518502632 1.57206062028539 -0.530856680830025 -0.0677603603449547 -2.43368055296204 0.138471317152458 0.31896343709827 -1.5722732504069 0.530870821890101 0.0679395661426539 2.4336628123594 -0.138493685738397 -0.318905844417231 -0.522065569445619 -1.0579112162707 -0.132340010613386 0.633304547322744 0.713974667076988 0.862162435163234 -0.748016826664889 1.18296832383441 1.06521443102486 -0.774564224412143 0.390750914242884 -0.385091919110375 0.522128304330322 1.05799349152933 0.132384747785265 -0.633387593911922 -0.713946899177201 -0.862132610381981 0.748000371613164 -1.18300149104804 -1.06514012618191 0.774502260857988 -0.390774311269557 0.385157482207094
-1.07986276949303e-05 2.57110183212626e-07 3.59954256497676e-06 -6.60773170856448e-05 -8.74174622922928e-06 3.93378580315318e-05 -2.57110183212626e-05 -7.71330549637878e-06 8.48463604601665e-06 0.145546218063919 -0.491972108051497 0.0647807104317036 0.179791237586375 0.0655085893603785 -0.321698318117103 -0.145330759730387 0.491920943125037 -0.0648151631962541 -0.179508159274658 -0.0653093289683887 0.321890379423963 0.910212985973292 -1.60589863438782 2.18880752891942 -0.506495490970628 0.110446307182281 -0.88174574648799 -0.910697381558465 1.60573202698909 -2.1891386868354 0.506359479683709 -0.110605972606056 0.881425901420074 -0.574642287920952 0.432072634448085 -1.61556751993771 -0.573990770716691 -0.152211028233157 0.291386055957067 0.575000956626533 -0.432049494531596 1.61604214533592 0.574024966371058 0.152202286486928 -0.291352888743433 0.223474000604017 0.189455238042788 0.597561603872891 1.46038198399497 -0.0204366600228388 0.142387876573335 -0.22394399801893 -0.189442382533628 -0.597600941730923 -1.46037787023204 0.0204034928092043 -0.142332597883945 0.958768244072996 1.89234380395409 -0.671749461687979 0.551033145347452 0.68350376793391 0.756138166022027 0.514708104442806 -0.0639199055383077 -0.0735396830432081 -0.309042069348462 0.530552005262918 -0.151930521023272 -0.958541730001586 -1.89196122400147 0.671703181855 -0.550980437759894 -0.683312992177966 -0.756138937352576 -0.514659510618179 0.0636411980997052 0.0735749071383082 0.309011473236659 -0.530646364700157 0.151860844163621
-1.15699582445682e-05 -1.87690433745217e-05 -3.85665274818939e-06 -5.39931384746514e-06 3.85665274818939e-06 6.9419749467409e-06 3.85665274818939e-06 1.46552804431197e-05 6.42775458031565e-06 0.428629414874501 0.0558821269907146 0.573732374982562 0.324330097952468 -0.333095241208369 -0.0772464405545845 -0.428754113313359 -0.0561137832657892 -0.573697665107828 -0.324224425667167 0.333363150019277 0.0772610958350276 1.27941909530369 0.348338532640496 -3.30788474355604 -1.17503133247863 0.466296828045701 1.53172414630226 -1.28007241227923 -0.348419779458391 3.30770116688522 1.17459013140424 -0.465913990982897 -1.5315855639135 0.157226733687269 -0.943386627362301 3.82375318625568 0.0240629420468697 -0.0396841854483192 -0.0222040354222424 -0.157192280922718 0.943441134721142 -3.82376784153613 -0.0240560000719229 0.0396386769458905 0.0220731663389871 -0.917878726085776 0.916560779286629 0.278569113323918 1.94073528286708 0.537835422532965 0.676461520015716 0.918274161547558 -0.9165504948793 -0.278654216794561 -1.94007296703513 -0.537904842282432 -0.676330393822278 0.143679598133796 0.239858347029242 -0.829512784327612 0.409046103549745 0.498802497178723 -0.300436077295969 -0.0722294495495566 -0.0759516336719257 -0.527768016199091 1.11024933649601 0.127350016177595 0.75019532124725 -0.143739247696301 -0.239810267424981 0.829557264389308 -0.409062815711654 -0.498847491460786 0.300402910082334 0.0721667146648527 0.0759927713012398 0.527754903579748 -1.11008272909729 -0.127681431203756 -0.750107903784958
-2.545390813805e-05 1.51695008095449e-05 -1.92832637409469e-05 -8.22752586280403e-06 8.48463604601665e-06 5.91353421389039e-06 -2.87963405198141e-05 1.28555091606313e-06 -2.26256961227111e-05 -0.0187628727301246 -0.0133293632282922 0.00363862331282508 0.0378646166817234 -0.0385565001847486 0.056753216291439 0.0188060672409043 0.0133247352449943 -0.00349052784729461 -0.0379582047884128 0.0384659974002577 -0.0567791844199434 0.0794341911035407 0.0139852513056676 -0.0326812753881569 -0.0280725753540706 -0.00547079047839825 -0.0126392794965495 -0.0804096671386495 -0.0135769603347259 0.0329563832841944 0.0276887098505341 0.00531755280920353 0.0125814297053266 -0.0280844024224983 0.000830723001959994 -0.019707752653431 -0.0217978013327664 0.0254706202999588 0.0372830334472965 0.0279396493893496 -0.000900142751427403 0.0192536960698775 0.0218409958435461 -0.0254891322331501 -0.0370572907064358 0.073624272293485 0.00655450990063947 0.00803289345411207 0.0631326341573106 0.0030138455676184 -0.0273518955105256 -0.0732596900536896 -0.0065694222912658 -0.00813573752739712 -0.0615069264688572 -0.00305729718858133 0.0275825233448673 -0.0398682763394994 -0.0792714403575672 -0.0266908652294859 0.0113802109293572 0.0114938536303372 -0.00507586923698366 0.0205287054684289 -0.0617241845736719 0.0143845434201968 -0.0257400717719656 -0.0182203702435459 0.00261738166510453 0.0396600170910972 0.0791035474079293 0.0267070631710283 -0.0113056489762256 -0.0113429299527914 0.00504270202334923 -0.0207112536985099 0.0616514223918227 -0.0144483067456335 0.0256397988005127 0.0182717922801885 -0.00273925189194732
9.51307677886716e-06 -7.71330549637878e-06 -1.15699582445682e-05 -1.79977128248838e-06 5.65642403067777e-06 2.36541368555616e-05 1.38839498934818e-05 2.82821201533888e-06 -1.05415175117177e-05 -0.1167254520767 0.403588682800874 0.53461614592896 -0.648230564788787 -0.00834965319983002 0.85116506129668 0.116747563552456 -0.403613365378463 -0.534668339296152 0.647842328412136 0.00841290230490033 -0.85125145031824 -3.48645213667032 -0.360149660236918 -0.768501823402172 1.3184111401388 1.56567091801219 0.00661724478534335 3.48673572920241 0.360173571483957 0.768602353483808 -1.31870296019675 -1.56574316597367 -0.00691009328402253 0.739491567209925 -0.296914182006322 1.58428492394623 0.0878764039693273 0.31836796991395 -0.542828245180771 -0.739478454590581 0.296972546017911 -1.58428286706476 -0.087808269770776 -0.31825355588242 0.543217252887972 0.993624671611132 0.283794106467165 -0.911388750841123 -0.564946920022187 1.63700073903068 -0.780724584401917 -0.993285543279475 -0.283816732163288 0.911314445998175 0.564703436678684 -1.63698402686877 0.780678304568939 2.39675953065271 1.94655265787245 -1.31489233017135 -0.609938888092747 -1.10893576056998 -1.18078725815021 -0.097566629664428 0.230477424884546 0.118155498915729 -0.130471333801797 1.45950858070259 -0.704702245429608 -2.3968454054539 -1.9465917386203 1.31499697401592 0.61003273330962 1.10900080944633 1.18073095102009 0.0976635602034991 -0.230619606815863 -0.118227746877211 0.13054203910218 -1.45955074677264 0.704784520688236
-7.07053003834721e-05 6.42775458031565e-06 -1.87690433745217e-05 -8.33036993608908e-05 2.05688146570101e-06 -6.17064439710302e-06 -6.7362868001708e-05 1.33697295270565e-05 -6.17064439710302e-06 -0.0480523505813405 -0.399217295465893 -0.0910172619674528 0.644238157863861 -0.724580719244692 -0.25361631293295 0.0489244683227977 0.399337623031637 0.0910085202212235 -0.643245712556661 0.724148774136895 0.253954412823874 1.23912633005171 -1.73385697325889 -1.16669582033888 2.01571426871592 0.69985571847605 3.84223246645372 -1.23907413668452 1.73385671614871 1.16676344031706 -2.01580477150041 -0.699922824233869 -3.8421118817778 -0.121829603433837 -0.42601306165013 0.0696380360129565 -0.16076739802029 -0.0291508954624643 -2.10913422534549 0.121651940297237 0.425992235725289 -0.0697545069259518 0.160564023865369 0.0291737782687702 2.10894910601358 -0.170764613274146 0.671420360653466 0.194046711694599 1.04156260816094 0.269232928351101 -0.233391768811261 0.170607776062387 -0.671399277618443 -0.19402357177811 -1.04189633717875 -0.269163765711817 0.233283011203762 0.695296383597141 0.385294521934746 -0.213427420194984 -0.687540654920532 -1.62673715762702 -0.295486706269126 0.897671408346363 -2.66509283047275 -0.825347085139201 1.32546033003194 -1.17068257083977 0.601224395542939 -0.695451935257984 -0.385196562954942 0.213446960568908 0.687412099828925 1.6269243338404 0.295462023691537 -0.897880953145682 2.66517767683321 0.82539182231108 -1.32569918539215 1.17057766988502 -0.601363235041874
-7.30192920323857e-05 -1.05415175117177e-05 1.15699582445682e-05 -6.86484189177711e-05 -1.25983989774187e-05 2.98247812526646e-05 -5.88782319556913e-05 -3.34243238176414e-06 2.51967979548373e-05 -0.066784884309846 -0.390582764183063 -0.0821127649922499 0.652436373165779 -0.704231219573963 -0.262744495767547 0.067388321909846 0.391014452180677 0.0816864763084834 -0.651619534113713 0.704065126395607 0.262761465039639 1.29181669122802 -1.67766991359089 -1.03670862501207 1.95365712645498 0.676311110558537 3.88245581195624 -1.29174341482581 1.67759252342574 1.03685286382485 -1.95372474643317 -0.676365875027561 -3.88246661058394 -0.140387559347941 -0.44498290807774 -0.187187526226853 -0.152100213744192 -0.0183008457308915 -2.26250404917439 0.14025617604432 0.444924286955968 0.187101394315477 0.151964973787823 0.0182625363135928 2.26249453609761 -0.165677431189101 0.669018437321894 0.164456672039208 1.03235729227138 0.272465060464267 -0.263528167605979 0.1655396201309 -0.669006353143283 -0.164415020189527 -1.03267122380508 -0.272481515515993 0.263536395131842 0.665134530894284 0.330182697052937 -0.166940356409042 -0.659484534618187 -1.57452347873038 -0.237176430708151 0.887364632431919 -2.63730307632021 -0.873518477735369 1.32159339287642 -1.13484603928323 0.574051962940295 -0.665232746984271 -0.330274485388344 0.166955783020035 0.659413315097437 1.57452347873038 0.23731244199507 -0.887545380890717 2.63740489195276 0.873562700686882 -1.321749972978 1.13483061267224 -0.573992570487973
-3.62525358329802e-05 1.85119331913091e-05 6.9419749467409e-06 -1.25983989774187e-05 4.11376293140201e-06 2.39112470387742e-05 -4.01091885811696e-05 -5.14220366425252e-07 3.85665274818939e-06 -0.0264013591631885 -0.0140940089131665 -0.00984500602539466 0.0645562532417589 -0.0361995711352384 0.0390835760603345 0.0264656367089916 0.0140999224473804 0.00984114937264647 -0.0643513364257385 0.0360910706379227 -0.038992301945294 0.103298129868604 0.0128097435480194 0.133243752907378 -0.0753746784207966 -0.0224801717590127 0.163243369084628 -0.10419338752655 -0.0123927108308486 -0.133502662861873 0.0749728152044353 0.0223089363769931 -0.163513591887184 -0.0395054938709864 0.00191598508530049 -0.299166981431631 -0.0163671200429493 0.0305670583515995 -0.241343415447478 0.0393771958895633 -0.00198823304678324 0.299007573118039 0.0163624920596515 -0.0305686010126987 0.241297906945049 0.0847016074270178 0.00756803824286364 -0.0249312031355787 0.0513356476209657 0.0031462573119729 -0.0566768545670248 -0.0844501536678359 -0.0075814079723907 0.0249150051940363 -0.0497744745884987 -0.00318610939037086 0.0569830727952311 -0.0547063621228833 -0.100114077359699 0.0211228871018333 0.0247082886067333 0.0317173693112927 0.0427013734483193 0.0337233429607176 -0.0794809851568855 -0.0315340497506621 -0.0365914070544545 -0.000582097454793385 -0.0449855403159803 0.0544410244138078 0.0998181435388209 -0.0210537244625491 -0.0246458108322127 -0.0315101385036234 -0.042515997006223 -0.0339742824995332 0.0795200659047338 0.0315286504368147 0.0364829065571388 0.000593924523221166 0.0450585596080127
-4.13947394972328e-05 -6.68486476352827e-06 3.85665274818939e-06 -2.93105608862393e-05 1.72263822752459e-05 3.93378580315318e-05 -2.67394590541131e-05 2.31399164891363e-06 1.97974841073722e-05 -0.359260316113185 0.829966583800983 -0.23633439485813 -0.925095551818372 -0.761461632365444 0.938999299195961 0.358961811190475 -0.829897935382065 0.236358048994985 0.925576604971162 0.761592244338516 -0.939325057798091 -2.69285687360696 1.31058470616181 2.09901513986479 3.04981939601278 -1.36943028512423 -0.0782404285228845 2.69194876043986 -1.31067495183612 -2.09901771096663 -3.05002302727788 1.36947733628776 0.0782206310387772 -0.0467151205184516 -0.420178203152302 -0.93324260219383 0.033574990385004 0.388818988326225 -0.952423021861492 0.046685295737199 0.420154549015447 0.933213034522761 -0.0334706036506196 -0.388870667473051 0.952520723731113 1.79970957604441 0.0601506702524106 -0.903027527683049 -1.05384373317228 0.343348795314889 -0.702811200032079 -1.79957382186767 -0.0601357578617843 0.90303241277653 1.0547898986465 -0.343186044568915 0.703114332938087 1.05549052389575 1.26974609599087 -0.322561694112331 -0.404403464971475 -0.804875458131446 -0.00620921092458491 -0.644918471408642 1.11224116908536 0.824021939254924 0.552004764729813 -1.1935514931958 0.223071880277473 -1.05556405740815 -1.26981423018942 0.322539325526392 0.404398322767811 0.804722734682617 0.00618684233864542 0.644976064089682 -1.11234864114194 -0.824103186072819 -0.552113522337312 1.19360805743611 -0.223060567429411
-2.80250099701762e-05 -1.54266109927576e-05 -1.54266109927576e-06 1.54266109927576e-05 1.28555091606313e-06 1.15699582445682e-05 -1.95403739241596e-05 2.67394590541131e-05 1.10557378781429e-05 -1.29963464056897 -0.244997465371296 -0.0477998683814257 -1.16439314153803 0.371099468719577 0.0029017455277377 1.29961072932193 0.244909533688637 0.0479513062793379 1.16454509365631 -0.37109252674463 -0.00284029619394988 -0.763134134107242 0.805753232296934 2.63497185828902 2.02975402738043 1.53065482505028 1.55483012424721 0.761973281630037 -0.806202403787006 -2.63518680240219 -2.02987564049709 -1.53040877060494 -1.55502655642718 0.206614514560216 -0.989780874372103 -0.839448550247681 0.569369986503994 -0.541951242345833 -1.11447262836546 -0.206664908156125 0.989761076887996 0.839324366029189 -0.569407524590743 0.541892364113877 1.11446542928033 1.69153997953448 -0.099774691917858 0.135065121445257 0.837857552433961 0.39425995402337 0.0873958650369029 -1.6915227531522 0.0997762345789573 -0.135067178326722 -0.83641850673852 -0.394223958597721 -0.087157781007248 1.21653482958336 1.8997442063575 -1.10583578309098 -0.650811179697692 -0.361157275044928 -0.235849227942407 -0.365319631800957 1.21005719562751 0.239933937423106 0.0457396444833429 0.574539186737483 0.584094172476214 -1.21653148715098 -1.89965858866649 1.10573062502605 0.650876228574045 0.361306913171558 0.235875453181095 0.365004671826522 -1.20978671571477 -0.239815409628645 -0.0456740813866237 -0.574732019374893 -0.584060748152397
-2.15972553898606e-05 -9.25596659565453e-06 -2.41683572219868e-05 -5.14220366425252e-06 3.59954256497676e-06 3.08532219855151e-06 -1.10557378781429e-05 1.61979415423954e-05 -1.4398170259907e-05 -1.27646052842546 -0.240766974416715 -0.0668833575100164 -1.13536025964966 0.364281163770961 -0.0310152014009391 1.27644304493301 0.240752062026089 0.0668062244550526 1.13538699910871 -0.364254938532274 0.0310650807764823 -0.74085090874857 0.814457697549597 2.72068853671936 1.9727907520693 1.49234180820903 1.66666199820682 0.739646347540219 -0.814917667667364 -2.72037640495694 -1.97283703190228 -1.49210063885718 -1.66662728833209 0.194451146012793 -0.992161200448286 -1.0457031105514 0.569295938771228 -0.533886724339185 -1.32000239506271 -0.194480970794046 0.992113892174575 1.04538223704275 -0.56937692847894 0.53380624885184 1.31993143265214 1.68467693741398 -0.100314366192421 0.107270482199239 0.823936064453731 0.394420390777695 0.0592839518248008 -1.68469390668607 0.100304853115642 -0.10728976546298 -0.822472593290884 -0.394386966453877 -0.0590636083977876 1.19492163336214 1.86772267569946 -1.04183000275148 -0.626211648698458 -0.321657180487789 -0.177236847916158 -0.342036504939772 1.18825168098924 0.188964157592852 0.0355125727256943 0.586838052351459 0.532060984928193 -1.1948349872304 -1.86752727196022 1.04164359786866 0.626262813624917 0.321762595662906 0.177269500909426 0.341793278706452 -1.18802285292618 -0.188914535327492 -0.0354637217908839 -0.587066623304335 -0.532050957631047
0.0108371942224122 -0.0275388146137211 -0.00360365632790816 0.0293511842951869 -0.00673165881687297 -0.035908779518025 0.0191580510817224 0.0294041489929287 -0.00433359213804881 -0.53902430002014 0.0603972389181115 0.0971395696501118 0.441321659068793 0.144615222090506 -0.363496977712163 0.385864020990562 0.0151041948230089 -0.186101749923146 -0.488267664531769 -0.17346838396081 0.32544029972358 0.759781674428333 0.88238517951364 -2.09735806473399 -0.986247152014029 1.85947226703035 3.50755394073713 -0.836838881888073 -0.852189902486966 2.2249911592233 0.898889082174058 -1.79435705625029 -3.31665862855817 0.0582431698031561 -0.443587828223629 0.818793860789478 -0.0290449660669807 -0.549925257567989 -2.32267168869889 -0.188188199059917 0.426772308021157 -0.966604705347134 0.0558165638939954 0.542545166869054 2.21245395246949 0.62632066341614 -0.291556777118721 0.645693401500845 0.611423956510983 0.913333532266944 -0.388101908025245 -0.349254102002916 0.217253733941554 -0.46656807928899 -0.605279537352568 -0.909127981000135 0.373737419199339 0.0296476323364311 -0.565002712931944 0.524436382445022 -0.863368796142868 -0.99903221298446 -1.04689661602187 0.776546029704346 -0.214917373706701 -0.276224268453019 -1.05262760200568 1.80328932112528 -0.228087328621401 0.0237227852744793 0.513508171217753 -0.553035519454312 0.85232231423132 0.866642580105714 1.03853050777032 -0.697759242042134 0.263802247061284 0.210107870619526 1.05665343325442 -1.71108909520487 0.276772684473811
0.000158894093225403 -0.000115956692628894 2.05688146570101e-05 0.000105929395483602 -6.9419749467409e-06 6.68486476352827e-06 0.000123155777758848 0.000126241099957399 2.72536794205383e-05 0.582705006156316 0.151691665663067 0.067331500559356 0.139449107179215 -0.576425347041531 0.247369563921616 -0.583888998550011 -0.152118211457017 -0.0681213430421852 -0.13999932297129 0.576209888707999 -0.247439755001633 0.223249800524256 2.38921797475872 -0.175973665586034 1.5582854279994 0.929482108654162 -3.08656738316881 -0.222532977333459 -2.38905728089421 0.175974179806401 -1.55810159421841 -0.929400090505717 3.08687745804976 -0.316495693559796 -1.20036954103424 0.36601614328728 0.485429168109102 -0.238694409229838 2.1156753655166 0.31667052848438 1.200226073552 -0.366767676352811 -0.485327866696916 0.23867769706793 -2.11610216842074 1.01347383486533 0.766721078273242 -1.18151590840944 0.597237902152227 -0.108314092432899 -0.14679397378305 -1.01330054260184 -0.766487365116701 1.18260168471315 -0.598717571256616 0.108340060561403 0.146572859025487 -0.557602824748901 -1.44515257651273 -0.540540735880728 0.0968559771180283 -1.20668596690522 0.357830269274157 -0.98543571227581 0.106182649014066 0.0705965427759732 0.858553379521478 -1.47107211119258 0.420061475129124 0.558219117858062 1.44543205528189 0.540730997416306 -0.0968557200078451 1.20655741181361 -0.357614553830441 0.986472380534523 -0.106339486225826 -0.0703867408664717 -0.858731556878445 1.47137421565786 -0.419868642491714