10.396469 0.000000 0.000000 0.000000 6.338906 0.000000 0.000000 0.000000 5.061436
10.215926 0.000000 0.000000 0.000000 6.476392 0.000000 0.000000 0.000000 5.200737
10.148578 0.000000 0.000000 0.000000 6.137835 0.000000 0.000000 0.000000 5.025104
10.360954 0.000000 0.000000 0.000000 6.214059 0.000000 0.000000 0.000000 5.031404
10.251989 0.000000 0.000000 0.000000 6.426416 0.000000 0.000000 0.000000 5.117689
10.330100 0.000000 0.000000 0.000000 6.360908 0.000000 0.000000 0.000000 5.030404
10.022381 0.000000 0.000000 0.000000 6.919497 0.000000 0.000000 0.000000 5.168846
10.383173 0.000000 0.000000 0.000000 6.391143 0.000000 0.000000 0.000000 5.070508
10.275489 0.000000 0.000000 0.000000 6.580387 0.000000 0.000000 0.000000 5.228160
9.979548 0.000000 0.000000 0.000000 5.981775 0.000000 0.000000 0.000000 4.915720
10.387930 0.000000 0.000000 0.000000 6.349261 0.000000 0.000000 0.000000 5.037839
10.244910 0.000000 0.000000 0.000000 6.449958 0.000000 0.000000 0.000000 5.164097
10.428699 0.000000 0.000000 0.000000 6.320774 0.000000 0.000000 0.000000 5.074817
10.416171 0.000000 0.000000 0.000000 6.468557 0.000000 0.000000 0.000000 5.267159
10.504752 0.000000 0.000000 0.000000 6.324993 0.000000 0.000000 0.000000 5.078717
10.314711 0.000000 0.000000 0.000000 6.275784 0.000000 0.000000 0.000000 5.020012
10.538781 0.000000 0.000000 0.000000 6.305215 0.000000 0.000000 0.000000 5.049704
11.002708 0.000000 0.000000 0.000000 6.738772 0.000000 0.000000 0.000000 5.430513
10.325173 0.000000 0.000000 0.000000 6.278208 0.000000 0.000000 0.000000 5.147367
10.649061 0.000000 0.000000 0.000000 6.350897 0.000000 0.000000 0.000000 5.068477
10.583071 0.000000 0.000000 0.000000 6.698347 0.000000 0.000000 0.000000 5.400957
10.468590 0.000000 0.000000 0.000000 6.351314 0.000000 0.000000 0.000000 5.084153
9.942610 0.000000 0.000000 0.000000 6.016227 0.000000 0.000000 0.000000 4.834771
10.631552 0.000000 0.000000 0.000000 6.735454 0.000000 0.000000 0.000000 5.329405
10.565519 0.000000 0.000000 0.000000 6.808001 0.000000 0.000000 0.000000 5.370476
10.617282 0.000000 0.000000 0.000000 6.391462 0.000000 0.000000 0.000000 5.090921
10.114975 0.000000 0.000000 0.000000 6.073888 0.000000 0.000000 0.000000 4.890938
10.463009 0.000000 0.000000 0.000000 6.336111 0.000000 0.000000 0.000000 5.037712
10.463478 0.000000 0.000000 0.000000 6.398720 0.000000 0.000000 0.000000 5.102555
10.566933 0.000000 0.000000 0.000000 6.438629 0.000000 0.000000 0.000000 5.093181
10.611542 0.000000 0.000000 0.000000 6.329390 0.000000 0.000000 0.000000 5.086787
10.765788 0.000000 0.000000 0.000000 6.453565 0.000000 0.000000 0.000000 5.120303
10.406300 0.000000 0.000000 0.000000 6.218700 0.000000 0.000000 0.000000 4.946900
10.406300 0.000000 0.000000 0.000000 6.218700 0.000000 0.000000 0.000000 4.946900
10.406300 0.000000 0.000000 0.000000 6.218700 0.000000 0.000000 0.000000 4.946900
10.406300 0.000000 0.000000 0.000000 6.218700 0.000000 0.000000 0.000000 4.946900
10.406300 0.000000 0.000000 0.000000 6.218700 0.000000 0.000000 0.000000 4.946900
10.406300 0.000000 0.000000 0.000000 6.218700 0.000000 0.000000 0.000000 4.946900
10.406300 0.000000 0.000000 0.000000 6.218700 0.000000 0.000000 0.000000 4.946900