5.04683 6.07503 2.71642 10.3957 3.17417 4.83498 2.97736 4.66768 4.95181 2.28135 1.49713 2.48278 7.57731 1.44703 0.00687572 8.18346 4.5404 2.27482 1.08004 4.75532 2.21103 4.10587 1.58404 4.81638 9.1706 1.55743 2.75284 6.32891 4.61356 0.219848 1.37657 4.836 3.71617 3.85402 1.40862 1.29545 9.14122 1.42365 1.13145 6.23457 4.72112 3.75806 4.90241 4.71746 0.890157 0.406838 1.59145 3.06627 5.59182 1.80544 4.20062 10.0573 5.18369 1.97584 1.99805 5.78508 1.51778 3.46974 0.189383 4.12865 8.48236 2.93503 3.33698 7.04983 3.4146 0.775005 8.23337 0.49387 3.37431 7.06052 5.78762 0.941555 1.76579 3.50641 1.57035 3.21152 2.78395 4.22188
5.15766 6.119 2.55441 0.316676 2.77429 5.0339 3.07447 4.66423 4.74275 2.34841 1.56285 2.51573 7.24335 1.41601 4.98109 8.21481 4.86483 2.89418 1.20446 4.66106 2.15683 3.9888 1.43112 4.97002 9.00223 1.62663 2.63088 6.46971 4.78732 0.175133 1.47514 4.78874 3.72736 3.95995 1.27412 1.27447 8.85007 1.54064 1.15731 6.61308 4.71599 3.70874 4.85174 4.67112 0.482468 0.263256 1.66601 2.85126 5.3839 1.55134 4.41051 9.85458 4.92505 1.95675 2.1613 5.79894 1.42303 3.32854 0.233291 4.10301 8.47794 2.76232 3.5568 7.21111 3.59064 0.817174 8.49327 0.381472 3.50635 7.11892 6.0123 0.611028 1.69205 3.30847 1.50443 3.14069 2.73505 4.23099
4.88294 5.70299 2.48494 10.1877 3.12347 -0.0879851 2.94215 4.84031 4.74457 2.21659 2.00644 2.68649 7.26862 1.34572 0.0816972 8.14879 4.47743 2.55908 1.37933 4.44895 1.9623 4.18602 1.6426 4.63186 9.06302 1.52731 2.72894 6.38982 4.77328 0.333585 1.51868 4.5497 3.48264 4.20664 1.51442 1.19567 8.94721 1.33048 1.28253 6.61367 4.60271 3.88801 4.91231 4.90016 0.446514 0.459026 1.36048 2.9009 5.65645 1.55332 4.15795 9.936 4.68361 1.73698 2.08778 5.64511 1.33408 3.24347 0.530099 3.85475 8.45678 2.80371 3.57567 7.02839 3.41523 1.12137 8.56371 0.304954 3.67875 7.08316 5.89255 1.31253 1.8278 3.02761 1.31504 3.57505 3.0777 4.04773
5.26784 6.20089 2.60768 10.2623 3.16831 0.149418 3.01774 4.63657 4.97467 2.17206 1.53117 2.20987 7.53424 1.30884 4.92685 8.1742 4.48937 2.46889 1.07961 4.62871 2.19777 4.11481 1.73116 4.56363 9.16173 1.56902 2.84026 6.37421 4.75818 0.40342 1.26956 4.69879 3.7212 3.7248 1.31816 1.02272 9.05315 1.65446 1.23161 6.3553 4.95416 3.91511 4.85083 4.89739 0.888835 0.320654 1.52828 3.28791 5.71557 1.51932 4.35086 9.9596 4.65994 1.70816 2.00258 5.85369 1.56977 3.29009 0.631881 3.67248 8.19451 2.67172 3.38648 7.11469 3.51341 1.01918 8.47988 0.236421 3.43555 7.0034 6.18187 1.04823 1.8604 3.47712 1.4338 3.71956 3.20056 4.08722
5.59065 0.213655 2.65773 10.2909 3.38205 0.22049 3.12112 4.63878 4.85849 2.1239 1.5432 2.36747 7.44215 1.51592 4.99561 8.20756 4.76905 2.33452 1.26504 4.76051 2.31828 4.06011 1.33092 4.74131 9.04472 1.63119 2.6875 6.32342 4.62663 0.1491 1.45736 4.75995 3.87458 3.77137 1.054 1.24489 9.00329 1.33429 1.13477 6.69791 4.99893 3.79092 4.7639 4.56009 0.51528 0.253849 1.50657 3.21063 5.44152 1.59381 4.49167 10.0379 4.71215 1.83437 1.85719 5.96517 1.67074 3.28641 0.179459 4.0652 8.50364 2.93828 3.28755 7.34465 3.4196 0.786544 8.12831 0.494349 3.30172 6.90661 5.85557 1.03899 1.95779 3.45 1.64863 3.00654 2.29967 4.23761
5.17614 -0.0814769 2.52363 10.1265 3.30011 5.08745 2.94997 4.82128 -0.116126 2.27743 1.56943 2.40527 7.43318 1.60538 0.173573 8.2122 4.56758 2.5201 1.36895 4.8138 2.19606 3.99778 1.58997 4.68913 9.23711 1.22209 2.80244 6.22521 4.73936 0.148694 1.29428 4.69773 3.89883 3.73051 1.4929 1.24563 8.87559 1.68856 1.29939 6.36359 4.46854 3.57847 4.75894 5.09115 0.603758 0.432161 1.17826 3.06116 5.53235 1.33687 4.4408 10.2727 4.80948 1.79131 2.2511 5.89187 1.48419 3.3243 0.332151 3.91049 8.56071 2.45814 3.67286 6.90136 3.67226 1.0032 8.61054 6.28766 3.12344 7.00023 6.03149 0.690361 1.91309 3.42616 1.51512 3.5004 2.89197 3.99424
4.7955 -0.378619 2.37654 0.599846 3.3986 4.7927 2.91995 5.42589 0.0239442 2.28366 1.50746 2.75811 7.26039 0.875545 0.110071 7.92769 4.4466 2.24901 1.3849 5.11415 2.24331 4.23273 1.54783 4.9405 8.96423 1.39853 2.73694 6.29968 4.65868 -0.129208 1.6361 4.94061 3.82665 4.33187 1.59638 1.30142 8.77527 0.88553 1.2119 6.92075 4.89181 3.65749 4.84304 4.27062 4.99796 0.532535 1.09607 3.11441 5.67401 1.45546 4.3113 9.81246 5.07417 2.13088 2.21628 6.41287 1.76371 3.75243 0.0082859 4.46325 8.3864 2.7738 2.94474 7.16105 3.51812 0.626977 8.38397 0.423336 3.69583 6.71709 5.9304 0.757974 1.98148 3.82553 1.45325 3.39045 2.58386 4.01666
5.14366 0.0331603 2.38185 10.2945 3.08397 4.98142 3.1695 4.85587 5.00439 2.15267 1.55719 2.11459 7.34235 1.36627 4.80241 8.06183 4.69692 2.60452 1.33289 4.78123 2.26946 4.02805 1.573 4.75321 9.21365 1.44935 2.60889 6.4936 4.62187 0.348628 1.68557 4.67883 3.73691 4.02874 1.69732 1.30646 9.34571 1.43324 1.03644 6.46846 4.71041 3.81819 4.97209 4.70731 0.743604 0.269041 1.36515 3.16419 5.57825 1.43627 4.35848 10.0691 4.58275 1.91665 2.14382 5.8018 1.46645 3.34415 0.30267 4.03706 8.37479 2.77159 3.4658 7.14236 3.45811 1.18695 8.43883 0.439108 3.54636 6.97473 6.0307 0.95714 1.70563 3.33239 1.65807 3.18478 2.75412 4.29422
4.78635 6.23068 2.15552 0.398562 2.85657 0.436993 3.00135 4.57219 -0.0754998 2.19865 1.47638 2.27347 7.24808 1.68283 0.0703152 8.33298 4.80525 2.36782 1.42717 4.85967 2.31252 3.9991 1.50238 4.64022 9.20225 1.2334 2.86362 6.41035 4.87966 -0.0753787 1.62136 4.60373 3.80187 3.76985 1.62026 1.04937 8.75579 1.50087 1.35077 6.24174 4.90197 3.59114 4.84083 4.84438 0.315866 0.36933 1.80669 2.98815 5.57217 1.6181 4.20807 10.3562 4.59355 1.92782 1.97875 6.32824 1.728 3.47271 0.212951 4.10363 8.38101 2.08412 3.73944 7.10914 3.64332 0.621853 9.10166 6.34781 3.43817 6.90035 6.22753 0.466295 2.19193 3.66946 1.51724 2.81503 2.51314 4.32434
5.09367 6.00511 2.35436 0.629674 2.3294 0.198965 2.80105 4.74498 4.82281 2.4868 1.73929 2.39421 7.12151 1.67062 0.197468 8.06878 4.41343 2.56628 1.30081 4.7466 2.06422 4.23748 1.88317 4.52648 9.17734 1.29916 2.90333 6.16987 4.69621 0.335441 1.46771 5.01111 3.55819 4.3661 2.10562 1.09307 8.87202 1.34991 1.4807 6.51721 4.83399 3.7304 4.72142 4.67657 0.658737 0.669683 1.6458 3.13838 5.41988 1.50671 3.71328 9.84747 4.6023 1.7071 2.06068 5.83994 1.45888 3.22676 0.63618 3.86785 8.52976 2.59115 3.8549 6.86089 3.32439 0.993839 8.55797 6.08952 3.66493 6.90967 5.70843 1.15845 2.1401 3.4122 1.53311 3.42265 3.16183 3.90677
5.00049 6.22985 2.09383 10.2618 3.26875 5.25773 3.01665 4.93898 0.0436126 2.23286 1.51059 2.56923 7.42728 1.58658 4.77273 8.0248 4.70666 2.51614 1.16093 4.60251 2.18819 4.10182 1.72301 4.69187 9.45337 1.51686 2.8858 6.18011 4.49052 0.12178 1.39703 4.51294 3.7314 3.98232 1.43168 1.15947 9.28578 1.71519 1.41069 6.48636 4.52884 3.61947 4.69966 4.60524 0.670808 0.538283 1.33653 3.51391 5.55036 1.38771 4.32512 10.0316 4.802 1.78797 1.99613 5.78525 1.62598 3.20262 0.43965 3.93898 9.02228 2.93284 3.47956 6.91306 3.26287 0.67262 8.5037 0.277962 3.38384 7.02773 5.71865 0.657703 1.78509 3.46304 1.28412 3.42056 2.88904 4.0797
4.9349 6.04099 2.57102 0.077695 2.89868 5.05214 3.00224 4.70551 4.98204 2.46947 1.27536 2.10107 6.7964 1.2656 0.448653 8.27734 4.67637 2.59522 1.27981 4.85074 2.0131 4.15402 1.93922 4.63878 9.24749 1.44428 2.49721 6.35545 4.60356 0.39826 1.70623 5.18953 3.53905 4.0528 1.77148 1.09302 8.98943 1.52648 1.00017 6.67576 4.77557 3.9804 4.90294 4.78271 0.480347 0.503648 1.14469 2.97638 5.63473 1.57346 4.14034 9.90547 5.09461 1.79426 2.3048 5.79897 1.18509 3.29728 0.737567 4.09097 8.79092 2.75004 3.33798 7.13713 3.66727 1.44349 8.21455 0.429477 3.38041 6.76448 5.95069 1.12462 1.61318 3.41101 1.45502 3.52802 3.25171 3.88309
5.07269 0.148434 2.43125 10.4188 3.22483 0.141914 3.16831 4.70061 4.86157 2.12241 1.65414 2.52126 7.4292 1.30844 0.0951597 8.17598 4.70367 2.55625 1.26354 4.91623 2.18058 4.03929 1.52515 4.81879 9.25142 1.54938 2.47853 6.24336 4.56856 0.292641 1.32579 4.65562 3.80909 3.78321 1.72827 1.33833 9.05539 1.33184 0.890968 6.31361 4.69434 3.90938 4.75072 4.55094 0.813753 0.283886 1.7954 2.77554 5.47319 1.0444 4.54565 10.1965 4.98797 1.55586 2.06166 6.11277 1.78501 3.03753 0.368796 4.24898 8.59314 2.86868 3.13948 6.74942 3.0965 0.748615 8.51892 0.486915 3.33802 7.44901 5.43188 0.899756 2.01578 3.79813 1.49965 3.39001 2.76005 4.03459
4.13814 4.39485 2.76346 0.0109678 3.06756 -0.104489 3.09685 4.90591 -0.153564 2.25942 1.4454 2.18805 7.0283 1.7183 0.713362 8.24104 4.87886 2.46676 1.4345 4.72498 2.08198 4.05042 1.59082 4.80249 9.25229 1.52285 2.47546 6.32341 4.95408 0.131975 1.58935 4.54131 3.5523 3.67272 1.87486 0.937467 9.13799 1.68069 0.987103 6.43462 4.59638 3.84481 4.7882 4.52651 0.547271 0.443825 1.267 2.7845 5.65913 1.64225 4.74045 10.304 4.66692 1.85316 2.19186 6.04717 1.48836 3.46956 0.195481 4.39085 8.78106 2.77638 3.10726 7.14355 3.81038 1.11625 8.43841 0.348037 3.15041 7.15161 6.29312 0.65099 2.03124 3.70133 1.22632 3.51706 2.58518 3.68029
5.25336 5.92192 2.33348 0.22597 2.94313 4.93221 2.87285 4.83189 4.94628 2.42519 1.60311 2.33179 7.2721 1.35016 4.97005 8.31125 4.81721 2.83353 0.983671 4.75911 2.16464 4.06647 1.48042 4.69764 9.27861 1.74125 2.89129 6.42272 4.56422 0.202361 1.39554 4.58676 3.67485 4.2172 1.54739 1.13979 8.96585 1.64195 1.36608 6.65332 4.96722 3.70863 4.84893 4.65707 0.39969 0.287629 1.72079 3.06105 5.48558 1.24337 4.07115 9.98558 4.67231 1.75194 2.02255 5.8338 1.74886 3.14212 0.299634 3.99897 8.65856 3.06129 3.40788 6.64836 3.0402 0.834623 8.66245 0.658121 3.81244 7.10796 5.64732 0.851353 1.74072 3.40574 1.44871 3.15 2.7381 4.10477
5.17917 0.215513 2.62246 0.242093 3.38593 4.95379 3.00138 4.77956 4.86065 2.12475 1.72908 2.60037 7.41345 1.64431 4.80035 8.19339 4.65176 2.57462 1.25781 4.79461 2.08073 3.99013 1.4028 4.72365 9.29881 1.34208 2.72775 6.35852 4.50017 0.332674 1.41342 4.89173 3.6313 3.9202 1.05834 1.13559 9.44646 1.43362 1.27376 6.82507 4.39928 3.8639 4.96578 4.7849 0.415906 0.380182 1.43177 3.4493 5.46879 1.78058 4.3044 9.86096 4.64074 1.82483 1.80251 5.94298 1.25522 3.13179 0.350058 3.88348 8.65818 2.68294 3.28898 7.05625 3.19377 0.909343 8.35031 0.228019 3.29163 7.0731 5.46214 1.26007 2.08898 3.56177 1.39528 3.31465 2.78629 4.18568
5.13452 6.24985 2.41613 0.0291373 3.37489 4.87964 3.06714 4.61173 4.9301 2.0935 1.42668 2.51757 7.48695 1.54636 4.99019 8.31738 4.49714 2.4133 1.02112 4.71513 2.07594 4.16935 1.58696 4.9758 9.10468 1.44863 2.69364 6.44046 4.76138 0.342857 1.32494 4.7903 3.65646 3.88464 1.61382 1.3891 9.11125 1.56393 1.1153 6.46694 4.59709 3.85998 4.74894 4.694 0.80809 0.0674496 1.75437 2.96213 5.63906 1.3971 4.73613 10.0934 4.93413 1.70498 1.90101 6.02348 1.39444 3.19448 0.497336 4.12066 8.47968 2.85018 3.43595 7.04023 3.46297 0.99512 8.34851 0.440682 3.52646 7.12243 5.85741 1.09084 1.88387 3.60191 1.36928 3.37641 2.79205 4.01751
4.13495 4.96397 2.57798 10.5424 2.75289 0.180115 2.65399 4.17702 -0.0996382 1.95756 1.3607 2.27196 7.58555 2.10413 0.217669 8.51773 5.29032 1.99053 0.79218 4.54983 2.073 4.71962 2.43534 -0.0784941 9.28194 1.03703 2.69387 6.10065 5.63933 5.14247 1.04929 4.27076 3.61736 4.1184 1.89573 1.24464 8.86768 1.07213 1.25677 6.67995 5.25611 3.79581 5.23114 4.69094 0.517757 -0.179069 1.49583 2.65773 5.98335 1.71332 4.84836 10.2376 4.45738 1.94644 1.75079 5.69624 1.4004 2.73872 0.307304 3.53274 8.60019 1.83096 3.84792 8.24032 3.51383 1.47667 9.10217 6.31976 3.3945 7.02157 -0.156942 0.476039 1.52205 3.19187 1.10045 3.83969 2.87854 4.18798
5.70622 0.507903 2.5478 10.1332 3.0934 0.588163 3.11461 4.47263 0.151418 2.50404 1.76822 2.63397 7.41724 1.39433 4.80896 8.09032 4.41931 2.20623 1.18604 4.82438 2.46755 4.1375 1.53962 4.70986 8.95684 1.50479 2.66229 6.23424 4.55286 -0.130108 1.49107 4.76205 3.96516 3.96761 1.35872 1.06529 8.85962 1.65834 1.17169 6.05615 4.70389 3.46542 4.94177 4.40384 0.795901 0.157345 1.54363 2.8499 5.66705 1.77958 4.15038 10.0502 4.74068 1.83402 1.79652 6.05346 1.64183 3.66707 0.381595 3.7551 8.42257 2.72341 3.41637 7.30994 3.67692 0.576749 8.26714 0.275361 3.38213 6.76371 5.94045 0.417933 1.66915 3.38764 1.95553 3.08546 2.66478 4.42236
5.00206 0.271716 2.32922 10.4022 3.03152 4.8353 2.88812 4.65812 4.78513 2.22345 1.52982 2.2285 7.48076 1.65062 0.0389881 8.04285 4.61938 2.65103 1.24002 4.54331 2.42782 4.21003 1.66701 4.62088 9.40755 1.46573 2.77075 6.12569 4.72574 0.311366 1.22704 4.40565 3.96714 3.98947 1.73028 1.1548 9.0243 1.61281 1.20387 6.48282 4.38598 3.75957 4.70979 4.66854 0.72739 0.333316 1.87648 3.18735 5.57037 1.72463 3.97358 10.3714 4.69894 1.89232 2.02543 5.85908 1.99386 3.39528 0.31185 4.27735 8.47417 2.39927 3.49779 7.2621 3.65969 1.02809 8.86916 6.51085 3.19861 7.08937 5.97126 0.818462 1.78738 3.36082 1.51799 3.28606 2.66405 3.80821
5.3927 0.874268 1.52402 10.2498 0.240787 0.051043 3.1356 4.17938 -0.0131175 2.24775 1.55561 1.77721 7.20406 1.95388 4.10645 7.79851 4.76874 3.37638 0.967955 5.61561 2.60933 3.88191 1.67331 4.21979 10.08 2.30409 2.56458 6.21766 3.99686 0.920938 1.95153 5.49392 3.68143 3.34627 1.32675 0.285937 9.66796 2.21268 1.11401 6.70787 3.80123 4.72057 4.74402 4.66663 0.558809 0.874407 2.01367 3.30932 5.33762 1.26611 4.61935 10.1448 5.10572 3.01871 1.27241 6.22116 1.30951 3.54142 0.71207 3.06097 8.99565 2.84402 3.39354 6.40303 3.00921 2.06845 7.68056 0.247534 3.86934 7.36026 4.92528 1.38062 2.35273 3.53902 1.63668 3.37379 3.03371 3.85121
6.06861 0.687765 2.64521 10.4991 4.77826 4.62912 3.12698 4.86982 4.71015 2.05242 1.27425 2.25068 7.4208 1.66289 0.14069 7.97984 4.25754 2.48751 1.20734 4.45781 2.07964 4.11622 1.5797 4.93249 9.18629 1.45877 2.70113 6.18663 4.57 0.478728 1.77478 4.17988 3.44652 3.73349 1.71336 1.29988 8.90453 1.69802 1.17418 6.63374 4.68617 3.91995 4.79958 4.61964 0.905037 0.178086 1.39756 3.12447 5.79233 1.25555 4.60122 10.1472 4.36839 1.85274 1.89487 5.8387 1.48874 3.23449 0.392534 4.22946 8.2947 2.85092 3.47296 6.77531 3.33663 1.29104 8.48073 0.247921 3.23705 7.05004 5.70756 1.1351 1.78629 3.3069 0.995287 3.74062 2.92609 4.28535
4.92034 5.95671 2.36779 9.66778 2.96938 0.186796 3.13341 4.76808 4.78749 2.32181 1.5174 2.08414 7.14678 1.59721 0.39855 8.1632 4.5368 2.65677 1.18918 4.58606 2.11442 4.1654 1.89922 4.5216 9.3092 1.3129 3.06173 6.38821 4.65225 0.201582 1.33179 5.06621 3.69061 4.26026 1.79424 1.2252 9.21035 1.24598 1.49853 6.42673 4.78983 3.50374 5.09689 5.007 0.719292 0.821442 1.37383 3.47302 5.66082 1.50103 4.12976 9.60344 4.61912 1.47814 1.9845 5.90466 1.23181 3.45638 0.769395 3.75603 8.46864 2.74543 3.31448 7.15158 3.3864 0.8042 8.53648 0.246958 3.92614 7.17136 5.72131 1.01768 1.67158 3.26361 1.55239 3.38255 3.13325 4.01051
4.94985 0.0872653 2.02342 10.2016 3.55886 0.159472 3.17529 4.76207 -0.145747 2.21752 1.54463 1.89735 7.50449 1.53371 -0.0351179 8.1626 5.17516 2.97355 0.711902 5.04462 2.46937 3.94124 1.40774 4.19173 9.45502 1.30537 3.27007 6.46716 4.53013 0.244901 1.4783 4.81777 3.73237 3.87734 1.10532 0.447924 8.6229 1.76179 1.94026 6.71868 4.49669 3.88545 4.95945 5.09845 0.399693 0.404354 1.72388 3.02279 5.40475 0.965616 4.11099 9.91459 4.72772 2.22456 1.55517 5.81349 1.36323 2.83986 0.426166 3.56689 8.86462 2.28938 4.39934 6.95669 3.03892 0.66 9.29222 0.0547499 3.89921 7.23866 5.6379 1.1215 1.43926 2.72301 0.889743 3.48943 2.63237 3.22914
4.98743 5.10669 2.51566 0.154124 3.46001 4.98406 3.36481 4.32475 0.198477 1.50951 1.37345 1.70962 7.7676 1.1203 -0.0433324 8.5002 4.84147 3.03717 1.16623 5.22562 2.15754 3.7141 1.85263 4.26496 9.42589 1.71113 2.78162 6.30207 4.06585 -0.00575272 1.59597 5.12088 3.72199 2.86896 1.67889 0.165494 8.97548 1.40756 1.29471 6.92993 4.73183 4.10131 5.14293 4.75693 0.684583 0.24554 1.9663 3.1947 5.10251 1.50638 4.14013 10.2193 5.06059 2.16101 1.58664 6.36617 1.30032 2.53928 1.3033 3.43231 8.58485 2.96845 3.74885 6.57781 2.88666 0.708435 9.05028 0.506846 3.73642 7.51111 5.80574 1.75406 1.71565 3.84424 1.43365 3.59945 3.59558 3.96771
5.31301 0.311398 1.99336 -0.030962 3.02334 0.038568 2.96878 4.62405 4.70229 2.22844 1.75746 2.5895 7.7107 1.33841 4.80874 8.04996 4.43278 2.698 0.956229 4.94427 2.69946 4.07039 1.62193 4.77191 9.44055 1.08651 2.49904 6.16187 4.81203 0.311681 0.954051 4.69627 4.32542 3.78051 1.71437 1.19845 9.41169 1.0205 0.973155 6.32649 4.84399 3.7651 4.65842 4.9707 0.733901 0.36554 1.29618 3.04347 5.58833 1.54908 4.4557 10.1871 5.112 1.80452 2.08924 5.84045 2.09536 3.15509 0.376518 4.10133 8.63734 2.51527 2.93742 7.12967 3.61613 0.726872 8.24617 0.0552698 3.07703 6.89676 6.08805 0.72549 1.5227 3.46718 2.12592 3.55357 2.93503 3.9897
5.02188 0.35041 2.46014 10.3151 2.90038 0.18541 2.93781 4.95154 4.61745 2.42484 2.099 2.3396 7.38617 0.905608 0.123844 8.03273 4.06144 2.42087 1.03548 5.00012 1.95768 4.73299 1.18387 4.83577 9.12561 1.63215 2.93456 6.14831 4.36256 0.495229 1.13231 5.26353 3.51528 4.4845 1.98047 1.11434 8.78934 1.66072 1.43617 6.58917 4.52919 3.89511 4.65555 4.51933 0.897498 0.473996 1.60098 3.28846 5.94882 1.5127 3.9616 9.81745 4.93183 1.21759 2.04151 6.08992 1.25337 3.50018 0.786836 3.90982 8.67036 3.01737 3.71436 6.78835 3.04639 1.07045 8.67719 0.484253 3.79487 7.10917 5.43803 1.17079 1.80722 3.61077 1.65725 2.45207 3.10722 3.99713
4.8129 0.193437 2.71208 0.417497 2.10496 4.8198 2.93914 4.91335 4.97782 2.4339 1.66385 2.71145 7.69835 1.98339 4.80283 7.98192 4.6739 2.51449 1.10679 4.31053 2.40066 4.15185 1.90756 5.00805 9.20348 1.30253 2.37148 6.36367 4.6946 0.133764 1.29523 4.59432 4.05879 3.90081 1.85965 1.48678 9.11647 2.07972 0.931937 6.32158 4.72265 3.5592 4.94901 5.11866 0.513065 0.0700541 0.838361 2.81109 5.50721 1.56826 4.25783 10.0164 4.28482 2.06096 2.19612 5.30273 1.60776 3.20878 0.748936 4.45525 8.66715 2.6428 3.25586 6.51107 3.2338 0.687454 8.14078 0.187516 3.00493 7.55808 5.38891 0.595265 1.31334 2.84954 1.62993 3.17342 3.05262 4.20363
4.88411 6.03509 2.33707 0.0254456 2.99617 0.284402 2.65507 4.90626 5.00806 2.40084 1.39515 2.57437 7.33288 1.61246 0.213351 8.21513 4.67447 2.40995 1.2994 4.54853 2.05646 4.20426 1.90641 4.82228 9.31175 1.09106 2.77392 6.27756 4.85946 0.141854 1.14794 4.48328 3.61008 3.92457 1.96288 1.35509 8.88693 1.1283 1.22839 6.40603 4.65998 3.69688 4.73689 4.41434 0.456645 0.433631 1.47963 2.73986 5.63363 1.66506 4.59513 10.2663 4.88947 1.44869 2.1067 5.73521 1.52818 3.31119 0.674073 4.0448 8.78339 2.37643 3.63626 7.38983 3.70724 0.645239 8.58376 6.31278 3.52681 6.79616 6.1126 0.791115 1.96027 3.3106 1.22379 3.53495 2.97512 3.94318
5.17727 -0.104986 2.37635 9.95374 4.02938 4.60362 3.21663 5.13533 4.99019 2.13805 2.08014 2.63966 7.74874 0.629383 -0.0177315 7.85563 4.14627 2.6983 1.18807 4.98671 1.94356 3.94614 1.45614 4.81206 9.34991 1.37876 2.57447 6.27602 4.6411 0.261368 1.05608 5.20104 3.42142 3.39202 1.22721 1.25329 9.291 1.24174 0.981917 6.382 5.07567 3.82109 4.76334 4.35602 0.760779 0.327962 1.71195 3.07871 5.56244 1.83154 4.99879 10.1551 4.64592 1.63421 1.71791 5.81887 0.660363 3.69817 0.259024 4.03208 8.79921 2.56747 3.27201 7.19679 3.42108 0.626257 8.67955 0.17122 3.38837 6.7288 5.89295 1.25685 2.44514 4.01019 2.02222 3.17326 2.65547 4.2255
5.70904 2.40061 2.35395 0.029516 3.17727 4.71563 2.95979 4.76258 4.91618 2.1133 0.882349 2.41683 7.73805 1.08092 4.94438 8.33825 4.52577 2.86231 1.04086 4.34857 2.08441 4.14408 1.88879 4.94968 9.05038 1.36864 2.6758 6.29206 4.87328 0.485744 1.24959 4.85173 3.57943 3.81925 1.44441 1.44368 9.23891 1.47172 0.914958 6.57398 4.64508 3.99533 4.70916 4.99764 0.592096 -0.0148283 1.59428 2.94436 5.55632 2.12866 4.33613 10.02 4.09589 1.82736 1.68905 5.50053 1.15196 3.25863 0.695195 4.14865 7.94004 2.33431 3.18021 7.05673 3.81283 1.36054 8.60493 -0.0384824 3.52939 7.16121 5.95278 1.04747 1.67847 3.15307 1.07325 3.43788 3.28847 4.14521
4.79291 5.88617 2.10128 0.284264 3.44679 4.62564 3.1191 4.35046 4.75328 2.36534 1.79618 1.9539 7.61339 1.01 0.59749 7.98397 5.06498 2.79484 0.645115 5.83263 2.71946 4.30767 1.29454 4.42822 9.26437 1.73115 3.05887 6.55131 4.09687 0.01521 1.32516 5.52972 4.0906 3.91431 1.3442 0.754628 9.20216 1.69841 1.58702 6.37135 4.53802 3.63619 4.95591 4.25742 0.15166 0.0426288 1.48284 3.48623 5.64839 0.924184 4.30069 10.0165 5.27887 2.73099 0.994717 0.0282022 1.29526 3.34539 0.458779 3.53514 8.66121 3.06889 3.51587 6.6048 2.58945 0.44302 8.60004 0.654405 3.96365 7.12944 5.30749 0.830008 1.94908 3.35212 1.00626 3.56109 2.74819 3.60294
5.10936 6.06579 2.6429 -0.143274 3.04803 -0.15453 3.03827 4.75948 4.84111 2.24698 1.7572 2.35303 7.67748 1.34182 4.94505 8.03456 4.59011 2.49983 1.1669 4.76547 2.29337 4.00529 1.75548 4.73611 9.2802 1.35234 2.76198 6.33626 4.60277 0.203175 1.20334 4.90125 3.82033 3.83281 1.68932 1.22889 9.41563 1.46484 1.26178 6.46716 4.55315 3.60377 4.94526 4.72923 0.736909 0.32194 1.3598 3.31495 5.40375 1.82672 4.28039 9.99458 4.83121 1.73876 2.05646 5.81775 1.50484 3.54097 0.566402 3.80432 8.70028 2.72821 3.48026 7.13875 3.39329 0.787455 8.44296 0.297766 3.47074 7.08192 5.8387 0.82717 1.47595 3.32949 1.71791 3.04278 2.93656 4.05626
5.07252 6.05519 2.62778 0.293253 2.90599 4.81564 2.82836 4.6704 -0.0217022 2.05596 1.54513 2.22029 7.50175 1.39197 4.78322 8.04694 4.85352 2.64309 1.09707 4.73211 2.32339 4.19219 1.56411 4.71554 9.29206 1.65802 2.55848 6.43463 4.59086 0.462807 1.33279 4.81241 3.74846 4.30743 1.57671 1.33863 9.03784 1.64357 1.03215 6.7339 4.94913 3.93313 4.80118 4.57761 0.300564 0.409232 1.55478 2.94317 5.62913 1.32846 4.21961 10.1038 4.92093 1.90665 1.88579 5.89393 1.44996 3.40346 0.333196 3.98071 8.67158 2.98373 3.11562 6.97935 3.23626 1.02181 8.78004 0.426481 3.49881 6.78329 5.7663 1.43629 1.76682 3.45432 1.54222 3.39426 2.84826 4.26282
5.16872 0.161569 2.23771 0.139618 2.85214 0.163073 3.12414 4.77986 4.79006 2.24603 1.47083 2.36368 7.389 1.58533 4.93317 8.12241 4.67934 2.5437 1.25522 4.79729 2.39479 4.06287 1.5993 4.62437 9.13874 1.63567 2.85165 6.24088 4.48082 0.11232 1.26802 4.62503 3.87973 3.75067 1.34042 1.24271 8.98986 1.61504 1.28436 6.57002 4.75435 3.63061 4.81229 5.01009 0.66775 0.293896 1.64382 3.15922 5.48031 1.16554 4.19985 10.0506 5.03238 1.95459 2.13903 5.92615 1.64279 3.16748 0.42157 3.85515 8.62906 2.9755 3.53845 6.43273 2.9357 0.626915 8.61018 0.234497 3.58685 7.24504 5.50127 0.923191 1.81941 3.48675 1.67743 3.66582 2.98447 4.1563
5.98405 1.93449 2.17983 10.3115 2.89877 4.75263 3.08794 4.6484 4.78053 2.2183 1.30468 2.18157 7.4252 1.18779 4.7444 7.96263 4.70744 2.68755 1.22071 4.51465 2.35273 4.08602 1.60899 4.71605 9.36325 1.44437 2.65811 6.11828 4.67021 0.552885 1.35167 4.49431 3.97072 3.78909 1.94422 1.38201 9.16073 1.55365 1.14057 6.05741 4.67157 4.09362 4.62742 4.67534 1.13213 0.388976 1.60167 3.17476 5.50285 1.41383 4.24535 10.1049 4.45416 2.01974 1.6364 5.8342 1.57303 3.24148 0.560733 4.09193 8.24905 2.5338 3.09283 7.05611 3.5136 1.14287 8.56288 0.228332 3.24456 7.2009 5.82269 1.13016 2.1934 3.61918 1.67149 3.53013 2.94572 3.94908
4.50845 5.28552 2.60854 10.2321 2.92938 -0.00988759 2.70384 4.86836 4.886 2.56788 1.92619 2.33489 7.00634 1.61746 0.384237 8.38789 4.66378 2.84149 1.17734 4.74706 1.98429 4.40305 1.58494 4.49407 9.33456 1.44554 2.70904 6.1973 4.68241 0.250893 1.18153 4.5207 3.68216 4.74398 1.47243 1.01966 9.16106 1.55059 1.16149 6.71863 4.61588 3.76064 4.63762 4.60891 0.36315 0.425139 1.4406 3.0362 5.89781 1.36468 3.74541 10.049 4.93222 1.73875 1.91675 5.99939 1.43076 3.58011 0.339027 4.06408 8.41494 2.70946 3.3535 7.06724 3.41069 0.905671 8.52063 0.205076 3.45195 7.01483 5.71584 1.30291 1.69666 3.44234 1.29278 3.6252 2.9226 3.88836
4.77664 2.71421 2.1809 10.2218 4.14305 4.95757 3.14396 4.82556 4.68651 1.81776 1.30753 1.92937 7.50929 1.32623 0.295558 8.28431 4.9135 2.52955 1.2187 4.28972 2.28596 4.12924 1.49497 4.53524 9.39878 1.30747 3.11434 6.32158 4.48175 0.382306 1.65388 3.91756 3.67136 3.54967 1.24766 1.08102 9.27314 1.36899 1.48605 6.52368 4.51103 3.6756 4.87255 4.86679 0.84829 0.525355 1.09622 3.65891 5.56386 1.17586 4.38645 10.0543 4.50391 2.27364 2.05156 5.30574 1.47405 3.51587 0.594719 3.40223 8.57749 2.54463 3.66454 6.97737 3.25094 0.877992 8.71504 0.0207183 3.92773 7.27478 5.54422 0.954718 1.38594 2.93162 1.26893 3.78442 2.96641 4.27756
4.2461 5.17911 2.97067 0.363989 0.178661 -0.0343458 2.74465 4.47301 0.0954192 2.52242 1.89378 2.61596 7.47031 1.46618 4.78951 7.93798 4.72718 2.63315 1.11535 5.08651 2.20779 4.3402 1.82899 4.65034 9.4213 1.77593 2.41523 6.15514 4.64943 0.290103 0.954082 4.57112 3.74357 4.10124 1.97608 1.26269 9.18876 2.05302 0.949637 6.21777 4.84675 3.59771 4.75273 4.26207 0.965705 0.506855 1.68117 3.10449 5.78963 1.78276 4.13603 10.1345 5.05433 1.58964 2.14663 0.147926 1.53837 3.62585 0.5002 3.98326 8.83191 2.9951 3.30096 7.23609 3.6364 0.765532 8.39471 0.640751 3.08564 6.51336 6.08392 1.20305 1.97327 3.97349 1.65148 3.80626 3.10576 3.79831