-30086.543691877
-30086.1589541273
-30085.1189392426
-30086.5984957121
-30085.8541244702
-30086.738399297
-30085.3398740694
-30085.7068490531
-30084.6889338825
-30084.5918865725
-30086.0448941328
-30083.6459227538
-30085.9149771207
-30084.7657721243
-30085.4828254638
-30085.0555702207
-30085.5904842556
-30076.2757784507
-30084.2816380432
-30084.0338571592
-30078.7450048249
-30083.4156806862
-30082.6381533425
-30078.4405519092
-30076.7943419898
-30083.2946684588
-30079.443849404
-30082.6170310608
-30084.0393149436
-30081.5425524318
-30081.4687787345
-30079.8184551362
-30086.3719783367
-30085.6112073465
-30085.6239985951
-30083.9800099398
-30083.7132322542
-30084.0427609915
-30082.2399622915