0.197953243818332 0.498853919215366 -1.09766816390087 0.376436304792522 0.0324372778242881 0.307628734671342 0.230920939950588 0.715380288448612 1.09968287929652 -0.11794595411641 -0.129546251362598 -0.338691501456175 -1.69098205043691 -0.117248671299538 -0.0847710271764852 -1.03988419288493 1.1392467371791 0.0930854562812151 3.5251551896595 0.614534989727856 0.800636739651002 0.502539336581536 -0.767892986488325 -1.18336761594894 2.07677896566965 0.776745290096336 -2.25035713567869 -3.50025381130518 1.79274754650338 -0.924586473655611 -0.361193527580761 -0.884879405400986 1.36752329889535 0.762327065242138 0.6487005622037 -0.773630657336898 -0.131675123679598 1.05532005984428 2.03170729344229 1.46856400135534 -0.449261478636582 0.304747557958261 -1.06080601982349 -0.643432374549673 -1.31963729860254 -3.28913575477581 -0.0651442642307662 0.405366599717789 -1.98512072801545 -1.33187908575585 2.01993267549189 -2.80259149980211 -1.23419521384787 -0.84337642251662 0.861712749452795 2.18628322114064 -0.917548339500348 0.250412977160303 2.37520212734125 0.473270170434794 1.70872805239242 -1.77793465751795 -0.462846923607354 2.41341152877866 -2.65472589077543 1.27606406452295 0.797156496211036 -0.31002551579925 0.38863052656193 1.51582059591964 1.46632200055773 0.188737129301075 -1.00998896344207 -1.71392450630533 -0.643258568065821 0.301660435988427 -1.22168397522256 0.0827277725504945
-0.272921431039469 0.0534087270282091 -0.169419412795578 -0.414122744117279 -0.121891566987991 -0.259374038375813 0.191862303578025 0.92802532235608 1.61310851814547 -1.22411160957246 -0.293409255988768 0.133976259819351 1.47430887128905 0.773937904005837 0.194401523747433 1.15262700822367 -0.359919289512759 -1.10731082421208 0.936574235947899 2.43847437232804 -0.257888198627027 -2.53344496047257 0.658763083444092 -3.18706738291351 0.414438732532447 -1.28052184087949 2.65015601437901 -3.56164966617489 -5.79295185195532 -3.11836368530635 -0.731832254852021 -0.778691357073072 -1.43424853364269 -0.46480738875435 0.65524633035811 0.6576816780135 -1.77855377883913 0.104362566027104 -2.64987936382187 -1.86488880726009 0.340538323902192 2.62101308933223 2.08007434688788 0.729772802284488 -0.592075643893684 4.6507357492703 -0.35072374381016 1.01616320738173 2.46412625530716 0.0870184272879468 -0.232589070819271 2.23694344031031 -0.748758075323091 -0.300616825754767 -1.83349282567782 -1.78385719058825 0.957474979851437 0.203647463045942 1.02625401074228 0.624490296021849 -1.23277725118746 1.01585158983968 -0.157325206887439 -0.603497506672721 0.0381731489015786 -0.27475256976431 -1.44822298632066 -0.136638635766518 -0.404926941304496 1.08634451721182 4.62790822165377 2.03509909097923 0.211109057672956 0.711449587967657 0.484351876441441 0.861532000993997 -2.54182135313145 1.15792090689602
0.11237257667491 0.476843230650899 0.36500055806359 -0.230336528504145 -0.173061121430602 -0.0148951642440571 1.05265228458327 0.432490181385622 0.49407321246871 1.78411558632238 -3.35133507896806 2.19303699143327 1.45328702848921 0.868061056986498 0.0369037959270578 -0.3148170211736 0.80494384944018 -0.0591204297482776 -4.00731545889924 1.31322471352304 0.407811974670325 -0.590353005666159 1.10936642012686 2.69572750880253 1.12669204693283 -1.81989066854514 5.27053609844017 2.24546715710417 -3.12704346798142 2.60981491241258 -0.1744487450894 -1.02922131936674 0.647298026154275 -0.973019090197923 0.415472058358779 -2.59639916016273 -1.45939005290813 1.3161076900074 -3.48943410057522 1.10938776027207 0.701400436456792 -1.83194707925634 -2.7556843179768 0.227592134408534 0.982939429506999 0.674236231380011 1.26066213610778 1.53991336274776 -0.438177715748469 -0.414669103256605 -0.806059964745506 1.63828371884491 -1.42121381868436 -0.457987541144635 1.10480862790905 -0.473808044938074 -1.13624908955302 1.24523526800484 1.78195380390193 0.825012327680659 1.03545804108093 -1.92605120608345 -1.61757375069732 -0.581483732786056 2.0218116367108 -0.988605366614455 -0.883617765731961 1.23643670042512 -1.08984532946644 -1.35349690996036 -1.47326011885172 -1.87425198880215 -0.963159943112451 4.26288246679222 -2.10345234740668 0.143304217266305 -3.01969508139667 -0.00224688589109514
-0.44074521803803 0.59003136082696 -0.353507989984169 0.159821489656251 -0.269756661794305 -1.05252604348331 -0.304591749187234 1.92402466361936 1.17659044862963 0.034825317205967 -0.637974953800802 0.199318756001374 -0.00810231320357948 0.939344341061832 0.415401867278761 -1.16616411648 0.901888272461234 0.98328447137287 2.26531323503617 2.74845952182853 -0.139782321976659 0.968748490054761 -1.28123814984992 0.890268949061489 1.03751903630956 -2.50020627020721 -3.07584151765573 -2.68935349025051 2.12880983922602 -0.26538656001024 -0.420063017790223 -0.841827590772947 0.0162835592334052 0.936258761753097 1.89588061163436 -1.7052226121545 0.50982892449598 -0.279862891765844 1.87297646518323 1.52514443960366 -1.60716207382812 0.0936973785172612 0.926032975546365 -0.964112279231071 -0.485282615304671 -1.25507024673309 1.15774864307326 -0.609894150920868 -3.30350512869519 0.779113531993907 -0.294366477200868 0.939924124524977 0.0552861455860277 0.499152424138076 -2.04231308849981 -1.64120191942438 -0.158050000493916 1.07419169018191 1.71752173487866 1.03749461084215 1.2290211285209 0.516483193147706 1.00055790481164 -0.16122196882421 1.49281334828504 -0.383550286451832 0.593849447047668 1.00178483460593 -0.280094805151102 -0.228956875261027 -3.94794306117141 0.665949827285251 -0.542111164879791 -1.02466712669149 0.28529665837786 0.361719575015614 -2.85323732080152 -0.332767682834956
-0.43008105896892 -0.0431400034208801 -0.534290387326829 -0.0814802739415468 -0.937020322115773 -1.41982233837281 -1.70961996761799 0.269727351233419 -0.37665304867697 0.901262466275294 -0.785868587837452 0.531475287930834 0.497712607112085 -0.338523351396354 0.476783581088394 -1.02163322652958 0.16966289613908 0.53627039284775 0.485941845814428 -1.61917786113038 0.916062499751563 -7.80453410291683 -2.19043940725227 5.62473494348663 1.20715622143032 -2.13911224426735 -0.768195862284149 2.14165506397932 0.821108623768941 0.967206343175852 -0.899983857334178 -0.832045833852623 -0.75500919520754 1.17829508914433 1.61996127585863 -1.68813172694581 -0.0545618661999178 1.31495532216624 0.440540044111826 -1.38368447368154 -1.6462970719251 1.19076596147088 3.28855417154138 -0.723145530201999 -0.267187616843645 0.441500864866492 0.091530196782962 -0.591078570603185 6.15934928964431 0.89590968937099 -1.33591494430173 -0.766314844183766 0.158124305336864 0.875606726643422 0.926120393008657 1.61071533656012 -0.831839374375503 1.56396370639565 -3.59107669797412 -1.08183069083534 -0.799120046680231 0.878078326834645 0.189291201745899 -2.48536869864419 1.67129152416575 -1.28889463399581 0.218286545547519 0.603143208840255 0.603859003590318 -0.272595672437339 -0.955890409792298 -0.721283795365357 -0.500467285615025 0.817429634157352 0.329014388380418 -0.800353147118919 4.88009988706154 -1.02147818908911
0.164406535553481 0.0160878983839804 -0.144360168788759 0.513333336293168 0.0127382669170863 0.030000644617982 0.212134155973424 -0.359914404419278 -0.0548986805399263 -0.382469395241606 0.256354793494347 0.413863834162784 -2.21067475000165 -0.339851582602831 -0.852564512023907 -0.956387403776447 -1.0692050381785 -0.537852906025423 0.790159499685088 -2.90022832054656 2.49800412148799 1.45128439727217 -1.20533896665537 1.09395317886363 0.75733090016195 4.2330754261422 -1.46349430276276 0.0824495793322584 2.50982450505101 -2.06864991300702 1.16599262398779 0.390020721322561 -3.46837986189231 1.31009234016096 0.59575437639509 -2.6623841746926 1.79927531694496 -0.394579284870921 1.98248817684953 0.0710043195265484 0.813302244386239 2.74898634059393 0.270115073389704 -1.48267832197298 -0.777416604784704 -0.180828677175638 0.711366284268296 -0.191835307008788 -0.433277195656436 1.0935124920096 0.137860166246961 -3.47001071178442 0.202799513661707 -0.817313934574906 -0.909035164223995 -0.282502642016888 1.24237543143697 -0.363704465630016 1.63457413312152 0.468343425104073 0.516763957467774 -1.34877893809841 -0.798791459866085 1.0362854216505 -2.21558221206863 0.449995528209654 -1.54641567928121 -1.16583527255567 1.53875585270294 0.705455064046055 -0.258494978659409 -0.10816214031462 0.139133890094596 1.1436821449497 0.893820669132388 -0.532412711658828 -0.590102066127344 0.447656339762785
0.550926701731602 -0.0643292249499822 0.222724010199586 -0.686235563630544 -0.839231035032683 0.407032159484641 0.487105526503648 -1.24591095356632 -0.249088088386209 1.29893967174374 0.452152682646808 -0.493094136891037 -0.0960561073380538 -0.0201091016494259 -0.954768380952758 0.916089239210617 0.481337773763639 -2.11314205888141 -1.26712742877485 -1.6310946610121 1.55365024561645 0.635868192959557 -0.868632355813597 -1.89322543477232 2.80941366140348 -2.56146997044275 -2.58724578053018 1.98804329946802 -0.916696276353182 1.92388659545098 0.320379857097589 0.711041811217082 -1.58179481182182 -1.4060736284357 0.181723163503035 -0.293171943289662 0.504992681949751 1.44523742287319 2.08681629011209 -1.28043725162921 0.837339218304605 0.0535503947391593 -1.05308011592814 1.41771094954827 0.54541400229334 -1.75121011085446 2.11884142031268 -0.580624984774126 0.349377514890858 0.260652133096563 0.497578909816814 2.0233447847333 0.394038582155624 -0.628475503861645 -0.534182658160063 -1.51819320869033 -0.294494775182291 -0.432499694462401 2.06133821361681 -0.00542759596761853 0.924812730616838 0.28472767354241 0.766571697256795 -0.297627662764737 0.834005270558887 -0.200164905614327 -2.30132922950059 -1.4642165252674 1.84556774832221 -0.874645905888757 -0.101586804489141 0.0583472994273572 -0.479315859282855 2.24138167629292 0.62893367420813 -0.349472645658647 -2.49005787416562 1.28464537399785
0.0932950010805334 -0.135665730833241 0.290142156890685 0.348842725709776 0.330890521387321 -0.195426622047902 0.521474987354779 -0.670038907639065 -0.325259037044415 0.0271176681336189 0.0642626334125301 1.10103039376674 1.44675771538653 0.632865917350184 1.19779689654101 1.02331344157688 -0.57765536215802 0.266235280725025 -4.03547339483414 -4.51840807994571 -0.7571172415997 0.54625192438043 -0.590612429841021 1.92015258426018 0.701483740156152 2.15664664454209 0.999530749629709 -2.24540313666855 1.69502742205957 -0.873650632369541 -0.929780356466689 0.860923678300516 0.787435160183767 -0.521974552440761 -1.44718940338414 -1.81015159191522 -2.18509331521273 -0.140981226760979 2.16688528625798 1.04209328357909 -0.35632514626163 1.64756076847559 -1.10490555844812 -0.430828735381702 -0.315673969414248 1.10739284236052 0.37180395062158 -0.306879772707643 -2.19442770041427 0.664271412009239 -0.402765415994227 1.81031357133065 1.82123946856627 1.13948430698839 0.0263972454002571 1.39327314085427 -0.286553412953403 0.849585376331022 0.850857300407375 0.870869985738096 1.52185240081781 -1.12555484859248 -1.57255427183715 0.154181777787482 0.92965642935838 -1.75440650465216 -0.403839879449873 -2.45002041932557 -2.04498986261724 1.27945097696641 -1.12011465422588 0.0160706720017052 0.656892349751037 1.09797078258651 -0.720399079224922 0.464200351611785 0.693705642893604 -1.0373668270811
0.282736098063245 0.106923126341719 0.430074116993973 -0.639669309908173 -0.366482026939262 -0.915786363414792 0.986049434283139 -0.303155274593625 -0.91364694958028 1.10714550236427 1.8121827623626 1.11193495085715 -0.0523944273554353 -0.511941341761255 -0.36982163110901 -0.366061137569342 0.562467863635651 0.581461364200117 5.46608793314729 1.33127950480859 0.60543894566616 0.530648421581622 1.55749095753328 3.68855102508277 1.65202522969689 -2.2111488611795 -2.44517877746549 -3.33789130170823 0.0242493469296988 -2.27388451721393 0.0893139070036691 1.24220445316513 0.768545017912952 1.47803696894563 -1.00631408759341 -0.765834048141158 0.367674761079185 -0.475841786487286 0.860605633003882 2.45918716868765 -0.59766470505636 0.0923966581003885 0.114219913341293 -0.625669660432245 0.849693619718155 0.874251241757525 -0.389315468090008 -0.411786898102792 -2.56619642694074 0.688280875138001 1.09513434304531 -7.55748695516496 -0.660632017365865 -2.09342505026138 -0.842103212889351 -4.50862786568648 0.331859569667849 -0.629030090526834 -2.40315154691756 -1.42806169130404 -2.75891619297978 2.94164671418065 2.70304357906585 0.548785231015624 1.34202928156871 0.214322420742747 -0.523063156956484 0.232053767417823 -1.53190129521849 1.04097871093487 0.0624505208412475 1.28168166491596 0.667304797950782 1.54811877713481 0.308033168989535 1.60836663503647 0.608566948155125 -1.77344885615144
-0.709335628041283 -0.265582992190215 0.342421913104407 -0.593452211814604 0.310577788472791 0.601361435270591 1.42059469736318 0.504565621935434 -0.399242749374031 0.54393021942602 -0.249828822824044 0.440029680398149 1.56288152963451 -1.00614465198267 -0.719221771695992 -0.0710079190691134 -0.322457050267764 0.694513225979075 0.115848963462128 -4.28073054149048 3.23070566586946 -4.47472351715678 0.385831110887111 -1.69448491957299 -1.17302201639683 2.23468549868133 4.57645867422164 2.40717943504777 -3.81185541252752 -2.56808412990589 -1.36652905381686 -1.67974119322685 0.730063079681335 -0.328856522727926 -1.95582507951983 0.788290308653132 -0.918642343329918 0.789765349774223 -3.6958915208135 -1.39768566581857 -1.26159544607284 1.30841341066458 -2.02599739049351 0.737983615985383 0.100180154676784 1.02175998184991 -0.472084121159634 -0.368227290862909 4.05003817249276 1.18217488180901 0.924255829959999 -2.03378474372265 -0.72933597208321 -1.05827785539196 2.32490160531789 4.15494169834535 -3.16588227514734 1.37820417012636 1.89379673359942 1.84458327343069 -0.293322352746842 -0.96912052848987 -2.02419119145644 -0.594696110880987 2.14188543470348 -0.0837688116823224 0.82165832534065 0.190410402373423 -0.203288280119994 1.13299690284557 2.63962555260517 0.793410657951811 -1.63702747848974 2.31505017153792 -0.22643539569426 0.838089208709036 -2.47699179176494 -0.167691118144023
0.660117539889256 -0.0209452239652334 1.35365271873139 0.107031369728851 -0.119018103580407 -0.952259499784969 -3.14625705486272 -0.145156181915986 -1.50920720778704 0.0309668646864951 -0.196715258286163 -0.532669564731857 0.540435834925977 -0.933771477840699 0.445559349108503 1.6743768463643 0.314982600131589 -0.530648935801989 -0.988301719488081 0.423275609529465 1.37533507759189 -0.850180843515342 -4.65095197893438 0.766626718836003 0.262653992983056 -0.195621511566777 0.651587395340811 2.30781611942305 1.75172510255144 -0.476952759588948 -0.165156525957913 0.0242917701099289 -0.867604686411296 -1.29960892955065 1.19648023529278 0.395347272988177 -0.0511551562723505 -0.926603503042914 -1.87983925019354 -1.77871575825455 -0.0299415092758431 -0.206738184558341 2.36197457974551 -0.379543995577013 -0.649219667663606 -1.05983388622077 0.027886941801791 -1.40491946082326 0.73832351564759 0.140987911625743 -1.16195753677245 0.345308232021152 -0.120311110691783 0.747972089493011 0.954688162575595 1.93801917089163 -0.786992159338091 1.62294143999225 0.83342934374849 0.989806842500608 -1.77122459595647 -1.09306563451118 1.06374093256486 0.151681381255739 -0.87998505595335 1.02819622106627 0.358234189371984 2.12299657798358 0.491820670153585 -0.570417710500585 -0.102040861072694 1.43320723740067 0.155387110326383 -0.96086857715966 1.39267870211069 -0.591084998357766 1.98046420548728 -1.17652257154127
0.263177726426261 -0.0958987559059277 0.48269351575972 -0.192130212388932 -0.126712640033411 -0.575436244166712 0.0587453059909704 0.481129000294871 -1.2845114195924 -1.61001676819233 0.38127563266095 1.46554629913498 2.50695798361837 0.112659768749559 -0.237811492860686 -0.737862259978907 0.501710156240675 2.22697682116825 -0.932621423991189 0.00643572499599524 2.51789107993912 -0.95996097821292 -1.2130193620483 -0.908910980005503 -1.40810402755253 -0.887409883824164 5.28133858278785 4.18397072358097 1.90378392155613 -2.50867162298948 -1.18423433437655 -1.57744527885241 -2.13517331626053 0.506591135958783 0.782676564912868 -1.85250380973474 -0.779346473819898 -0.278201188651741 -0.307530518581355 0.45743089759798 -1.3631789081296 2.47844112186771 -4.8250865353799 -1.08383537893385 0.899526201208059 -0.0860033562846233 0.732331048607454 -1.60901480980835 -1.09477644567028 1.35004597708128 1.05799323441915 3.79284340002986 -0.336582683733465 -0.438759813203262 -1.63886555918952 0.628163886319591 1.32582105561899 0.0196887264998733 0.487173403592016 -1.15398326444011 0.756447469572431 1.18037331075524 -1.1571354352863 -1.91443136846333 -1.29866379251716 -3.17678554668684 1.98680891347842 -0.038047936242354 -2.49510546128245 1.25924263078626 1.353027683876 0.503072325991335 0.215210479315564 1.03536830962698 0.0468179645917367 1.35632409353497 -2.63715858039725 1.55521553241184
0.028709180167705 -0.345152423250125 0.0390941175778462 0.0696092396724367 0.074730617411849 -0.643979247909366 -2.29270549684546 -0.246205626122212 -0.189663240181007 1.89385329783973 0.0794817564874351 -0.388611757518555 -1.79902026364322 0.729281978944735 -1.34862570042922 0.914913474342785 -0.192725165352887 0.495466749661723 -3.82725399851031 -0.808808472604049 3.21902617868684 -3.25121765917598 0.0225084538791661 2.33616431689352 -2.31948635063907 1.27409948561302 0.190982729641255 1.24412609467446 -4.66031978845973 2.34451731252574 -0.0102088169346405 0.252135358277645 -2.22222182543992 0.806769845961356 -0.537448985927596 -2.27097531549088 1.74104320287969 0.960391380659618 2.96306450666262 0.241003258675088 1.00464492828399 -4.26668461218157 1.49778380234691 1.76680847144961 0.487716677409145 1.12048000779623 -0.337052424038195 0.250304219552804 0.435290625501174 0.355097702246973 -0.167522710974018 1.05223936562903 -0.368528109777268 2.00404737993228 1.11895148775703 2.99406171035074 -0.541294068717541 1.55617789582761 0.642728406868037 0.116431832247471 -0.0111251576276103 0.245868297561837 -0.959735749692426 0.147028715380323 0.679969017135103 -0.102692121166772 -0.299320990431375 -1.46232368009859 -0.377888205997123 -2.03201428300105 1.24831159134698 0.324851517404023 1.00063323809533 -2.87357087964089 -1.60477531999736 0.973740284261834 -0.497983344135008 0.313002594610669
1.18302591651545 0.217315697495708 -0.705325223403532 0.0274259432432908 0.296717235605981 -0.568449274937909 -1.86908535967049 0.456670365676037 0.0746552841281677 -0.428670295393632 0.313160460263162 0.763210238721473 0.979937668117991 1.13564025263918 -0.304810035732782 0.738432016144906 -0.143685768778193 0.42995224676713 -5.15850804941076 4.52562233457647 0.892447957864216 2.16134970401341 -0.207430325171549 -3.52447641877582 2.76726378929815 -2.56570483227044 2.06844576752154 1.51411132742164 -2.05741342667007 -0.177192624964645 1.83832958244441 0.131783109956547 3.25132667389366 -0.611309799589637 0.29045068911054 2.5290550612044 -1.19977793050266 -0.605123985691724 -2.50718861145271 0.317888973642625 1.35264150438082 2.2562398166706 2.47019559829208 1.49973938240042 -0.112119837364812 -0.886026373928297 0.779641122089859 -0.0800952213845804 -2.18316293195717 0.00199491791154676 -0.585427288776172 -0.311746354255492 0.770861580663698 -0.720348942739196 -0.200869901736696 -1.09418097848596 0.524015493075103 0.364985131452598 -0.107408036147258 -0.995815250372104 -0.925118948845044 3.2363258373643 2.24505063860737 -0.911441972649048 1.52001714833004 -1.54763001067652 0.515109710548984 -0.84822706323311 -1.18141563543799 -2.08350702494396 -3.75111493151482 -0.343385819181271 2.18477989789939 -3.80945965984034 -2.97893231872977 -0.293610573262223 -1.33883211644046 1.29821359258635
-0.709009098108603 0.526038950216986 0.250635891689149 -0.236011721578198 -0.0638939374098032 0.42737677406189 0.459131167239565 -0.936102181651521 0.0462482084257375 -0.79299516789574 0.530462273808976 0.56957541754038 0.271961381615354 0.856784975681342 1.52094685875253 0.208076700172146 0.61898582410945 -0.695150087902893 2.75501454594953 -3.40506596505583 0.968478267252204 -1.32646151708537 0.931885574646834 -2.26096138807511 0.825588254491055 0.0564955918878599 -3.76887044654712 -4.99537446637437 -6.68433537366104 -3.70239563711822 -2.037268329595 0.152003283205121 0.222747407226258 -1.38593058824209 -0.640582051058578 0.727397875522153 -0.431226999055499 -0.712794274225859 0.448769626856096 -0.0981988636049478 -1.70774614860273 1.43467482232645 -0.236387873776238 0.72850370642015 -0.0606936869593557 1.1831200188425 -0.30815761031821 0.416163427641437 -0.388583218288219 0.427561379173436 0.18614931530704 1.61298536236771 1.13302929872865 0.40220543001519 -0.390571451335002 1.57150680495075 -2.22982508777788 1.16387300763739 0.92793893333452 1.13069036739197 -0.342785724013653 0.220406419008107 1.62509525199702 0.987558671058597 2.9176783886812 -2.11808037417038 -0.808502254375843 -1.53792255859915 -0.246464278966524 3.43161207725217 4.54451710483058 4.20974216279529 -0.597625367198328 1.63590904919276 0.136907058797792 1.87801171101127 -1.78310771440419 0.358637338139261
0.888316197219989 -0.73385931153647 -0.466014521064533 -0.748052307870173 -0.783681608619046 -0.371730931329547 0.161161805041338 -0.481671502781449 0.133124196672185 0.15621680488761 -0.286678625612627 -0.15050021707406 0.424009659102537 0.466590962095296 0.0507201258423547 -0.385772746875522 -1.36773310080485 0.521106805572419 -2.3736972614389 -1.11691723198745 1.10200535558148 0.0305367193499804 3.84755901811934 -1.96170390385899 0.471218945393123 2.09633528042517 2.08689136628558 6.335594720694 -3.62999212397463 -2.04119285943156 -0.519668274097344 -1.10335672670445 -1.38737477614119 -0.63388844454882 0.603227026759982 2.40392879100141 -0.405593370899383 -0.292723286019956 -3.58401310991072 -1.05318501688289 1.33931599780527 0.343353937518553 -6.83559509421631 0.726788781498122 0.359958627370791 1.07156582388076 -0.505473992212725 -0.447208968043995 0.0698421814984273 -2.23604663999126 -0.414400937335515 4.78485187702932 0.0255390116086933 -0.418222365988604 -0.0868500201179425 0.882223971428766 -0.0339274884461885 2.02507976424962 0.484889493834539 -0.0513937545223718 -1.06351081895089 -0.45194313784749 1.33002917798763 -0.561810175786993 -0.959881016945941 0.574602692952737 0.24985890471548 0.827987349610612 1.07712583159273 0.491466372321118 3.51662658777216 0.0231268038697925 -1.60106804826562 0.210173947936611 1.47562450409654 -0.891028195432516 -1.07729860963585 -0.153914126086757
-0.0547775816436332 -0.00487249508206247 0.721075279006771 -0.383522261441862 -0.639465935753252 -0.26452858332886 -0.344925137848165 0.383588081648764 -0.174886089511045 0.392063461728185 -0.277680283420552 0.23482824340487 0.831290444134344 0.934353318185309 0.903176908699495 -1.67439612962804 0.0274488260495967 0.437432610437519 5.03991931983632 3.70604968704204 1.9055993765598 -5.43390776550622 0.82016014430307 -4.61596776763519 2.25592794201836 5.01446875413065 -1.17703653479751 -4.4213633839532 -4.44002007017766 -2.03095318927493 -0.908166903135286 -0.693696901147375 -2.04820399701758 -0.564518831567138 0.0622378907197307 1.54554767530268 -1.45647262365922 -0.560636982020993 1.03245705102247 0.256565623844581 1.36968405287506 0.380473963109693 2.63383337439776 0.736612961598677 -1.01890888702826 1.45624071027396 -0.975540569764689 0.811301155830295 0.389833545109182 -0.277729905685912 -1.29015138857135 -0.518797699016986 -0.864498795398087 -0.195405539012878 -1.64250366828198 -1.40936206767899 1.43718678881644 1.99524829813219 -0.591693063941063 0.886709772795276 0.373852347451235 -1.72183887196499 -0.712733082002254 0.753469876540646 -0.100883608138054 0.415590843263423 -0.139806490333881 -2.19971002912837 -0.466461892783323 1.0684223947808 2.53325675581846 0.992094094690467 -1.49298021279395 -0.75723242696178 0.0799664091827909 1.58947212189255 -0.0729979518871791 2.21179626462083
0.00670697623928456 0.382542671643821 0.203442803340105 -0.550607113773869 -0.290709599065035 -0.541876937502884 -1.39403624387805 0.650712963607705 -0.833178661319858 -0.122615075043552 -1.58713267633549 1.64099108907414 2.64649502248025 0.634456400943537 0.536020224639484 -1.32281338069577 -1.33578098989628 -0.595539432281924 1.60766343868539 -0.420801181126227 1.78649514106801 -0.841479463584877 -1.70922324660529 1.12232605891169 3.65581755632743 0.541623169752053 5.3685590986798 3.00158578275227 0.931884546206101 -1.29003106100561 1.12977736913138 0.166434363568479 -1.45037191323195 0.58108546911226 0.985879484452035 -1.5692591477291 -0.381342995528951 -0.658073771042899 -1.43172525430464 -1.80606996775672 -0.510825740676295 -0.114320443422929 -1.5085922002288 -1.16788135539367 0.404682686630444 -0.367597628024221 -0.746498591033019 -0.0885916844990249 -2.18327091823412 1.28320401431076 -0.577277924409064 3.97296425287112 0.467708877171905 -1.46413579266987 -1.35253711764643 -1.95080217498059 0.184530806703717 -0.425916902441608 1.12043244241233 -1.29360026456897 -0.450011983261379 1.38659059008239 0.149680292699795 -2.49904258951799 -0.161478307676873 -1.95177945078698 0.444432435175482 1.06365120111092 -1.34974258706509 -0.603754616855934 -1.48450817514691 1.20667156873496 -0.779172667336046 1.15810448356683 1.73269277834931 -0.457667438966535 1.25049111437007 0.215337748856254
-0.260917213695455 -1.17695297398796 -1.6543821587464 1.37747757674861 -0.0220428273373681 -1.93123043361408 -0.998991589575512 0.893903201501199 -0.0409869627466575 -1.55349058019267 -1.45816929375824 -1.25024891657749 0.374312060458819 -0.138818158789611 1.71849052604901 0.0895897862302563 0.791547123343886 0.901245239893019 0.0394376167826183 0.904663776889014 -1.48799176101925 1.10868816346355 -0.923391682634222 0.121769696761149 4.93085806521101 -1.54898215313004 0.703836555442731 -0.907293499842913 2.78185016421217 0.341921319577692 -0.431872345615362 0.582539941418694 0.733933102159051 0.996530016681435 -0.336083118647483 0.852900812143549 -3.13698720431717 -1.54396901877776 -2.60458786238787 1.03508754530692 -1.40086020525069 1.71978533293167 -0.84261049128083 -0.457058602052688 -1.81145256944228 0.321611157764994 -0.530604455740293 1.26089250683194 -2.37462208676792 1.31748657191997 1.94775001999567 -1.25613545422214 0.855114787931193 1.93965104922448 0.734721144870598 -1.90803549554574 0.987800868851183 -0.184613596182711 0.523240305872717 0.820328551473074 -1.85083593597624 1.79095908806895 0.807703670146785 0.325126882410244 -1.89546229336627 -0.596931169703654 -0.36218982954071 0.12445649817572 -1.08256679728988 0.504809619499303 1.42043297505794 0.552763753990656 2.03500781686419 0.657025789936124 -1.48904102767695 0.287302889137468 0.697209540470426 -1.46135360337733
0.498785270796448 -0.876361859251518 0.159976269986545 -0.200071060397454 0.690773044143881 1.63445200578449 0.877800390726592 0.361471720798997 0.96802575332975 -0.25234464596678 0.0517848191110382 0.920267279687822 0.0837137901031149 -0.0182918468744791 0.308880604153404 1.09259769397773 0.40346912656568 -0.631443840926835 -4.28977644906645 1.74129697063052 -3.44155555647773 -4.63725983323758 -1.45305742909561 1.69113940186903 3.30755461408079 0.467947989642292 -3.49056255716934 8.63837842250102 -0.892110372193658 -2.14751126262236 0.302998694492049 0.255371089933376 -0.1944357194018 0.881841648586328 0.586250041362452 -2.26816124453562 1.41990384230089 0.249262923310793 0.922799814992466 -1.45672664852023 1.66350211405514 2.7208916537641 -1.65821181492536 -0.00814267950234386 0.314150077358347 -2.93993718857247 -2.16672382106292 -1.9818225185852 2.25302259694806 -0.437354706052005 1.24849491090761 1.26269382077553 -0.741589072084574 1.1441876235699 0.286636459542581 -0.533071427948218 -0.256114652583227 0.893954880648025 -0.502085537108165 -0.674268627263096 -1.44683613399241 3.86479157103898 1.90313291857224 -2.43647508354338 -0.289343572661626 -0.78133624952778 -0.94924719687845 -4.27140772624719 1.37476172188333 -2.70922476498046 0.381571309371644 -0.620218667437955 0.96737989254952 0.486909351433857 0.286337954619871 0.208848802052333 0.985138235793833 0.889933163162213
0.0555370851248433 -0.469009597588777 0.0494322609346427 -0.707955974798164 -0.0202124599430774 -0.822027535563743 -2.65713964117543 -0.362542327601894 0.533342422081324 0.916814547037459 1.54005863000128 -0.060345816881469 -0.832367478691822 -1.24525377993803 -0.426325707632916 0.155042582680878 1.8244093800151 -0.900103670679555 -1.95257237859201 -3.98454243864155 2.64771758140142 1.36269451254443 -3.28153043555638 2.43135062048177 2.28732392360064 0.132238966311383 -0.637970582927687 0.121023820119649 2.28127926319331 -2.21685439325517 1.19148844108571 0.0567624722580346 1.89955445904229 -1.37210140281763 -0.475446865245872 -0.789941470249723 1.44524590750924 -0.823037721473586 0.466003979547022 -0.133974717158252 -0.994356921412922 1.79057650811633 4.34024049316632 -0.390951717295974 2.00246306698332 -3.1637678010006 -0.514935646954949 -1.73766014708897 1.23520180021515 1.47412915127098 -1.02564774493026 0.872196931393656 1.22943327614459 -1.15083623579759 0.264001250343091 1.69172638441731 -1.97583776485055 -0.397528338672369 0.414153597339264 -0.573251321829771 -1.79517389530236 0.772301140579505 2.28976647034116 -2.02250429154438 -2.58225758586567 -0.63477676023182 0.875368385503584 -1.07736468695293 -0.174279309478663 0.483259415272971 2.74323530001583 0.746833091381379 -0.893009743614535 0.131894181555695 -1.95385330152478 0.322656567769937 1.92982069847953 0.222671302612027