10.504974 0.000000 0.000000 0.000000 6.393855 0.000000 0.000000 0.000000 5.052045
10.325446 0.000000 0.000000 0.000000 6.417178 0.000000 0.000000 0.000000 5.046570
10.342293 0.000000 0.000000 0.000000 6.419293 0.000000 0.000000 0.000000 4.952567
10.396596 0.000000 0.000000 0.000000 6.515453 0.000000 0.000000 0.000000 4.978604
10.421356 0.000000 0.000000 0.000000 6.388455 0.000000 0.000000 0.000000 4.991357
10.457051 0.000000 0.000000 0.000000 6.392708 0.000000 0.000000 0.000000 5.093271
10.326356 0.000000 0.000000 0.000000 6.437662 0.000000 0.000000 0.000000 5.001859
10.125202 0.000000 0.000000 0.000000 6.220365 0.000000 0.000000 0.000000 4.912840
10.258999 0.000000 0.000000 0.000000 6.066650 0.000000 0.000000 0.000000 4.813869
10.507047 0.000000 0.000000 0.000000 6.284245 0.000000 0.000000 0.000000 5.084115
10.234074 0.000000 0.000000 0.000000 6.369833 0.000000 0.000000 0.000000 4.984453
10.177762 0.000000 0.000000 0.000000 6.544161 0.000000 0.000000 0.000000 5.058059
10.496494 0.000000 0.000000 0.000000 6.363019 0.000000 0.000000 0.000000 5.004777
10.567206 0.000000 0.000000 0.000000 6.493098 0.000000 0.000000 0.000000 5.139438
10.106649 0.000000 0.000000 0.000000 6.405092 0.000000 0.000000 0.000000 5.046806
10.198033 0.000000 0.000000 0.000000 6.258577 0.000000 0.000000 0.000000 4.903866
10.104246 0.000000 0.000000 0.000000 6.194851 0.000000 0.000000 0.000000 4.851880
10.280553 0.000000 0.000000 0.000000 6.272926 0.000000 0.000000 0.000000 5.059196
10.501805 0.000000 0.000000 0.000000 6.445809 0.000000 0.000000 0.000000 5.123146
10.480993 0.000000 0.000000 0.000000 6.519472 0.000000 0.000000 0.000000 5.130005
10.158510 0.000000 0.000000 0.000000 6.634677 0.000000 0.000000 0.000000 5.053833
10.559143 0.000000 0.000000 0.000000 6.502420 0.000000 0.000000 0.000000 5.134129
10.105268 0.000000 0.000000 0.000000 6.490706 0.000000 0.000000 0.000000 5.104139
10.259067 0.000000 0.000000 0.000000 6.304977 0.000000 0.000000 0.000000 4.875037
10.161696 0.000000 0.000000 0.000000 6.095952 0.000000 0.000000 0.000000 4.872459
10.560300 0.000000 0.000000 0.000000 6.373414 0.000000 0.000000 0.000000 5.097288
10.261176 0.000000 0.000000 0.000000 6.508498 0.000000 0.000000 0.000000 5.090363
10.658391 0.000000 0.000000 0.000000 6.427181 0.000000 0.000000 0.000000 5.184295
10.167690 0.000000 0.000000 0.000000 6.337683 0.000000 0.000000 0.000000 5.061164
10.419415 0.000000 0.000000 0.000000 6.400366 0.000000 0.000000 0.000000 5.177636
10.099909 0.000000 0.000000 0.000000 6.764116 0.000000 0.000000 0.000000 5.193012
10.586037 0.000000 0.000000 0.000000 6.488978 0.000000 0.000000 0.000000 5.137182
10.654456 0.000000 0.000000 0.000000 6.460558 0.000000 0.000000 0.000000 5.168933
9.895528 0.000000 0.000000 0.000000 6.242450 0.000000 0.000000 0.000000 4.953436
10.257546 0.000000 0.000000 0.000000 6.239248 0.000000 0.000000 0.000000 4.967580
10.666294 0.000000 0.000000 0.000000 6.460304 0.000000 0.000000 0.000000 5.136607
10.363684 0.000000 0.000000 0.000000 6.756871 0.000000 0.000000 0.000000 5.144745
10.643362 0.000000 0.000000 0.000000 6.667474 0.000000 0.000000 0.000000 5.206986
10.673684 0.000000 0.000000 0.000000 6.519072 0.000000 0.000000 0.000000 5.168470
10.627589 0.000000 0.000000 0.000000 6.425594 0.000000 0.000000 0.000000 5.153329
10.701288 0.000000 0.000000 0.000000 6.460974 0.000000 0.000000 0.000000 5.147435
10.462631 0.000000 0.000000 0.000000 6.703879 0.000000 0.000000 0.000000 5.290370
10.406300 0.000000 0.000000 0.000000 6.218700 0.000000 0.000000 0.000000 4.946900
10.406300 0.000000 0.000000 0.000000 6.218700 0.000000 0.000000 0.000000 4.946900
10.406300 0.000000 0.000000 0.000000 6.218700 0.000000 0.000000 0.000000 4.946900
10.406300 0.000000 0.000000 0.000000 6.218700 0.000000 0.000000 0.000000 4.946900
10.406300 0.000000 0.000000 0.000000 6.218700 0.000000 0.000000 0.000000 4.946900
10.406300 0.000000 0.000000 0.000000 6.218700 0.000000 0.000000 0.000000 4.946900
10.406300 0.000000 0.000000 0.000000 6.218700 0.000000 0.000000 0.000000 4.946900
10.406300 0.000000 0.000000 0.000000 6.218700 0.000000 0.000000 0.000000 4.946900
10.406300 0.000000 0.000000 0.000000 6.218700 0.000000 0.000000 0.000000 4.946900
10.406300 0.000000 0.000000 0.000000 6.218700 0.000000 0.000000 0.000000 4.946900
10.406300 0.000000 0.000000 0.000000 6.218700 0.000000 0.000000 0.000000 4.946900
10.406300 0.000000 0.000000 0.000000 6.218700 0.000000 0.000000 0.000000 4.946900
10.406300 0.000000 0.000000 0.000000 6.218700 0.000000 0.000000 0.000000 4.946900