0.0956366 6.44153 5.12924 5.26041 6.44915 2.40266 -0.131617 3.23503 -0.0653005 3.06902 4.70241 4.81438 2.27097 1.62908 2.42232 7.47585 1.53177 -0.0225078 8.13026 4.45462 2.44446 1.06042 4.70352 2.28823 4.05383 1.49326 4.77902 9.29881 1.46921 2.73837 6.34503 4.73561 0.174506 1.17181 4.67128 3.8231 3.91593 1.54586 1.30526 9.2473 1.52231 1.2804 6.544 4.74315 3.63483 4.85741 4.67888 0.429357 0.261873 1.46057 3.26985 5.58044 1.43107 4.34323 9.9825 4.83619 1.7685 1.91414 5.91621 1.62053 3.26438 0.25084 4.2193 8.56017 2.75253 3.31736 7.0547 3.42769 0.769896 8.54306 0.362664 3.51276 7.1113 5.94869 0.89206 1.56017 3.3857 1.57624 3.34138 2.78895 4.09122
0.0224015 6.18059 4.92466 5.23278 0.0588117 2.49899 10.3432 2.96064 0.00666155 2.99392 4.50245 0.0586654 2.34259 1.49575 2.35747 7.30399 1.76576 -0.0506234 8.04777 4.75991 2.52425 1.15219 4.51815 2.22533 4.17635 1.58659 4.55098 9.19126 1.42398 2.77228 6.34036 4.81871 0.243969 1.29309 4.58989 3.80143 4.06679 1.48099 1.00418 9.0258 1.47251 1.28468 6.4496 4.85441 3.70137 4.87348 4.67503 0.716666 0.365568 1.42648 3.29387 5.64949 1.46941 4.15116 10.0013 4.71565 1.97964 2.05613 5.68392 1.54167 3.32262 0.460839 3.85486 8.60639 2.62997 3.54361 7.18688 3.63268 0.875842 8.44914 0.165869 3.46344 6.95075 6.12801 0.870961 1.6454 3.22301 1.46446 3.53849 2.88397 3.97644
10.2631 6.16764 -0.00867805 5.35777 -0.0729776 2.39576 0.177858 2.97328 4.87236 2.96789 4.82429 0.0438242 2.36916 1.4941 2.45474 7.30817 1.63113 0.0346214 8.17934 4.38401 2.50273 1.16185 4.71505 2.29177 3.97256 1.60769 4.76658 9.27441 1.47907 2.61662 6.30262 4.76222 0.164632 1.14558 4.67065 3.87741 3.9867 1.46549 1.34023 9.22655 1.47123 1.13659 6.45232 4.66856 3.57195 4.84714 4.77893 0.620077 0.402365 1.46876 3.21512 5.43876 1.47241 4.2018 10.0099 4.77584 1.7733 1.88721 5.93312 1.69683 3.29111 0.322247 4.04401 8.55335 2.73762 3.42432 7.07714 3.51289 0.820464 8.48949 0.320817 3.31154 7.13546 5.95863 0.690889 1.86237 3.55293 1.63037 3.19957 2.81729 4.14335
0.29956 -0.031458 -0.0296492 5.13724 6.36543 2.51211 10.3105 3.19391 -0.0238312 3.01067 4.76505 -0.178054 2.25269 1.68581 2.61141 7.40861 1.33032 0.12223 8.2042 4.8037 2.42802 1.02987 4.65316 2.14296 3.94454 1.56783 4.89665 9.29632 1.55344 2.73153 6.46164 4.62264 0.18384 1.17617 4.70844 3.69217 3.85982 1.57657 1.48661 9.13278 1.4845 1.20425 6.70331 4.78621 3.65561 4.89641 4.73743 0.527574 0.377575 1.31985 3.17647 5.49069 1.29416 4.4394 10.0289 4.95474 1.68864 1.91456 5.6377 1.35515 3.21234 0.287 4.08056 8.73155 2.88713 3.35787 7.05593 3.29994 0.779339 8.49157 0.377047 3.42865 7.12497 5.86743 0.951727 1.43127 3.25687 1.59704 3.27503 2.79192 4.19396
10.2309 6.21102 4.9424 5.22837 6.24643 2.5145 10.3237 3.10898 4.85372 3.08904 4.8035 0.115783 2.25091 1.4762 2.59948 7.37585 1.64904 4.96896 8.20814 4.63363 2.39164 1.12465 4.59775 2.21793 3.95875 1.51858 4.85457 9.23558 1.46764 2.6763 6.49163 4.80399 0.176785 1.18682 4.66798 3.72204 3.82688 1.52052 1.36305 9.15248 1.5142 1.14076 6.51485 4.87914 3.62868 4.9361 4.95984 0.544734 0.277873 1.50751 3.28504 5.47363 1.43722 4.29 10.1115 4.80843 1.66472 2.04732 5.78359 1.61844 3.30823 0.328595 4.04584 8.47274 2.75626 3.31882 7.12789 3.44432 0.769355 8.61014 0.167066 3.36213 7.23426 6.00181 0.888272 1.66387 3.31928 1.5774 3.1941 2.76553 4.22655
0.271585 0.012766 -0.0516931 5.11183 6.16273 2.55416 10.397 3.20464 4.90484 2.96654 4.64036 4.89608 2.05943 1.59397 2.45346 7.32137 1.46511 0.0301934 8.2245 4.6844 2.50622 1.17981 4.75295 2.08586 3.93455 1.47189 4.82533 9.2591 1.53767 2.7322 6.4756 4.65142 0.233214 1.25069 4.74749 3.69078 3.70878 1.30442 1.27136 9.22505 1.48782 1.16713 6.78069 4.80983 3.85726 4.89192 4.71605 0.417253 0.350402 1.46909 3.14826 5.36982 1.37353 4.57242 10.147 4.787 1.43998 1.98623 5.95651 1.51358 3.25334 0.292344 4.17756 8.75833 2.91715 3.28132 7.25329 3.39162 0.715624 8.53578 0.361253 3.441 7.05805 5.84661 1.09166 1.9065 3.53594 1.42463 3.19145 2.72739 4.15382
10.2896 6.23185 0.107824 5.19623 0.127886 2.32117 10.4752 3.07402 0.0591812 3.12152 4.70838 0.00500996 2.23572 1.50166 2.39197 7.35936 1.63626 4.83095 8.1471 4.48058 2.47961 1.15615 4.61479 2.25612 3.89643 1.68809 4.60427 9.30988 1.45322 2.74034 6.36866 4.72332 0.295688 1.20731 4.61785 3.81048 3.66011 1.52339 1.22112 9.29622 1.5406 1.23013 6.52269 4.6982 3.82794 4.83351 4.87392 0.779645 0.461772 1.42513 3.28193 5.48034 1.65248 4.17086 10.0599 4.57468 1.86456 1.75168 5.84513 1.4918 3.27819 0.349798 3.89478 8.71587 2.67638 3.56115 7.10928 3.42395 0.929288 8.57732 0.285787 3.36898 7.15647 5.94114 0.999861 1.78129 3.36475 1.52303 3.19579 2.92452 3.87881
0.229495 0.0820804 4.92813 4.89558 6.1032 2.49726 10.1172 3.06828 0.11172 2.95341 4.56043 4.87726 2.49941 1.58216 2.54223 7.29733 1.58527 0.0506891 8.09712 4.90515 2.59652 1.31161 4.56991 2.15494 4.17332 1.48452 4.72495 9.187 1.66562 2.74958 6.26902 4.60185 0.201843 1.34886 4.43993 3.70445 4.17255 1.57696 1.3055 8.99099 1.43942 1.24282 6.32696 4.66114 3.57323 4.83387 4.73257 0.696119 0.550468 1.4909 3.14199 5.53581 1.42598 4.10541 10.0019 4.76656 1.53176 2.10032 5.89961 1.69925 3.29773 0.280054 4.12821 8.60962 2.96853 3.25812 7.05049 3.33275 0.647314 8.42018 0.506929 3.49181 6.99012 5.7934 0.941156 1.9645 3.3088 1.54357 3.46949 2.70568 4.08388
0.108134 5.98006 4.82574 5.24556 0.390807 2.4306 10.2923 3.03633 0.123441 3.04984 4.70196 4.74425 2.46037 1.79443 2.38019 7.29437 1.47409 0.238616 7.9953 4.44613 2.6599 1.2017 4.67975 2.16563 4.18004 1.7568 4.4923 9.26271 1.43984 2.72724 6.19915 4.50156 0.475848 1.31782 4.60183 3.76081 4.05282 1.83614 1.20028 9.2058 1.39925 1.17598 6.36739 4.59087 3.6738 4.78338 4.71145 0.896634 0.517246 1.65647 3.21585 5.61806 1.76853 3.98616 9.98553 4.49745 1.79312 1.80367 5.94031 1.59093 3.44036 0.472563 3.85944 8.39171 2.63671 3.35351 6.78286 3.1958 1.17171 8.73042 0.187811 3.43024 7.07642 5.73071 1.08911 1.99663 3.5381 1.39763 3.37082 2.99299 3.81721
10.4885 -0.0760918 5.17069 4.84005 5.97194 2.56212 10.2999 3.23869 4.97776 3.07394 4.6573 4.82137 2.03211 1.59419 2.26417 7.4039 1.58642 0.00856533 8.16884 4.69337 2.46267 1.0949 4.58577 2.18209 4.02109 1.53861 4.86873 9.31075 1.59967 2.76275 6.5371 4.79494 0.154387 1.25836 4.60838 3.65412 3.79552 1.47688 1.30463 9.26288 1.57026 1.17024 6.66168 4.88921 3.69892 4.93787 4.92752 0.629572 0.284478 1.44355 3.2826 5.56139 1.32086 4.6417 10.1553 4.55035 1.62103 1.86379 5.88351 1.57413 3.33243 0.299264 4.13318 8.66462 2.82615 3.41272 7.3405 3.48098 0.696524 8.48476 0.417558 3.47247 7.3629 5.86236 0.957164 1.72856 3.39549 1.382 3.5614 2.84191 4.21293
10.1406 -0.283935 -0.0934861 5.54382 0.39733 2.59191 10.305 3.13464 -0.105196 3.21898 4.62617 -0.0205203 2.3279 1.67165 2.36981 7.36616 1.5685 5.00229 7.9649 4.45347 2.48208 1.28537 4.80332 2.25806 4.01756 1.52327 4.64273 9.11283 1.44466 2.70314 6.33463 4.69621 0.296819 1.39091 4.84105 3.7525 3.93108 1.5618 1.27478 9.03881 1.47156 1.13092 6.40228 4.58069 3.78443 5.00069 4.71646 0.865707 0.330951 1.53501 3.08236 5.60141 1.61826 4.2824 9.90045 4.77548 1.94707 1.81658 5.97491 1.40776 3.53428 0.210775 3.87864 8.44446 2.74145 3.34689 7.10239 3.4727 0.955805 8.37209 0.293716 3.30823 7.12533 6.00417 0.813264 1.98698 3.48519 1.55788 3.08156 2.65786 3.9856
10.2567 6.43639 -0.0690797 5.27245 -0.23757 2.60695 0.288626 2.97958 4.98711 3.09706 4.88968 4.97735 2.54826 1.34115 2.367 7.34937 1.53568 4.91592 7.98998 4.68402 2.5164 1.11226 4.79506 2.23569 4.0949 1.68022 4.6568 9.22243 1.47798 2.67889 6.27066 4.57702 0.351854 1.00736 4.82938 3.774 4.02986 1.47705 1.15397 9.0842 1.48905 1.13533 6.47985 4.66562 3.86025 4.7756 4.64097 0.653464 0.502907 1.33805 3.29081 5.58805 1.63667 4.21044 9.74217 4.76839 1.62071 1.90813 5.92047 1.51182 3.50086 0.427417 3.98295 8.59392 2.78265 3.29627 7.0338 3.23415 0.921839 8.25943 0.400974 3.36594 7.01957 5.77253 1.03806 1.70353 3.40084 1.71691 3.26858 2.89007 4.15095
0.0490501 -0.00275708 0.0150057 5.33257 0.0490916 2.48098 10.3464 3.11864 0.0147194 3.0418 4.43981 4.77798 2.13042 1.56572 2.51858 7.34202 1.70353 0.13556 8.19622 4.71738 2.304 1.04026 4.84035 2.28179 3.96765 1.35446 4.87447 9.31051 1.4427 2.68799 6.50858 4.75372 0.0612975 1.15864 4.56898 3.72774 3.83913 1.34784 1.37903 9.18251 1.64265 1.19082 6.67539 4.73515 3.53416 5.06982 4.62477 0.582254 0.172242 1.90097 3.12459 5.39109 1.47845 4.38388 10.1734 4.56821 1.69995 1.32493 0.0487831 1.86836 3.39326 0.0316925 4.28702 8.31833 2.30376 3.37561 7.39918 3.62248 0.792489 9.01887 0.0226565 3.22338 7.15304 5.97209 0.821796 2.08043 3.86315 1.50941 2.98608 2.43237 4.17317
10.4055 -0.148184 4.6945 5.11938 6.26597 2.42985 10.4089 3.24022 4.90906 2.96252 4.80502 5.02882 2.25916 1.54696 2.52306 7.29963 1.62257 0.16295 8.2892 4.45699 2.59897 1.09583 4.68847 2.02973 3.95549 1.45014 4.9411 9.42453 1.37398 2.58052 6.41196 4.80917 0.227151 1.22228 4.82941 3.57833 3.90944 1.44047 1.29142 9.24844 1.49811 1.00666 6.75312 4.75161 3.82165 4.89282 4.90998 0.452004 0.300267 1.35067 2.98495 5.42585 1.71866 4.60702 10.1246 4.53182 1.67637 1.71847 5.88856 1.3435 3.4067 0.149349 4.14037 8.80064 2.63398 3.31594 7.10072 3.64429 1.08729 8.79005 0.172763 3.20378 7.00184 6.11258 0.870294 1.84202 3.43784 1.46458 3.11147 2.6501 4.33707
10.0562 6.17507 0.116476 5.31544 6.30663 2.4449 9.98676 3.29471 0.178818 3.05405 4.57961 4.89258 2.42828 1.351 2.47252 7.48554 1.4868 4.83277 8.001 4.64174 2.64905 1.21748 4.75216 2.29739 4.02271 1.34321 4.63835 9.28366 1.66635 2.8438 6.34341 4.71621 0.141411 1.26207 4.71717 3.88202 3.76605 1.38457 1.10109 9.10626 1.71303 1.20249 6.2855 4.71335 3.67587 4.82289 4.91921 0.785015 0.630298 1.73678 3.51379 5.54825 1.58499 4.33377 9.8486 4.7684 1.77754 1.79104 6.02951 1.49042 3.47917 0.0926482 3.70606 8.59962 2.93078 3.58737 7.14944 3.55639 0.867291 8.52185 0.315817 3.34214 7.13937 6.06481 0.619312 2.03502 3.62405 1.616 3.30727 2.55017 3.91346
10.2467 -0.000797499 0.246751 5.63015 0.186598 2.61634 0.341127 3.00848 4.7927 3.20421 4.54869 4.80636 2.38936 1.48358 2.43517 7.34537 1.72662 0.0367387 7.96612 4.69496 2.40574 1.12115 4.73524 2.28391 4.02535 1.42681 4.65124 9.20659 1.6304 2.77447 6.23927 4.51565 0.270254 1.2053 4.80186 3.8854 3.97342 1.31243 1.26274 9.17227 1.64163 1.26321 6.36538 4.47196 3.611 4.89238 4.44256 1.02008 0.464274 1.3891 3.24334 5.44546 1.73443 4.02546 9.83172 4.71457 1.82861 1.8178 5.97484 1.56793 3.45153 0.126478 4.00512 8.67558 2.97428 3.34929 7.13737 3.42535 1.03724 8.28937 0.469892 3.36909 6.91116 5.94068 0.790791 1.89157 3.58302 1.64689 3.0551 2.52301 4.16584
0.597369 0.432438 0.2719 4.97465 6.12545 2.61797 10.0529 3.18469 0.032995 3.21752 4.84632 4.85024 2.2965 1.61671 2.05713 7.46595 1.4013 4.85453 7.85045 4.45432 2.71311 1.25859 4.69576 2.35389 4.22562 1.78742 4.56078 9.05264 1.31799 2.66495 6.27562 4.52649 0.435802 1.41396 4.68297 3.86785 4.04969 1.70012 1.26251 8.96082 1.41561 1.11307 6.37009 4.51821 3.71731 4.79946 4.5533 0.939785 0.493682 1.29575 3.16558 5.69839 1.48236 3.99014 9.94976 4.8274 1.88312 2.22414 5.78676 1.64994 3.26079 0.655842 4.06179 8.47049 2.60037 3.42735 7.00278 3.34458 1.10858 8.36031 0.130356 3.30477 6.73891 6.00335 0.861787 1.85001 3.41777 1.69298 3.62217 3.13147 3.99533
0.238903 -0.0141782 4.91353 5.13728 0.0197129 2.45362 0.531983 2.89134 0.29523 3.03525 4.87141 -0.0168716 2.45323 1.60469 2.51359 7.12952 1.61154 0.12337 8.05802 4.52138 2.50918 1.41323 4.71723 2.29116 4.03725 1.68128 4.73989 9.12268 1.39727 2.4974 6.25197 4.69282 0.284614 1.33539 4.66895 3.88657 3.99338 1.59857 1.17322 9.08011 1.49698 0.960396 6.29122 4.59994 3.75045 4.76111 4.45998 0.62944 0.251567 1.64169 3.15529 5.50572 1.72872 4.182 10.273 4.60835 1.77305 2.05884 6.02075 1.68944 3.18115 0.434105 4.07891 8.1459 2.51824 3.09377 7.22633 3.59204 0.903405 8.55586 0.018747 3.00186 6.84304 6.01747 0.85715 2.29256 3.60531 1.60564 3.29082 2.7178 3.90821
10.4349 -0.006088 0.00944351 5.15807 0.0133581 2.32558 0.155965 2.99743 -0.130189 3.13964 4.6038 4.88953 2.22872 1.42303 2.56791 7.37139 1.59645 4.8147 8.16363 4.65852 2.35563 1.23392 4.79832 2.36332 4.05101 1.43422 4.82485 9.20885 1.64506 2.71476 6.34265 4.66815 0.204971 1.38548 4.92916 4.03895 3.85806 1.48311 1.26107 9.08494 1.68552 1.18585 6.46628 4.78595 3.77613 4.71536 4.56906 0.804997 0.265926 1.54446 3.02822 5.47504 1.5705 4.27393 10.1949 4.94403 1.85601 1.99395 5.98946 1.73394 3.22411 0.107489 4.32861 8.60856 2.90831 3.32662 7.12811 3.43824 0.710144 8.56848 0.470741 3.6013 6.95582 5.82418 1.03883 1.74219 3.45959 1.81059 3.23996 2.65839 4.17403
10.1475 6.2697 5.09369 5.24895 0.0244495 2.38275 0.279253 2.98801 -0.0267283 3.09153 4.81715 4.98148 2.21364 1.40211 2.36667 7.36704 1.56458 5.01653 8.20067 4.62133 2.48604 1.22347 4.66319 2.35461 3.85739 1.62271 4.7712 9.32249 1.37014 2.79282 6.35901 4.90791 0.0615306 1.22251 4.85478 3.88952 3.68435 1.28242 1.2107 9.3198 1.37154 1.28847 6.50106 5.00901 3.65239 4.88921 4.91542 0.483168 0.298414 1.37001 3.45416 5.31776 1.81116 4.25989 10.2072 4.49816 1.91935 1.87392 5.74399 1.50231 3.23917 0.466258 3.96409 8.48935 2.53096 3.48396 7.17098 3.77311 0.780931 8.74423 -0.00642014 3.21363 7.02931 6.26739 0.754025 1.8446 3.23057 1.93311 3.22058 2.93373 4.3103
10.1205 6.24012 4.96848 5.26326 0.0629277 2.59267 0.309166 3.02789 4.83584 3.07145 4.69977 4.82794 2.36874 1.66458 2.74344 7.24197 1.50951 -0.0026139 7.96453 4.89204 2.4993 1.28374 4.78522 2.08077 3.99363 1.32956 4.86504 9.30854 1.39839 2.7254 6.38101 4.83138 0.270437 1.23618 4.87412 3.66499 3.94335 1.16927 1.35756 9.4785 1.38553 1.1698 6.51511 4.94981 3.66187 4.79112 4.905 0.537191 0.590221 1.29117 3.32476 5.46646 1.43417 4.44651 9.86299 4.6001 1.70777 1.90393 5.89731 1.29916 3.3417 0.212826 3.97884 8.42757 2.55709 3.33412 7.07118 3.56731 0.842205 8.44192 0.100198 3.33887 7.06825 6.00294 0.87754 1.88545 3.48645 1.4916 3.39704 2.7208 4.08056
10.3044 6.0108 -0.012829 5.23582 6.14172 2.69179 -0.0473896 2.79199 -0.0811583 3.00008 4.84053 4.88795 2.26357 1.70646 2.62026 7.37266 1.69722 4.99531 8.23084 4.64415 2.62895 1.09099 4.73408 2.24211 3.94821 1.47794 4.87463 9.35346 1.4024 2.71439 6.47136 4.80093 0.112241 1.21218 4.79493 3.78981 3.7043 1.26787 1.14122 9.12946 1.62772 1.20547 6.71696 4.86543 3.70264 4.92508 4.83588 0.344058 0.19948 1.5749 3.29165 5.50392 1.48071 4.5049 10.1177 4.47596 1.64383 1.68652 5.97382 1.46343 3.2953 0.312323 3.88224 8.45686 2.58349 3.39968 7.10868 3.44171 0.593912 8.7148 0.0723377 3.34186 7.28489 5.9776 0.700252 1.87616 3.51162 1.65897 3.10983 2.72179 4.18537
10.0229 6.31477 4.79469 5.67476 0.137825 2.7339 10.1733 3.24881 0.00914731 3.03454 4.69398 0.226273 2.44851 1.33389 2.58387 7.31652 1.49676 4.82369 8.03898 4.61611 2.4497 1.19678 4.75501 2.2923 4.06527 1.49895 4.67887 9.15117 1.42475 2.57632 6.4298 4.89864 0.181901 1.4765 4.73989 3.84046 3.83975 1.03375 1.13608 9.05932 1.47474 1.03373 6.6692 4.94414 3.75215 4.89389 4.62242 0.514013 0.585125 1.68996 3.08185 5.53523 1.73948 4.17841 9.87913 4.30895 2.06263 1.2897 6.06883 1.6242 3.56318 0.257838 3.92724 8.14573 2.62502 3.03488 7.27566 3.96809 0.969917 8.47807 0.114883 3.1994 6.77427 6.24984 0.803115 2.02633 3.49362 1.72095 3.30321 2.673 4.36515
0.346912 0.221794 0.160608 5.20298 0.203898 2.40115 0.155054 3.0388 0.144322 3.09103 4.74561 4.80232 2.28009 1.28604 2.29892 7.45635 1.42949 0.199717 8.01632 4.62373 2.70892 1.15335 4.59235 2.1959 4.2689 1.63667 4.47369 9.16544 1.57217 2.70334 6.21641 4.69378 0.325646 1.12424 4.77776 3.68488 4.09603 1.64398 1.11621 9.15589 1.61653 1.12715 6.00016 4.69088 3.68537 4.81162 4.94486 0.952002 0.376457 1.63599 3.19822 5.77707 1.50811 4.2449 9.87428 4.57988 1.82579 1.98625 5.71674 1.47421 3.2772 0.461554 3.72261 8.39023 2.77791 3.24023 7.02379 3.44069 0.716545 8.54936 0.1874 3.48979 7.0511 5.87886 1.10992 1.7709 3.30774 1.55605 3.43154 2.9117 4.03241
10.2986 0.0806212 4.8345 4.7976 5.56958 2.59333 0.345636 3.19093 4.74479 3.0252 4.64195 0.081222 2.42897 1.74173 2.64559 7.39032 1.46399 4.78457 7.91749 4.54617 2.47525 1.17878 4.63957 2.16032 4.2799 1.73094 4.77528 9.23618 1.61001 2.5967 6.27505 4.54514 0.397381 1.41267 4.74099 3.75409 4.24285 1.76243 1.43245 9.01392 1.66912 0.961686 6.44513 4.729 3.77784 4.87484 4.10393 0.776414 0.50401 1.78325 3.08292 5.58901 1.7909 3.98926 9.79013 4.63776 1.71692 1.8293 5.91816 1.50501 3.47178 0.36377 4.24219 8.29861 2.76135 3.21319 7.15364 3.38352 0.865319 8.55667 0.410523 3.20893 6.92785 5.87455 1.14661 2.04486 3.52785 1.50411 3.25519 2.82465 4.03683
-0.00826531 0.0828042 0.118106 4.91196 6.29951 2.1591 -0.122781 2.9255 -0.00247692 3.18909 4.63373 4.89105 2.12852 1.76991 2.2327 7.35537 1.40342 5.03842 8.2255 4.63731 2.5 1.03741 4.77063 2.34838 3.97517 1.40698 4.72492 9.34281 1.56379 2.82257 6.50998 4.60157 0.234611 1.15403 4.69424 3.89071 3.75635 1.36872 1.16267 9.22478 1.48412 1.25029 6.95959 4.93184 3.89836 4.9101 4.61741 0.474093 0.287505 1.56123 3.29484 5.4931 1.46663 4.33445 10.0799 4.87169 1.98543 1.6969 6.05768 1.6427 3.43968 0.135963 3.8779 8.95369 2.92299 3.50297 7.11696 3.25096 0.752251 8.66582 0.498277 3.6923 7.14137 5.85739 1.00105 1.56296 3.54548 1.57625 3.1036 2.60121 4.002
0.293854 -0.106501 4.84227 5.42992 -0.0990703 2.91259 10.1649 3.32911 4.84442 2.96648 4.64022 4.96971 2.33253 1.3195 2.63556 7.44633 1.51778 4.80355 8.20948 4.73843 2.52892 1.01371 4.82305 2.0817 3.9289 1.45781 4.89594 9.32628 1.5054 2.57987 6.33157 4.68101 0.267176 1.0779 4.73815 3.6334 3.88315 1.23643 1.34523 9.3655 1.55987 0.992975 6.67464 4.82241 3.79117 4.91856 4.71179 0.630281 0.499963 1.81577 3.04081 5.45303 1.43504 4.74721 9.80542 4.83185 1.47432 1.61448 6.12154 1.57186 3.32036 0.117384 4.17268 8.42935 2.59817 3.34467 7.18862 3.45827 0.831302 8.88288 0.161604 3.34171 7.07064 5.94661 1.16725 1.8277 3.64184 1.31209 3.05483 2.75846 4.35058
-0.0250559 6.24771 4.89023 5.23773 0.0305235 2.15047 -0.0161107 2.94471 5.13374 3.15599 4.73813 4.76846 2.14103 1.60038 2.57963 7.37569 1.57656 -0.00504537 8.3654 4.70144 2.61853 1.10743 4.64672 2.20581 3.92773 1.51146 4.82771 9.2522 1.59579 2.84607 6.36829 4.66767 0.191523 1.08855 4.52686 3.74191 3.65476 1.52399 1.19563 9.14912 1.46204 1.19049 6.59421 4.67976 3.78476 4.87373 4.79256 0.53504 0.130138 1.71302 3.16101 5.37177 1.13148 4.40336 10.2777 4.36443 1.64764 1.77984 5.87327 1.54734 3.01338 0.326422 4.21595 8.64261 2.78522 3.5839 7.19736 3.40011 0.664624 8.51027 0.327016 3.33416 6.99935 6.06025 0.983944 1.77467 3.40354 1.5369 3.4401 2.78217 4.02064
0.442699 0.0283917 4.83369 4.97673 6.03661 2.45858 10.1702 3.0324 4.98486 3.12962 4.59343 0.00386717 2.25143 1.6121 2.64673 7.14653 1.62414 4.75816 8.0199 4.77032 2.64604 1.25304 4.86317 2.40497 4.08577 1.45653 4.87664 9.21171 1.65967 2.36025 6.45173 4.52941 0.26562 1.46715 4.51916 3.85941 4.26626 1.61113 1.33202 9.22384 1.19079 0.887786 6.42151 4.7666 3.72672 4.95445 4.34168 0.760884 0.433126 2.02282 2.86436 5.41229 1.32231 4.20655 9.9416 4.5016 2.01162 1.86701 6.26333 1.83654 3.36029 0.0909378 4.39177 8.19006 2.73361 2.91431 7.4179 3.48599 0.692089 8.68029 0.452555 3.19141 7.10718 5.67319 1.09573 1.88824 3.70259 1.47273 3.28521 2.54537 3.97184
9.68864 5.78673 4.95638 4.84701 5.76759 2.74301 0.26459 2.74764 -0.111756 2.72797 4.93158 4.94373 2.69708 2.10293 2.4078 7.45302 1.81285 0.00360431 8.17638 4.14978 2.69468 1.09295 4.81006 2.00717 3.94847 1.45534 4.82762 9.43653 1.22555 2.77615 6.45612 4.96912 0.324619 1.11247 4.89344 3.48804 3.95222 1.25009 1.1377 9.12115 1.32375 1.11034 6.77644 4.70287 3.99633 4.96508 4.79538 0.574161 0.43693 1.40952 3.26557 5.30433 1.66299 4.0184 10.0299 4.24745 1.51935 1.30136 6.04024 1.16246 3.29243 0.127182 4.16851 8.62046 2.5186 3.59206 7.27734 3.78079 1.04152 8.62222 0.0769154 3.23032 7.13872 6.32217 0.857366 2.20649 3.77285 1.41323 3.05108 2.72353 4.26645
9.85801 6.06363 5.12764 5.49058 -0.195346 2.6298 0.451713 2.52797 0.263705 3.21598 5.16113 4.87875 2.42752 1.58321 2.67324 7.37172 1.14446 5.10355 7.76361 4.33697 2.49618 1.34046 4.99181 1.95556 4.1704 1.49216 4.68094 8.91605 1.5478 2.91434 6.18679 4.9398 0.145697 1.66003 5.18078 3.48248 4.23876 1.21419 0.950598 8.90835 1.24744 1.36915 6.27072 4.97084 3.76335 4.79587 4.50437 0.639184 0.352529 1.39636 3.00607 5.67241 1.83949 4.18266 9.8401 4.8535 1.84287 1.94515 6.17097 1.04405 3.75362 0.219231 3.80707 8.48423 2.78181 3.62895 7.16486 3.85892 0.681922 8.36979 0.300688 3.5899 6.67873 6.2805 0.759867 2.13908 3.63268 1.44377 3.1679 2.44924 4.14121
10.3039 5.98792 -0.0669744 5.29413 0.189696 2.33642 10.3344 2.77175 0.0803813 3.16354 4.50877 5.09848 2.12361 1.68553 2.40566 7.37457 1.3861 4.86241 8.19171 4.85387 2.5457 1.0982 4.78393 2.38379 3.91156 1.48093 4.69291 9.40103 1.49426 2.79356 6.56749 4.83524 0.0176155 1.42145 4.77718 3.80811 3.71175 1.40872 1.14235 9.08558 1.28928 1.24111 6.58852 4.92597 3.64451 5.09942 5.09311 0.374511 0.295266 1.60581 3.25044 5.50423 1.12601 4.51506 10.1322 4.52765 1.97696 1.55277 6.0539 1.65492 3.10652 0.445844 3.73241 8.25229 2.61623 3.36839 7.07071 3.50295 0.571873 8.85593 0.205702 3.74007 7.45282 5.8361 0.774468 1.83572 3.6259 1.73153 3.60825 2.87453 4.03845
10.3876 6.17665 0.114405 5.34947 0.133673 2.32311 0.896146 2.77166 4.97735 3.1113 5.05008 0.0374425 2.01693 1.3717 2.32883 7.24709 1.75468 5.07235 8.35557 4.47517 2.73975 1.07672 4.52543 2.32055 3.76972 1.49193 4.7017 9.36458 1.38755 2.59464 6.46108 4.95684 0.0205251 1.06684 4.73605 3.89528 3.73663 1.08697 1.20025 9.15917 1.68437 1.11787 6.57013 5.02354 3.69725 4.93842 5.08463 0.418388 0.31596 1.61509 3.22767 5.26231 1.52349 4.20068 10.1831 4.09159 1.9826 1.57199 5.86529 1.59432 2.99709 0.299489 3.88599 8.41386 2.41853 3.44167 7.16459 3.64488 0.785281 9.03917 -0.163868 2.91117 6.9228 6.31635 0.769146 2.06933 3.40462 1.58987 3.04031 2.79376 4.3645
9.8387 6.10973 0.134504 5.40979 6.02392 2.73442 0.414136 3.27124 4.90779 3.24295 4.84282 4.70648 2.37708 1.46305 2.28974 7.36147 1.59053 0.0241479 7.84726 4.51981 2.49781 1.11583 4.70662 2.16708 4.20481 1.62935 4.69383 9.18643 1.50311 2.87993 6.21837 4.69579 0.302564 1.2134 4.94829 3.77143 3.96422 1.4174 1.27541 9.1967 1.66264 1.32228 6.29155 4.378 3.69091 4.77872 4.75027 1.01319 0.683273 1.17862 3.52379 5.68745 1.28861 4.37299 9.58931 4.71832 1.6766 1.59939 6.03599 1.39723 3.4167 0.543278 3.84296 8.54734 2.79021 3.56418 6.86699 3.39815 0.972252 8.2669 0.364744 3.21547 7.14423 5.87897 0.767854 1.96114 3.37158 1.75699 3.96308 2.95943 4.2345
0.357939 0.197206 -0.125638 4.89919 5.78699 2.52945 10.1776 3.18295 4.91067 3.0259 4.70096 5.01641 2.44728 1.80436 2.13604 7.22388 1.32417 0.210072 8.30404 4.7045 2.53869 1.07693 4.72182 2.0912 4.0861 1.64414 4.53371 9.29753 1.26601 2.91221 6.18864 4.57309 0.563075 1.21152 4.55394 3.66397 3.92369 1.82312 1.01503 8.95155 1.34528 1.4414 6.35322 4.80293 3.99001 4.73193 4.286 0.75775 0.526644 1.76792 3.27903 5.57824 1.71623 4.17031 9.94348 4.80901 1.30556 1.96825 5.9095 1.49573 3.43068 0.302421 3.95635 8.31441 2.32267 3.75977 7.43274 3.86731 1.09131 8.99446 6.16734 3.53864 6.58137 5.94063 1.08985 1.76498 3.62701 1.28833 3.33241 2.9032 3.77311
10.455 0.0592534 5.08214 5.06298 6.28398 2.83282 10.2909 3.46422 4.6934 3.0989 4.65395 4.83485 2.24095 1.50219 2.51346 7.54156 1.64992 4.98 8.20298 4.5693 2.31639 1.1233 4.99855 2.26606 4.03363 1.42228 4.88417 9.36114 1.40463 2.76611 6.18723 4.52213 0.123076 1.26416 4.69653 3.79024 4.00751 1.2148 1.31485 9.14574 1.25238 1.22683 6.61315 4.89809 3.82286 4.7256 4.25607 0.41855 0.0907812 1.788 3.40871 5.6572 1.08103 4.44724 10.186 4.71536 1.6535 1.2068 0.0192002 1.91049 3.34935 0.16736 4.17884 8.49906 2.65514 3.33309 7.16892 3.29146 0.701917 8.75018 0.255864 3.61438 6.73664 5.79006 1.06624 2.10891 4.11337 1.45743 3.34273 2.64116 4.15383
10.0994 6.11077 -0.013539 4.98914 -0.159497 2.56751 0.343902 2.77355 4.96837 3.04522 4.59311 0.412796 2.2486 1.09308 2.31298 7.38565 1.60678 5.05079 8.09007 4.61476 2.08478 1.35318 4.62053 2.48921 4.08145 1.8945 4.67923 9.17764 1.4794 2.82945 6.31686 5.04829 -0.0292856 1.40556 5.10727 3.97743 3.99453 1.64631 1.11829 8.98695 0.967434 1.32556 6.49564 5.15822 3.56891 4.7586 4.70985 0.34765 0.338524 0.932306 3.38055 5.4387 1.87897 4.02957 10.1412 4.81542 1.95446 2.18474 5.83213 1.73863 3.28639 0.531885 4.10715 8.91767 3.00595 2.93446 7.238 3.62264 0.502652 8.16016 0.470248 3.64214 6.93626 6.23688 0.641444 1.88179 3.25341 1.86904 2.94644 2.96235 4.19232
10.0376 6.30013 -0.0376299 5.02816 6.00013 2.27609 10.1762 2.99166 -0.0282027 2.76464 4.7207 5.00932 2.11039 1.40069 2.65458 7.17959 2.05115 0.214267 8.35127 4.69842 2.4345 1.19413 4.53306 2.09253 3.98689 1.46612 4.87641 9.2646 1.31507 2.82263 6.73704 5.05493 5.0818 1.25294 4.78844 3.69482 3.68321 0.897421 1.06413 9.40552 1.67669 1.3642 6.91979 4.66711 3.56289 5.27177 4.91803 -0.0135679 0.286501 1.66865 3.20277 5.37317 1.55951 4.4632 10.2293 4.43569 1.79074 1.97404 5.6569 1.25448 3.36218 0.323581 4.00207 8.43059 2.42985 3.66371 7.59 4.03282 0.673265 8.79186 -0.0860465 3.46149 7.39906 6.31331 0.46155 2.04379 3.27031 1.68761 3.16911 2.76555 4.56822
10.1613 6.2415 0.193695 5.48103 0.100772 2.34801 0.423304 3.19763 -0.0894368 3.25061 5.07686 4.95167 1.79376 1.38239 2.10478 7.41609 1.49529 -0.050461 8.28927 4.52128 2.6147 0.930415 4.63755 2.23799 3.91222 1.54325 4.80422 9.33146 1.23033 2.73039 6.51111 4.91021 0.143499 0.977243 4.72793 3.77351 3.75711 1.34572 1.25368 9.38935 1.37693 1.25619 6.74127 4.90594 3.62142 5.11989 5.01104 0.491216 0.117227 1.44797 3.36454 5.54328 1.40539 4.57935 9.99767 4.34763 1.67081 1.46787 5.76736 1.35763 3.42753 0.345548 3.91056 8.42872 2.45218 3.54215 7.26178 3.86763 1.05931 8.76704 -0.193311 3.22897 7.04945 6.35943 0.704477 1.74243 3.33492 1.79842 3.22202 2.83454 4.28411
10.439 0.0273567 -0.0161143 5.46963 5.83181 2.3622 10.3791 2.88377 0.0888401 2.99056 4.77636 4.71688 2.29847 1.77011 2.66289 7.20103 1.32954 -0.0515099 8.48845 4.95316 2.59023 0.998487 4.6137 2.29142 4.05038 1.6446 4.72018 9.3524 1.58592 2.88854 6.46658 4.58018 0.0896284 1.09766 4.56137 3.93843 3.64866 1.47089 0.989784 9.38336 1.43369 1.3397 6.73063 4.85728 3.65359 4.83949 4.50566 0.353638 0.134611 1.34256 3.56027 5.53094 1.38916 4.16645 10.1923 4.96384 1.7093 2.00557 5.67032 1.57595 3.28376 0.532069 3.86972 8.73092 3.11117 3.00408 6.89405 3.10376 0.652941 8.28294 0.608244 3.59743 7.23498 5.54889 0.942585 1.09953 3.11647 1.66663 3.44308 3.01824 3.99235
0.242512 0.419233 4.99247 5.16942 5.99273 2.14545 9.98726 3.42274 0.109957 2.98767 4.48005 5.0802 2.15535 1.68435 2.46386 7.47728 1.30561 0.0693643 8.21155 4.77143 2.59769 1.07624 4.75761 2.18194 3.92241 1.30736 4.76783 9.23734 1.55959 2.63564 6.54657 4.76423 0.0706581 1.49784 4.63495 3.83995 3.71046 1.59363 1.12077 9.34934 1.16343 1.09417 6.70798 5.20158 3.65155 4.98365 4.42184 0.55032 0.0826749 1.70271 3.08569 5.42382 1.15931 4.47294 10.2297 4.77276 2.03945 1.62712 6.2873 1.81648 3.00031 0.155146 4.24208 8.32781 2.75208 2.95747 7.41882 3.51871 0.566997 8.68544 0.421238 3.51697 7.02866 6.0173 0.855199 1.8604 3.66394 1.50245 3.27515 2.45855 3.89173
0.561208 0.071496 0.192511 5.39586 6.20678 2.27614 10.2692 3.76947 4.73397 3.4209 4.86039 4.91458 2.06986 1.59547 2.79151 7.17258 1.26264 0.124173 8.04827 4.70828 2.32055 1.23161 4.57056 2.00432 3.91989 1.42998 5.09715 9.07376 1.53721 2.66254 6.60625 4.81264 -0.0655168 1.36273 4.63407 3.58003 3.76719 1.47566 1.30035 8.84187 1.46112 1.14506 6.66637 5.14327 3.76995 5.09376 4.40591 0.533152 10.3388 1.29701 3.44724 5.34861 1.13976 4.99788 10.2254 5.06338 1.32193 2.08801 5.37294 1.1475 3.08628 0.33125 4.38346 8.53301 3.0022 3.17385 7.38318 3.59733 0.521676 7.98922 0.468156 3.08585 7.21269 6.03165 0.849991 1.53687 3.00113 1.67178 3.34174 2.62555 4.46869
10.5048 6.25144 5.00412 5.32412 0.0418444 2.46231 10.2289 3.16322 -0.0564855 2.99966 4.67884 4.87872 2.32211 1.60517 2.43216 7.39161 1.47181 -0.01837 8.11774 4.57713 2.53006 1.13687 4.69035 2.21919 4.08573 1.66449 4.7609 9.25368 1.49101 2.65916 6.29701 4.57781 0.191799 1.32056 4.77334 3.8593 3.94318 1.51238 1.37484 9.1125 1.63089 1.13157 6.40174 4.55698 3.62613 4.8896 4.71981 0.701143 0.291851 1.51868 3.2235 5.51962 1.55587 4.28671 10.0674 4.6525 1.90401 1.89467 5.8841 1.51701 3.30981 0.395953 4.04472 8.52964 2.73033 3.31781 7.23545 3.39283 0.861325 8.45964 0.277289 3.25034 7.10169 5.86561 0.801581 1.74399 3.45153 1.5392 3.2015 2.78377 4.1595
10.2416 6.04304 4.81942 5.22195 -0.00167164 2.46285 10.3652 3.08145 -0.00711647 3.08123 4.50854 4.87937 2.31686 1.70723 2.54248 7.30767 1.49917 0.119497 8.06887 4.67355 2.42159 1.12857 4.76729 2.05185 4.06122 1.46831 4.60343 9.28548 1.62154 2.76378 6.38774 4.60673 0.302629 1.191 4.6818 3.7169 3.91774 1.49418 1.25622 9.2473 1.45615 1.22673 6.47707 4.68832 3.71823 4.82048 4.59491 0.780524 0.3813 1.55294 3.33608 5.54952 1.49723 4.20441 10.0425 4.78646 1.72041 1.80178 6.0076 1.45319 3.42901 0.230901 3.9594 8.59636 2.89349 3.35872 7.17568 3.41764 0.999535 8.44242 0.471495 3.40026 7.0122 5.82115 1.03391 1.92504 3.57654 1.46581 3.36625 2.73889 3.88383
0.365325 0.144291 0.100195 5.16966 6.28526 2.50609 10.2079 3.12286 4.93373 3.06483 4.69016 4.84356 2.22573 1.60185 2.43417 7.45744 1.41255 0.0924309 8.04908 4.6579 2.33673 1.14746 4.67007 2.19701 4.08525 1.65889 4.69073 9.35889 1.57821 2.78474 6.2292 4.54303 0.212216 1.25371 4.53831 3.77001 3.86709 1.59836 1.20814 9.29841 1.4565 1.20102 6.33212 4.84819 3.6476 4.80984 4.38829 0.893679 0.365049 1.28881 3.24369 5.56595 1.62982 4.35148 10.0405 4.94197 1.82326 2.08349 5.82994 1.62128 3.42982 0.279117 3.96223 8.673 2.91247 3.28254 7.17377 3.46148 0.791459 8.51554 0.415752 3.53598 6.99799 5.80616 0.982401 1.67175 3.39982 1.55372 3.28798 2.78568 3.97951