-31249.7510775738
-31249.6211000164
-31249.8657475112
-31249.9520384387
-31249.8395565676
-31249.3549438385
-31249.0280596382
-31249.4796532747
-31249.0190823351
-31249.3528477466
-31248.9496791919
-31249.2403725423
-31249.0787963258
-31249.1989747968
-31248.2065368155
-31248.9861565775
-31247.674871274
-31248.6491524687
-31248.4254514702
-31249.0866462618
-31248.3474953852
-31248.7575612059
-31246.5839837808
-31247.6237589333
-31247.4991790232
-31248.6357578079
-31248.1061135269
-31247.941185686
-31246.8435869166
-31246.810704153
-31246.532938108
-31247.3007196996
-31247.1177221484
-31246.7493993856
-31245.9873338144
-31246.8905059851
-31244.931098232
-31245.6260851913
-31246.4452527338
-31246.4740097096
-31246.9122760335
-31245.0594273247
-31249.8344292652
-31249.7069297112
-31249.491756892
-31249.415155117
-31248.9153463344
-31248.857753742
-31248.9054164973
-31247.8821333397
-31248.0017390114
-31246.8188621217
-31248.1993047137
-31246.9687345919
-31246.1766721589