-0.0348361158336619 -0.0879815620342613 -0.18945780914462 0.205406868029666 -0.226278301372317 0.222657161551951 -0.192025311434182 -0.265021720660262 0.0709248724799357 -0.683364671324792 -0.25050630815681 0.124074946663833 -0.367529236715487 -0.208288558963113 0.380925448591414 -0.247766542044496 -0.172242996827619 -0.244038444387913 -0.584251266798157 0.809060183473414 -0.112165860087607 -0.644987634047926 0.833847404906394 -2.29615488706344 0.461946780855926 1.3985842659089 0.328129415129801 0.257047191217739 0.577066579838463 4.39776144046483 2.49257009776579 -0.697444796288065 -2.26277478619731 -0.085866316556971 0.2136768170727 0.123461995987054 0.0368451748052853 0.0306179661678756 -1.12202935376027 -0.287361253149057 -0.203420177643982 -4.72041955089587 0.0921727151308103 0.267434956839895 1.31660494110173 -0.499315431994233 0.56483430576194 1.21431288338004 0.864381296044359 0.163110443119907 -0.0400374548400533 -1.69718046273379 -0.117110088910786 0.339628410963802 2.11326521465917 -0.0282636082201975 0.75457545032846 -1.3056271076091 -1.3916538609204 0.633080604353166 0.272701601832823 0.720471584296588 -0.664821370691131 0.306553499885147 0.0277421887686423 0.824557242656372 0.282758466649185 0.782887909483468 0.277672055894689 -0.341569592847057 -0.767217558037025 0.20675489672025 -0.83771099962953 -0.882201859953009 -0.274745113568997 0.185166640186802 0.581909507249457 0.316019268390303 0.23857690987611 -1.67361322912016 0.395503853089753
-0.0950171250876916 0.103513845312319 0.169001094527491 0.0370367218917787 -0.526259550754183 -0.658355049583334 -0.295718619654383 0.00949533617622549 -0.363611391743693 0.582751285989295 0.160979256811257 -0.511587815259338 0.350668979341135 -0.53032651963224 0.201718622451481 0.980475799731455 -0.507021795515665 0.443408365315746 -0.386748480020814 -0.0222909386641682 0.296604621345734 2.1467219343599 1.67603237883401 1.82478784620479 -1.43605730378159 0.400468907837772 0.157203079550413 0.773832231720536 -1.70536839362838 2.76627622908443 -0.00234201665888381 0.554109468689591 -1.2948158815152 0.52769988200054 -0.516644658342764 -0.746003139709968 -0.72570814739808 -0.01537878849868 2.04642762276176 0.248241938773256 0.141207226612023 -1.96910019249947 -0.064223809774865 -0.625115587987422 1.47979817370063 -0.325350568269638 0.239895628005808 -0.289453358709858 0.165476628136012 -0.501865707901519 -0.849234163820754 0.392352453574116 0.0973964227231412 -0.76220159547273 -1.55830393993259 0.127026571567114 -1.58058459418943 -1.24500823971306 -0.936128921110575 0.173564800279515 0.0898718361012405 -0.384338843383745 -0.493102107306716 -1.4353250539798 1.43051400823152 0.373204172679356 0.126101746238098 0.0997394678227579 -0.250146353900312 0.873705139728382 1.16551542748775 -0.702214447296843 0.123247308984071 -0.531561162732027 0.235963384863754 0.576414548413836 0.168428510149477 0.533440895281495 -0.424794359381702 0.42797866900079 -0.23098830281859
-0.348388154905856 0.441945408373267 -0.14066755233746 -0.000987560213719696 0.0973691690437207 0.334701151412715 -0.0316340656119318 -0.0101314267694935 0.449318814207438 -0.0169106509702608 -0.139093780906015 -0.280298693526389 -0.551279971123336 0.0946422584405676 0.686033475026539 -0.132333839968989 -0.465306953840332 -0.669269633970893 -0.928751658623655 1.26543975753224 -0.465301297416301 -1.70899776097461 0.745874584618362 1.87470681671625 1.24483340478848 -1.34022128276036 -2.34483124405944 -0.276372621028733 -0.564811937176 5.25909469528721 1.94300530867467 -0.897731315019052 -1.19795836173607 0.478320842873822 0.314297915713694 -1.46790837038815 -0.431071704504838 0.353021794627714 0.266181287586551 -0.213084435210578 0.711175508512352 -2.50063795820482 -0.162627075975467 0.00653136998415033 0.0173418247475084 -0.586868134242895 0.184416135562004 0.371133150153578 -0.0169903551270567 0.0764306299432509 -0.885452503999366 0.0669352937670254 0.691468527189471 0.7726320413853 0.123044191939333 -0.454905304268282 0.284198540785358 0.603185889130668 1.2692539871002 -0.71598758270136 -0.523121520968073 0.452416220584601 0.609657866662496 0.807111545394846 -1.03264165613401 -0.962826728315008 -0.0844992617128295 0.0229367994443984 0.326356383306366 0.065216512192249 -0.176790761748284 -0.257101955686763 -0.321470261384594 0.828021288154796 0.871503762339715 0.904811358134178 -2.24648865586207 -0.787014785034214 0.0989249427623403 -0.227118280340873 0.552396857759212
-0.315787097894862 -0.0047061447935239 0.0492479129332792 0.124292718989014 -0.122985570817561 0.0334135251899464 -0.252966081279605 -0.0741156098536044 -0.163287849146323 0.357845695885149 0.346577584995673 0.254214351219102 -0.0218438240555615 -0.0193832796022167 0.319539878129033 -0.597789917715584 0.179498903308063 -0.50794816350578 -0.190202400235204 -0.112616831348962 0.331645653995416 2.48168045306601 -0.960234286337675 1.11957755105315 2.34019709011721 -2.69435634019546 -1.37726828905947 -1.27279927941652 -0.0623677313622531 1.13146144083142 -1.85588532286435 -0.103584036392336 0.86224136798948 0.17723299126341 0.145540304529705 -0.183850236048753 -0.166603799179217 -0.262112004716844 -1.59482798411905 0.472280039119242 -0.00557517721278258 -0.643684599639404 -0.440452369539351 -0.00272356817077135 -0.314763799365675 1.13053070196819 -0.0164311404785693 -0.462658718953242 0.480701940280555 0.251758691859238 0.0153499921581602 -1.79664250866887 0.799048055828932 0.933909546009084 -3.06423299288368 0.403537774984598 -0.688599434655001 1.13822086754808 1.04873495383184 -0.0314728575270575 0.251106403324428 1.73608946097973 1.30545535800672 0.604102744044004 -0.659592263784953 -0.634525563582821 0.141780325210404 1.04508861721352 -0.0146051439573932 -0.0363672069746931 0.36617298049904 0.142287603601883 0.168343663789016 -0.588828599389892 0.031617353450023 0.313913793099974 -0.522275628465303 0.0220312573791235 -0.170656112776831 -0.11015885799745 0.0654998476141493
0.326260995428394 0.16879849170312 -0.167334249209724 -0.301862524592432 0.426644781370283 -0.0459856989286774 0.272041857102699 0.108666847604267 0.368811188088985 -0.502766879093679 -0.593195615851758 -0.748098587703151 -0.151801451711299 0.289016014288213 0.0631336625980435 -0.714369845428586 -0.604843735592023 -0.451651574899726 -0.341821046606239 0.300925100864439 0.430190330796785 1.11290759868025 1.41725046521013 -0.681407548610178 1.72981185874641 1.32128511776675 -3.19177841280051 -0.222005130127324 -0.196111306465797 1.71261221593022 -1.77684990965498 -0.33683593726393 -0.494308725396533 -0.189655012655145 0.0817093591147893 1.75019066897802 0.304082156804107 -0.509919427280471 1.18790021136879 0.414427676794569 0.0528582541259509 0.0693981522120191 0.995118481775597 -0.711427219381717 0.0970228416269333 1.53840515441304 -0.552002707848347 0.513846528218861 0.0548212903747793 -0.0753332836812994 -0.901520347789056 -0.767334543170387 0.469276220848769 1.40843389991759 -1.13776552541361 -0.194140299801289 -0.0150669138464431 -0.733699646112694 -0.391121410016894 -0.197116350171975 -0.884949082260636 -0.730206032943201 0.464352560840247 0.646329749204296 -1.40586614051784 -0.256463551101846 -0.42636684526223 2.14826485256935 0.00841470207618282 -0.0176876379439294 1.55153294325769 -0.750475828457135 -0.182610450745302 -0.87930397107802 -0.0148311438084371 0.562039260960235 -0.945381288163665 -0.342131892817743 0.395299450494099 -0.210540072837506 0.183863862888463
-0.273979696553573 0.299272653716932 -0.289666760161925 -0.109182867741974 0.0737638831229695 -0.0750180665966807 0.0057669814094592 -0.107489797185519 0.16657448861833 0.772317852741414 0.0777691455570558 0.147122560597196 2.60636603641497 -0.0813753729867961 -0.770517053018193 -0.0366027199025158 -0.195234817851225 0.327297406576925 -0.00939737719642147 0.445766579916173 -0.305310372149314 -0.897980969006951 0.316415989403 0.856682645828423 -3.45725136183231 1.54189131138722 2.65562860462869 0.856101062593996 0.529483455341486 -1.4294513718443 -2.03337208187859 0.220107142754848 0.414823369366533 -0.757501621323603 -0.277917081899291 -1.82215400948796 -0.0745218439430803 1.45421493914043 0.367058982190391 -0.309296351319659 -0.160300485927576 0.343223325545481 -0.0861941320405671 0.425341232741395 -1.97074209812946 1.46279084930149 -0.46548847362968 0.378259987322049 -1.37471801315218 -0.019765859554837 0.668256105628669 5.215558485074 0.337230858505344 -1.20589098221873 0.940798042037716 -0.000942308821474274 1.8188298319292 -0.757720422089517 -0.112321925968817 0.012637479725267 -1.72459894978177 -2.54666839430538 -2.14363352683915 -0.0840194941109547 -0.910104742586159 0.24540112835894 -0.326233998859157 -0.302012676939428 0.883035925387351 0.0185841811527918 0.467131407700409 0.271446389918379 0.320157713899293 0.0800764523412059 -0.0282705501951443 -0.266009795094348 -0.700035695604299 0.228369121382202 0.380139976981699 -0.388807932588347 0.25600692341646
-0.0951865606984287 0.0615452358861559 -0.446597817138499 0.202177049908149 -0.0704116805542433 0.337391552369852 -0.2190373072825 -0.281088793119402 -0.443179023032321 -1.51123015070856 0.311086352415185 -0.350393357224732 -1.2271725063036 -0.192264938124936 0.799382813287474 0.0829175198657054 -0.210632375393279 0.321962370275263 -0.287928438213224 0.362000853556049 0.27492869023981 2.89393400615133 -0.10368276670269 1.14584649847198 1.23271708740458 -1.6614550027764 0.080469573811338 1.41269190166177 0.807013329304859 1.14855309737066 0.326337357152809 0.373436086064613 3.24481355873252 0.865591513676741 0.601862028797306 -0.421088887421242 1.97188032491055 0.472054039268198 -3.88224292472454 -0.60806558329786 0.0669890297953168 -0.892266438074867 0.140565479594724 0.132378834251051 -3.06555556766612 1.8451620284531 -0.468978744366792 -0.504507257923845 0.519188763605652 -0.195343318348541 -0.218848074187656 -1.8973304559575 -0.0118522652257356 1.24235511973249 -5.25291042405039 0.116932425774186 -1.26889300440297 1.11989199680722 0.22211131663299 0.269514721111902 0.487186001990994 1.48941512299352 0.800234105104091 -1.05614435509166 0.899933977958635 -0.607231774973702 -0.739022855345929 0.92051847633682 0.0594433601383927 -1.22809116098822 -1.75398073018876 0.794485635627823 -0.806957279284918 -0.855261083625441 -0.477064088298279 0.787327431017001 0.46009353065533 0.394286436372241 1.0415081008021 -1.49241816993344 1.66420042531274
0.242611482871083 -0.062659037199833 -0.167493400413132 0.591815448388272 -0.586854250293002 -0.0974642998115094 0.1300026219378 0.0718227012397142 -0.272711372019785 1.1454909150886 0.0789325691360929 0.0699437400207963 0.0566981947122315 -0.0985819577779346 -0.0521486300202841 -0.15510840288778 -1.3741847666322 0.0650195657919081 -0.427027618433087 -0.339524024229418 -0.613535859555892 -0.441453813702964 2.47077512464504 0.419537998796103 -1.53918316982744 -0.188155288956465 -0.758334401207029 0.464788876821159 -1.50400715433157 -1.18536047697902 0.308623236860008 0.233631395502015 -0.424959424119324 -0.818286068177633 0.463240045077486 -0.266158404780245 -0.292925374623961 -0.121010193279938 1.73049680027449 0.581371632746176 0.447155232015704 -0.441800398229935 0.322167544201466 0.411816465773861 -0.0676634298058835 -1.28078332193582 -0.712773191190836 0.209335254518972 -0.0932965437416327 0.352185672311907 0.539913387033689 1.98200249571344 -0.574714021662068 -0.661231598313117 0.187462891233074 -0.55424779396816 1.2660773907866 -0.194481742124595 -1.72809410561237 -0.165860236529366 0.0679182259974472 0.384242941285407 0.0661709051923342 -0.417012919686772 1.24050675462538 0.634882946737487 -0.122918465059743 0.780296753057051 1.07507872031399 -0.252083936241002 -0.289938782735764 0.394411391921283 0.92511946306541 0.302793006345479 0.198966515050373 0.244701788660601 0.0731020815113802 -0.713065268358965 -1.21621369896453 0.824243568232853 -0.782047416294546
-0.050551204451984 0.547286278647495 0.344409374820641 0.36539110843189 -1.03628876408289 -0.556374352293511 0.148286755506783 -0.0276912809523662 -0.282013875558601 0.012927757122114 0.262382484629584 0.295441711987063 -0.949199631494555 -0.306514419137298 -0.0837484999778486 0.661937879986402 0.213461101628985 -0.324240109388343 0.707708891912097 0.198269489343684 -0.543088183575999 0.0786263509078867 -1.77776830722941 2.45828291217329 -1.62609489638935 0.782065671117554 -0.41892710500079 1.61036412404985 1.73870170044117 0.00206973697486164 2.65891344432942 0.109161270486585 -2.38302007668219 -0.258757745266652 -0.0279327074144029 -2.40872106770631 0.216745941329709 -0.597782204410088 -0.191146251717778 -0.434401538487625 0.389087411357499 0.909588722448452 -0.861872929096937 0.0086484152327231 2.93730618006765 -1.75994748621058 0.475963656714129 0.482584243931854 -1.32711149162853 -0.149491573825317 -0.459663128208632 0.382321813996442 -0.0964304597648114 0.436865168263168 -0.838091008480318 0.0482333561503222 -0.321188725733976 0.958410089587781 1.63176366170882 -0.909849946394596 0.306715993520937 0.976661055943129 0.46106669269879 0.782432567348999 -1.06674963592882 0.116468856113854 0.357916915405899 1.3363443183077 -0.753649853668895 -1.13951824553257 -0.655458189149077 0.165205376892723 -0.656408982606597 -1.20803425270599 -0.142241580879087 -0.370838758993799 0.10803409944338 0.640954860824236 1.02409428520329 -1.87592243366248 0.527628919589973
-0.0331440737179396 0.399326310183575 -0.522404954887459 0.328413264772067 0.303039832121363 -0.0479847306031556 0.182087231522464 -0.453717969442206 -0.222450702074831 0.344351525029418 0.303174300747183 0.737243652878097 0.643221544199439 -0.70911451328372 0.0441784714508759 0.2161273342289 -0.263905862465119 -0.0958018253668565 0.348940941799763 0.0374882073735001 0.0102108738161062 1.09753035284267 1.90303573092298 -3.67715590176279 1.34787750979607 -1.5706727395164 0.243640180714116 -0.365082833322218 -2.21797282255214 -0.959319745415987 -2.20456786892999 -1.28030355433394 1.12265850237859 -0.311723471449186 -0.498283134608634 3.02587549598074 -0.531343647517029 0.241166266531245 0.534835975135606 0.0744251705141924 -0.0256747657854296 1.69198143771905 -0.696496573932377 -0.34426282201621 0.574108784290785 3.28874828972971 -0.988409448654847 -1.18959919545946 0.128850511206824 0.421394077208715 -0.356963036626181 -0.0939686297605505 0.40489685941306 -0.436998094227889 -1.2792290908783 0.955669295034735 1.0381386718511 -0.924071224848453 -1.29754484899982 -0.0378646166817234 -0.465666393876463 0.764835175079377 0.0316849734282079 -0.393531046653963 1.47870108454887 0.0534663197092488 -1.29352390284455 1.02951005410248 -0.120539938754843 1.00592173745383 0.476350607539864 -0.709962719778138 -0.354893299651319 0.775897083601917 -0.430483693515831 0.689988600974899 -0.351864027472708 0.327377624954087 -0.749242213798081 0.507241367612128 -0.627872066261645
-0.169140705356976 0.463815457667516 0.277486679452593 0.161727704554589 -1.00855583128084 -1.17123252952167 0.152234425259829 -0.165987763180239 0.235889080020805 -0.632634261075109 0.328040197896226 -0.0088114230888799 -0.698917266307324 -0.710155552415548 0.0271729468230096 0.275024592338149 -0.00433770590098021 0.149704461057017 0.354315315959457 0.769141770648188 0.237206255489404 -2.38841347699544 -1.57509477755748 -2.8554690371918 1.02264829753291 -0.476572236517793 1.06507327753427 -0.498882201335519 2.30687303927102 -2.508430967858 4.82815000321287 0.849450136374652 -0.286856288749227 0.687265032804128 -0.319622153387661 1.78774546788898 0.314397674464781 -0.330339277154513 -2.86650060671273 0.183002029554335 0.299379097332782 0.295707049696139 0.0406252087188774 0.354954491874923 -2.07875742852947 -5.41148210110605 0.250081562134142 1.37078088491665 2.68929409779819 -0.315926965834529 1.00809457561216 -2.57652891387351 0.785187502962122 0.818248015870518 1.78442668964407 -0.498175662552051 -0.413997531458054 0.697143977373706 0.404432775532361 0.151254578351606 0.182796084297581 0.785667784784363 1.20388449434894 -0.0311720386126988 -0.758748348602001 0.456725901475611 0.381198756716169 0.0884001374125314 -0.0622628304075023 -1.17625723383219 -1.84515868602072 1.32768690421856 -0.626972180620401 -1.38306303836872 0.193798086147433 -1.10011868105707 2.04069278012521 0.311808317809646 1.5562683986121 -0.334378478132783 1.33405140969381
-0.307841879013225 -0.250398064769677 0.221080561908491 0.204900360968737 0.153728749644661 -0.133426815357826 -0.133421930264345 0.273813603375217 -0.0592543841537314 -1.67341756827073 -0.351392230286513 -0.443075921848852 -1.3234301880253 1.06181723417407 0.228942219980583 0.824382921952154 0.239325100509259 0.0251263497646371 0.313666453103724 -0.558675745543448 0.367938556127161 -2.11276153581026 -3.60239006025584 -0.913839782217689 0.891603350912362 0.8120025524101 1.38216109584601 -0.749616309114655 0.54370447668516 1.05944719250521 2.6908591274834 -1.77859131692587 -1.47457420899812 1.20114498534681 0.517816566557847 0.00299790473625922 -0.00868698176020499 -0.00642955435159814 -0.274066599795499 0.600229379133906 -0.558674717102715 0.0629385159689851 -0.0473337276192612 0.214719398865627 0.159892966287184 0.264241134144028 0.152935307619267 1.09859864565392 -0.478394633496404 -0.240021354885399 -1.23775079057152 -0.474869138664193 0.151009552347004 -0.106850878380236 2.02200678333986 0.869053502293699 0.660335826434804 0.451817410967899 0.670510961935443 -0.208462365446965 -1.46699794322939 -2.06641202597233 -0.79154018136894 0.086626848478914 0.378202651751192 0.534909765758188 -1.39350531134971 2.47264611544828 -0.440834435271605 0.715072784669489 -0.51309422382278 -0.0226107837320847 -0.42293031055341 0.124218928366432 0.259061135282843 0.128604713871673 1.40282941214392 0.00893586441755481 0.198050945687953 -0.112254820210999 0.0339205464712417
-0.229363366460686 0.0542677321503225 -0.371090469863165 -0.0489568642058825 -0.272375329010326 -0.00928347738525828 0.121586891420884 0.120911977189951 -0.255423797520934 0.548307777405398 0.203067165362431 0.476195570099387 0.504490288651753 1.27655463075252 0.497507947406248 0.157127232046366 -0.255379317459238 -0.386552562061206 0.651840905981459 0.244548550991407 0.140639270217306 2.50490187348322 1.39682460381499 -3.4714507859206 -1.65207253797061 -0.431686197842716 -0.917441124553949 -0.0369253931824477 -2.05207967591933 -0.46397023799781 -0.375501709276544 -0.717163347569191 1.39692821921882 0.2503854663707 0.235978040144197 3.28793247911837 -0.15080514975135 0.614124127655083 1.20964453378345 -0.251191249684888 -0.838532980885261 -2.15295891318427 -0.432684813794314 0.216541281623872 0.569885492421335 -0.564637873581965 -0.174819755083776 -0.727294517228501 3.06521618222428 0.827615568285686 1.22755302937476 1.94988172052469 0.54836151343369 -0.190112668781263 -2.11371927124272 -0.553711719236161 -0.895890920327616 -0.0683743394624664 -3.71864705757873 -0.0996589923354123 -0.640763827958109 -0.998421062078964 -0.760464559074946 -3.27378293440563 2.99926330646731 2.29643488005296 -0.384726565540029 -0.375062565083617 -0.95622593858139 -0.0409674223727334 -1.05833133431007 -0.0797252398309374 0.359849612653109 1.4402428004541 -0.243218262903464 -0.662264409919082 0.992701646053399 0.412058920676631 0.813150035157778 0.27520714056823 0.465982382291632
0.309766091624388 -0.101350006010402 0.836130543333322 0.230265566093579 0.0439843532625503 0.333133807735851 0.226631570764052 -0.430215270484557 -0.0496965702029852 0.0555537972867521 -0.690312302695564 -0.442247769948725 0.110550951026849 0.444798045856011 0.0369320780472112 -0.18443824703776 -0.331327094478416 0.192754475913773 -0.117379540382793 0.4614708699068 -0.35306550335886 -1.28549512315337 -1.4468669872144 2.23054191096868 -0.229419930700992 1.02733078818957 -2.97609099409509 -2.07969073849453 1.88989817189137 -1.85749380417053 0.945891137656975 0.72098477622228 -0.678024492819466 -0.0453480656743101 -0.408956114985621 0.481211018443315 -1.43928815034384 -0.853430202010784 3.31391757689494 -0.270299421391067 -0.0271516066778029 0.552610259211278 -0.300663876918295 -0.272534994434101 1.08965558215123 -0.635148798666929 -0.764496560968086 0.190596293035886 3.8811286091905 0.410170703491117 0.506781654604544 1.81825261956789 -0.46500587781579 -0.809874708533832 0.337966707849699 0.4875978925045 -0.287615020899888 0.835710682404136 1.58663593946153 -1.52315543522633 0.0630647570689425 1.18974394849261 0.395659918970963 -0.491994733747619 0.266413458081992 0.125523505436053 -0.145308648254631 -0.161708678401031 -1.07090273671825 -1.60628378544227 -2.35006755005075 0.585611636777535 0.323274403540197 0.319971309016464 -0.0390154418617831 0.0487002682430363 -0.0462479513155543 -0.12522474340316 -0.355998102108584 -0.49932880172376 -0.658653040285677
-0.030687385917343 0.771237218641371 -0.440526160161933 0.148007533847814 0.47386615183948 -0.3256452165396 0.954502014802949 0.204813457726811 -0.508020668577446 0.353895197920087 -0.249530060791151 0.624572571280477 -0.964034117735374 0.701396579804043 -0.193473870206402 -1.35236511093386 0.179715390082328 1.01828308084232 -0.0833736333307246 0.339674433686597 -1.02295451576111 0.843848219702816 0.959153138017266 -0.657089553261561 1.23577181349133 1.17078875734544 -1.35070340781976 -0.0469303217418006 -0.543458422239825 -1.69217427035646 -0.856172025004563 1.801712978592 3.78674037561094 0.0858164371814278 0.342246306849273 -1.49745033043928 0.523090410635904 -0.517973146659423 -0.590768495722231 0.714314309629012 -0.779500739929825 3.66881319053791 0.361539340777182 -0.578613097590487 -1.22339787170386 1.80120827130236 -1.10376424634484 -1.95369337899082 -1.28522387191008 -0.95813472458156 -1.78724847390483 -0.317289392695373 -0.866914602679553 0.0745195299514314 -0.678578822374472 -0.559107433541062 1.06248392087914 -0.089450432510955 -0.213349515809471 1.48159434544056 0.463539064220562 0.812692893252026 2.37668205355582 -0.502407181947364 -1.82260935162243 -1.0736358179658 -0.799309022664892 0.683826698324025 -0.749697041712184 0.656319251152656 1.87128390884714 0.105514419647897 -0.561523755042894 -1.5056179496294 0.350075826148464 -0.251471756894773 -0.762082553457903 -0.146518094556463 -0.323035033959626 0.148248188979301 0.6637175966746
-0.279502680399163 0.108179880917262 -0.871075930994849 -0.396557233510375 -0.361504373792265 -0.752300282317212 -0.0190706336194301 0.14575833396507 0.766734448002769 -1.12583381314126 0.00948505176889698 0.485723045048514 -0.494261160012639 0.115171735239546 -0.128768750168563 0.0884762420267624 -1.07954909506951 -0.132259792236224 0.481483041017154 0.13154399748616 0.515173216764238 0.638123306376515 1.8741653426704 1.85272081072937 1.81526782745097 -0.0176261886101416 -0.243846640191236 -0.348093506635895 -0.651591251993559 0.235029560678326 1.49915599939471 2.00584997942678 0.658769768308856 0.387934786406157 -0.482762164178637 -2.40186548178113 0.632182004262838 0.246447566804615 0.822813007173458 -0.345619592453023 -0.0736944633735021 -1.82833133874982 -0.657598117203956 0.153500178691785 1.68847599748113 -0.791143460356243 0.0222199762536016 -1.55366412956634 0.168132576328599 0.192622321279601 0.531229747705866 -0.589430751438975 -0.0191210272153398 1.71440453101739 0.213815142351269 0.190409116822507 -0.387698502147784 -0.116393522830173 -0.261703713745903 0.618263601604806 0.305461552937043 -0.462446088831725 -0.534358521525381 -0.410956946431382 -0.699508105508347 1.21403443305162 -0.438035790927335 0.406764507783916 -1.35213576865044 0.117843881373675 0.617382227896753 0.12015555903094 -0.155989776595833 -1.52028402870021 -0.153491436945556 0.649589134996882 -2.00605669601408 -0.306665599925027 -0.82897876647708 1.41634698002632 -0.577065551397731
0.270138213306193 -1.1139972316367 -0.431997558274587 0.159991696597537 -0.233606712924427 -0.709609193276221 0.449682625116684 0.580284056671186 0.236127678270827 -1.03113499046039 0.12480539669434 -0.169928233848156 0.356470670625328 -0.208219139213646 1.57284094969144 -2.43211012396298 0.239878915843899 -0.824282648980701 1.92831120459388 -0.166880706846537 -1.56015719013319 2.60708928736035 -0.187727200501416 -0.893758191357867 0.222431933031457 0.876791490367666 0.0238945348768654 3.15203534912024 1.71231011146494 0.957795853360086 -1.15962169075797 2.54784364495284 -0.287964433638874 -0.411486336298616 0.329342203864015 0.696881982097013 1.23223192048886 0.074454995295445 -0.5321864546976 1.40982152357639 0.338001160614249 1.92631294424996 -1.81695344181211 -0.364224342420471 1.89914359696951 1.09231590121693 -0.152848661487524 0.370300113159969 -1.71286804056251 0.497068031882771 -1.63867401210303 -2.06853781296713 1.10274763268042 1.03730203531493 -2.3444229530885 0.126637049639547 -0.862997271928125 -0.737649886967573 -0.325164420496993 0.41202601057318 -0.0975185500601672 -0.87433325990597 -1.00892838393631 0.00632979560051164 -0.655330919608387 -1.00440504448305 0.865084235285262 0.191839677881902 -0.330831900265548 -0.83787426459587 -0.344303188314974 0.664606426577966 0.598484115210258 -2.46984412867163 0.929199801672995 -0.266162518543176 -0.261738937841003 -0.466708461449024 0.565921881836929 -1.38378474665299 -0.00400294844243737
-0.596520564741064 0.0436753068223288 0.0885446333354969 0.0997682641632777 -0.152397947336353 0.380849086867 -0.437616187108332 0.105952535400091 -0.77810617429608 -0.310538450614759 -0.246573807904572 -0.387735526014167 -0.734553766141327 0.226986897037251 -0.531930372955121 1.03497338838557 0.515667639646556 -0.274443266213905 -0.182783228788421 -0.897742884977296 0.503718700991932 -0.393543902163123 -0.179168259612451 1.34846346390361 0.73300621994857 -1.6346525517274 -2.25304933640711 -0.895041685392465 0.835746163609419 2.5043508863606 0.708180431988109 -1.01786450546405 -3.63442573197395 0.859653811105629 -0.0639764697786145 -1.3821811504403 0.0680552657250996 -0.0991098049840702 1.20048909726943 0.466801535335347 -0.202152367330561 -0.662642104778221 0.664335432444859 0.762236305347464 1.35698872335857 0.742358859973112 0.54463290155674 1.13156197091306 0.288058793076113 -0.353647343703471 -0.70417979753732 -0.731939212688238 -0.873947080410785 0.413793643082767 -1.28538353733386 -0.266478764068527 -0.754885782319598 0.107639949532515 0.345998572863078 -0.135402707115815 1.46202877471844 -0.44866189768933 1.04657702806414 0.838761294727954 -0.618030659778815 0.240412676584248 -0.975934462565371 0.401839819334662 -0.583166518935183 0.469301674756907 0.902553159395022 0.519475698570118 -0.538627836117626 0.0412664415158097 0.175830198103802 -0.556905027711662 -0.260946781366525 0.438129379034025 -0.903536348735626 2.58879486938404 0.73296302543779
0.0705230092635744 -0.199811893332776 0.00280070122573513 0.0838731984167067 -0.4213544822405 0.480681114355714 0.0897782479945511 0.453754993308589 0.259930681922468 -0.034267902328762 -0.0790582960156839 0.348270655552128 0.210268050263667 0.601151633361089 -0.310426093464695 0.055691608344954 0.345070147991497 0.863117342383686 0.0237659797852591 0.125556158429321 0.283032546104489 -1.57912112302659 0.358961811190475 1.63792787835135 -3.03159054113319 0.148446163820375 1.15094036542179 2.18915359922602 -1.58738130188266 -0.295399545917017 -2.80918406200987 -0.621039106032586 -0.608628654599096 -1.5090899655435 -1.23184728365478 -3.00612711991836 0.626130144770379 0.0920282192078448 -0.798757778432084 -0.236433896499033 -0.967477337308958 -0.67505487020336 -0.338299151316593 0.449601121188606 0.912742693065921 3.34611162848591 0.400831433196102 -1.54539983694734 -0.615449787759727 -0.0305729718858133 0.796395450068727 0.643579698684654 -0.852209957081257 0.166129688001372 0.457294629200877 -0.169812277155527 0.849719073626293 -0.00125546902462725 0.119906162153223 -0.0643395093573107 1.97354382779593 2.5244083088632 -0.725317082809413 -0.567358099320355 1.17501719141856 1.12479251689925 0.286639544864779 -0.839010177385303 0.489143124705608 -0.127336903558252 0.331459506222771 -0.983060014182925 0.568113489038633 1.16982742237041 0.00161105240801031 0.425667505563892 -0.215344690831201 -0.26163866486955 -0.20074700306912 -1.08110152635575 -0.093086484721948
0.329846654043478 -0.388440522136536 0.117687044161915 0.00969048280528387 0.118573817183816 0.230476396443813 -0.108954811009465 -0.0483693674372417 0.13430587507423 -0.768331873571069 -0.0107225230806993 -0.276339710925281 -0.952530236807892 -0.132812579130131 1.20692430804506 -0.609578419615883 0.140447980240996 0.120159929904054 0.111273944862043 0.283537767614502 -0.0269795999652337 -1.5905555842046 -3.33636818098288 0.273700217784421 2.24861752817907 0.617244416838551 1.12807195728613 1.35041210198218 -0.994847487642491 1.36156374195866 1.84692169054701 1.98376035803607 0.22466030698936 0.856262527789054 0.188066328833074 0.407485444737645 1.07159384889073 0.471928826608973 -2.36192778569216 0.0496235509109529 1.34520639210267 -2.13466423809777 0.25784757521808 -0.730093418682954 0.236482747433843 -0.674798531350697 0.060737652800685 0.409568037221667 -0.253176397409473 0.41900552360667 -0.937798080419992 1.32464374809006 -1.0822356393739 1.13044071340407 -0.858906648913213 0.337505709291199 -0.500853979330577 0.965301670938612 1.07514428341071 -0.565626462236418 -1.02340471569192 -1.38963143221925 -0.54339157359219 -0.233476615171721 -0.0997644075105295 0.0365723809008968 0.18429735065736 -0.409318126123584 -0.125723280048409 -0.964532911490807 -0.409964501124181 1.10068766589252 -0.681726879457728 -0.911488252482027 -0.890416787416836 -0.241553474467163 1.8875558981223 -0.315637973988598 -1.64480557575228 1.015341226126 0.56057270447519