5.4818327767 0.5064515367 2.3998785913 2.8877975853 4.6736517521 4.9143432688 2.1933290028 1.582833591 2.4254147408 7.5554119243 1.6222316141 0.0276654005 8.1606854559 4.6464281295 2.5244194256 1.1118751681 4.6835722514 2.1983476495 4.0508373564 1.6093947493 4.6721341839 9.2742569728 1.558547448 2.754182597 6.3134873486 4.6727597499 0.2774017284 1.3745183369 4.6975996715 3.7173900584 3.8055747919 1.5644029841 1.2477742166 9.0543643608 1.5671832256 1.2298443055 6.5399353934 4.71679262 3.6963107413 4.7981680258 4.7221907067 0.6119837873 0.3755511394 1.5509857506 3.0841691238 5.5885067008 1.5913238382 4.4058401521 9.9950968751 4.6830707464 1.9212235112 1.8439093924 5.8869133988 1.4796014273 3.3869328413 0.3911681747 3.9110989362 8.5293043345 2.7764301303 3.4478905125 7.0457824794 3.4581202737 0.9717192663 8.498129902 0.3678965684 3.4447233392 7.0507576553 5.880990389 1.0000833985 1.8292716267 3.4626264146 1.494469846 3.3341825532 2.8195450277 3.9787147919