-0.134928338827787 -0.360818146713271 0.0755076043855175 -0.0675991522600804 0.0116658603429065 -0.0395661718742246 -0.014465790238092 0.0141017222186629 -0.00203579843067757 0.0622247781003869 0.00121253162403074 0.0582886783055848 0.0345545801830441 0.0136836610607592 -0.0136412378805291 0.038639289663743 0.0102751513619094 -0.0482999476877743 0.0637250160194325 0.0202127170532606 0.000348127188069895 -0.0673662104340897 0.0205266485869632 0.0335994158524092 0.00509206717852605 0.00931355927669416 0.00610045331708597 0.0257182174063925 0.0197833430472955 0.0232345330365586 0.0141071215325104 0.00419860929186218 0.037657385874054 -0.0185535850409895 0.022937570774948 -0.0225909862479774 -0.0165404123064346 0.0218438240555615 -0.0382813922887111 0.00706590205504938 0.0462484655359207 0.030817997890415 0.047085616292461 0.000965191627780198 -0.0265597390360475 -0.0338146170757581 0.018457425832468 -0.0531061083425679 -0.00854454271870519 0.00832239952040949 -0.00104129624201113 0.0255186999042195 -0.0245036289008961 0.00337174294265038 0.00933027143860298 0.0122775254687693 0.00572918621252694 0.0081617056559016 0.0139824230936522 -0.0273133289830437 -0.0098213518885391 0.0198237093460599 -0.022562704127824 -0.00451588325794656 0.0203998932666394 -0.0235934588523234 0.00774313027763144 0.00295059646254809 -0.0161807151601202 0.0285379447856854 0.0327596939940367 0.0234024259861964 -0.00135497066553054 0.0393795098812122 0.0367148199423965