-9.20527793416879 -0.373645967807589 -0.855189701720044 -0.373645967807589 -5.11315524930279 0.665369557646669 -0.855189701720044 0.665369557646669 -1.39667663902409