10.063270309 -0.062601620 -0.144787567 -0.037410097 6.166363356 -0.003593318 -0.068828461 -0.002858441 4.998108869
10.044704244 -0.096646326 -0.102125954 -0.057754871 6.107152141 0.023369555 -0.048548176 0.018590196 5.018703470
10.123595729 -0.070808985 -0.094074448 -0.042314736 6.059977697 0.049554078 -0.044720687 0.039419665 5.013368478
10.030823122 -0.090857946 -0.132534029 -0.054295793 6.080274036 0.006733077 -0.063003429 0.005356081 5.035578384
10.116198267 -0.060345808 -0.158209546 -0.036062046 6.117857229 -0.004138544 -0.075208941 -0.003292161 4.975581848
10.233803435 -0.013248175 -0.013633079 -0.007916976 6.080522625 0.028567538 -0.006480832 0.022725128 4.927270361
9.880347086 -0.114154941 0.022424916 -0.068217842 6.198558659 -0.030352296 0.010660255 -0.024144881 5.035816732
9.881568904 -0.132162232 -0.101952252 -0.078978818 6.189087271 0.039169399 -0.048465602 0.031158779 5.032692441
9.979016439 -0.069824602 -0.054862882 -0.041726479 6.211755878 -0.006235610 -0.026080469 -0.004960352 5.018916569
10.162082635 -0.029197959 -0.017158337 -0.017448406 6.047830285 0.035621131 -0.008156653 0.028336176 4.946529785
10.275867126 -0.017555503 -0.018681189 -0.010490992 6.072012755 0.076258523 -0.008880579 0.060662725 4.929289912
10.205080592 -0.044771485 -0.086910916 -0.026754988 6.082757148 0.015798536 -0.041315320 0.012567542 4.964370165
9.951788237 -0.100190979 -0.205525957 -0.059873120 6.106359907 0.028504632 -0.097702003 0.022675087 4.971238829
10.361000082 -0.000090460 -0.008522317 -0.000054058 6.179291127 0.008803828 -0.004051301 0.007003338 4.928782777
10.196032815 -0.029598011 -0.118501266 -0.017687473 6.028924681 0.019221904 -0.056332598 0.015290790 4.991500508
9.882587621 -0.131191541 -0.102475945 -0.078398743 6.205318192 0.035391740 -0.048714553 0.028153698 5.033763134
9.945610965 -0.112762275 -0.190568571 -0.067385599 6.087712141 0.053075970 -0.090591629 0.042221286 4.994438182
10.225235732 -0.029721897 -0.028063300 -0.017761506 6.086491027 0.088819313 -0.013340605 0.070654680 4.992906873
10.082580812 -0.074867007 -0.084756552 -0.044739769 6.056012579 -0.009164437 -0.040291188 -0.007290198 5.043715321
10.328887688 -0.021588528 -0.133390816 -0.012901087 6.002914040 0.053568373 -0.063410725 0.042612987 4.943333169
10.059978692 -0.063130844 -0.033227131 -0.037726356 6.026480523 0.040591134 -0.015795364 0.032289752 4.990050470
9.874635447 -0.110037491 0.022093290 -0.065757295 6.204839023 -0.029431148 0.010502608 -0.023412120 5.028163785
10.116617397 -0.071066336 -0.121631422 -0.042468526 6.079019275 0.060299317 -0.057820597 0.047967371 4.985197147
9.980783112 -0.093117213 -0.066202237 -0.055645908 6.053748146 0.043164205 -0.031470921 0.034336599 5.032286091
9.927694036 -0.114559839 -0.131140810 -0.068459805 6.200823434 0.012859442 -0.062341127 0.010229530 5.017813497
10.208158629 -0.018172592 -0.014694476 -0.010859758 6.066878972 0.031592260 -0.006985394 0.025131257 4.932133942
10.320198662 -0.030790849 -0.109007194 -0.018400301 6.045273622 0.117729566 -0.051819349 0.093652434 4.915309267
10.019606325 -0.104966798 -0.087395575 -0.062727101 6.120561799 0.010712938 -0.041545714 0.008522012 5.027238351
10.071485066 -0.087117239 -0.124716980 -0.052060384 6.054870539 0.042818095 -0.059287396 0.034061272 5.006078957
9.881627830 -0.131664368 -0.102227823 -0.078681299 6.197759665 0.037502006 -0.048596602 0.029832388 5.033436296
9.977936660 -0.094315725 -0.067401159 -0.056362127 6.055533035 0.043157786 -0.032040859 0.034331492 5.033058736
9.971022804 -0.106781418 -0.180088085 -0.063811499 6.067966452 0.047021560 -0.085609462 0.037405077 4.990049537
10.022161621 -0.066803300 -0.149034187 -0.039920979 6.110021648 0.013793053 -0.070847200 0.010972205 4.963570676
9.964426435 -0.099764422 -0.197702632 -0.059618213 6.103126280 0.024988634 -0.093982986 0.019878153 4.979783396
9.954261460 -0.104749232 -0.078195513 -0.062597085 6.073815154 0.042898667 -0.037172231 0.034125366 5.036695482
10.055664796 -0.056948705 -0.142457282 -0.034031972 6.087488727 0.014959833 -0.067720701 0.011900364 4.964507547
9.929275165 -0.113733491 -0.195123091 -0.067965988 6.111125579 0.054018733 -0.092756736 0.042971243 4.992539042
9.951391972 -0.120973619 -0.024577688 -0.072292615 6.160175593 -0.015513749 -0.011683630 -0.012340998 5.043219995
10.187484137 -0.048102563 -0.103248251 -0.028745607 6.087687778 0.007733161 -0.049081688 0.006151635 4.965601827
10.341023782 -0.022360666 -0.136282702 -0.013362508 6.002140462 0.063154450 -0.064785457 0.050238595 4.933790874
9.928934071 -0.113581061 -0.195330900 -0.067874897 6.111931375 0.053710811 -0.092855523 0.042726295 4.991830338
10.342970429 -0.027239996 -0.113581579 -0.016278347 6.036451295 0.118230795 -0.053993899 0.094051155 4.909893230
10.268876294 -0.023022120 -0.025811876 -0.013757787 6.072903390 0.064946375 -0.012270334 0.051664049 4.937016157
9.972365505 -0.096701552 -0.069786165 -0.057787873 6.059240722 0.043127226 -0.033174633 0.034307183 5.034315934
10.272390938 -0.011524836 -0.010699949 -0.006887126 6.091342034 0.118707429 -0.005086494 0.094430312 4.957996790
10.400973285 -0.000114400 -0.001084710 -0.000068364 6.213983873 0.000796505 -0.000515644 0.000633610 4.944204645
9.928652910 -0.113408732 -0.195568056 -0.067771915 6.112700978 0.053381745 -0.092968261 0.042464527 4.991110505
10.213561924 -0.043099139 -0.078868528 -0.025755611 6.081116219 0.020374252 -0.037492165 0.016207469 4.963613246
10.025685181 -0.065606316 -0.148405910 -0.039205673 6.107612865 0.013954559 -0.070548533 0.011100681 4.963230425
10.175107998 -0.056779362 -0.119691836 -0.033930774 6.065824763 0.083242600 -0.056898566 0.066218473 4.955439647
10.153377994 -0.061647550 -0.121174865 -0.036839955 6.070831426 0.075041790 -0.057603561 0.059694829 4.965672276
9.932162077 -0.106883587 -0.205214396 -0.063872554 6.118644447 0.045094752 -0.097553895 0.035872325 4.979814997
10.105300739 -0.074513946 -0.120758853 -0.044528783 6.081827162 0.055313568 -0.057405799 0.044001268 4.991220075
10.011828059 -0.064373238 -0.085801638 -0.038468798 6.198802012 -0.004471954 -0.040787996 -0.003557385 5.013764347
10.178460428 -0.049805873 -0.111333060 -0.029763488 6.090899904 0.004424691 -0.052925008 0.003519788 4.966477727
10.261959884 -0.015905794 -0.012793422 -0.009505142 6.093376162 0.112277442 -0.006081679 0.089315336 4.970754836
10.099288586 -0.078797985 -0.108341223 -0.047088882 6.056257243 0.045442143 -0.051502762 0.036148671 5.011034277
10.077250757 -0.084397925 -0.115211861 -0.050435349 6.091179950 0.041382553 -0.054768895 0.032919316 5.005062962
10.085800049 -0.062697770 -0.162583835 -0.037467556 6.144128624 -0.004600557 -0.077288371 -0.003659687 4.985395520
10.353545085 -0.000284878 -0.009417072 -0.000170240 6.172812732 0.010227781 -0.004476645 0.008136075 4.927196474
9.969267901 -0.090450447 -0.149080961 -0.054052275 6.151558261 0.011603116 -0.070869436 0.009230137 4.981081287
10.355319208 -0.023415010 -0.136724930 -0.013992574 6.006678176 0.077922366 -0.064995681 0.061986292 4.919942400
10.276812503 -0.016720110 -0.017732838 -0.009991769 6.072054877 0.078097737 -0.008429756 0.062125798 4.928129574
9.972731833 -0.099339219 -0.191326643 -0.059364116 6.101477868 0.023309374 -0.090951997 0.018542323 4.986700808
10.322302182 -0.021289380 -0.131484697 -0.012722319 6.004012062 0.048956714 -0.062504603 0.038944469 4.948096720
9.897270002 -0.129280747 -0.098225829 -0.077256871 6.143435131 0.042382332 -0.046694152 0.033714628 5.036786192
10.217097809 -0.033200370 -0.032503367 -0.019840206 6.084844467 0.084221426 -0.015451304 0.066997117 4.995889360
9.954799756 -0.074967838 -0.035023958 -0.044800024 6.216322563 -0.007396219 -0.016649531 -0.005883602 5.017980567
10.285639947 -0.008233919 -0.011092986 -0.004920507 6.076394095 0.099358775 -0.005273334 0.079038694 4.917425582
9.882261405 -0.131305400 -0.102397122 -0.078466784 6.203561865 0.035960953 -0.048677083 0.028606500 5.033732725
9.990301296 -0.097705498 -0.174755290 -0.058387821 6.097392826 0.019600933 -0.083074382 0.015592304 5.002212556
10.015807097 -0.093759678 -0.147346849 -0.056029839 6.087509818 0.011858116 -0.070045081 0.009432986 5.024047769
9.934523496 -0.104557334 -0.208072681 -0.062482409 6.117213791 0.041940450 -0.098912653 0.033363116 4.976294818
10.093227194 -0.048535451 -0.135409343 -0.029004297 6.065428774 0.015331532 -0.064370283 0.012196046 4.973922861
9.881047690 -0.099269081 0.012038213 -0.059322202 6.213318032 -0.023506975 0.005722671 -0.018699512 5.016731145
9.933148986 -0.114286646 -0.194128871 -0.068296548 6.104507812 0.055384685 -0.092284108 0.044057841 4.996439216
9.908551281 -0.124841967 -0.096905072 -0.074604301 6.128519522 0.042379048 -0.046066296 0.033712016 5.039932231
9.939037948 -0.113941675 -0.192816099 -0.068090397 6.096153288 0.054925375 -0.091660048 0.043692466 4.996840612
9.981546091 -0.115375525 -0.055217018 -0.068947251 6.140808750 -0.004513717 -0.026248817 -0.003590607 5.036006179
9.929694973 -0.109668280 -0.201209405 -0.065536659 6.118569282 0.048318936 -0.095650020 0.038437125 4.983374602
10.013385225 -0.094190601 -0.149879986 -0.056287354 6.088626759 0.012682393 -0.071249272 0.010088689 5.022064420
10.197905774 -0.020374542 -0.015192494 -0.012175621 6.062105142 0.032657102 -0.007222139 0.025978326 4.934745827
10.087612903 -0.062638105 -0.163230459 -0.037431900 6.142188811 -0.004612737 -0.077595760 -0.003669376 4.984369750
10.201553522 -0.051094697 -0.117404630 -0.030533676 6.060007968 0.092692779 -0.055811284 0.073735975 4.945274131
10.362820108 -0.023887366 -0.130202264 -0.014274849 6.018869928 0.097912996 -0.061894965 0.077888594 4.907880856
10.125173005 -0.059156300 -0.152881230 -0.035351208 6.113147006 -0.003971549 -0.072675990 -0.003159319 4.974542841
10.308159694 -0.020979944 -0.127494598 -0.012537403 6.006425578 0.040510004 -0.060607807 0.032225214 4.957739037
10.178508476 -0.050230916 -0.057987056 -0.030017489 6.075358899 0.065742390 -0.027565625 0.052297270 5.007353026
10.320037615 -0.021209205 -0.130818728 -0.012674407 6.004421647 0.047465399 -0.062188017 0.037758146 4.949690297
10.038528240 -0.089180263 -0.125456603 -0.053293227 6.076527445 0.004190904 -0.059638995 0.003333813 5.040717521
9.959551075 -0.119859279 -0.032654361 -0.071626697 6.154682684 -0.012534238 -0.015523083 -0.009970834 5.040994581
9.992854950 -0.112534137 -0.066102503 -0.067249266 6.134492468 -0.000339801 -0.031423510 -0.000270307 5.033760995
9.942783228 -0.100895560 -0.209429132 -0.060294170 6.110445036 0.033144412 -0.099557477 0.026365975 4.969164640
9.905183890 -0.120103431 0.011056581 -0.071772600 6.186456795 -0.028726926 0.005256028 -0.022851920 5.049371280
10.328395223 -0.001537208 -0.011387149 -0.000918620 6.151069540 0.014684920 -0.005413172 0.011681674 4.924035159
10.092568525 -0.070450048 -0.075530092 -0.042100239 6.051830781 -0.011566213 -0.035905155 -0.009200781 5.035093569
9.931352167 -0.112480517 -0.133166397 -0.067217223 6.196739955 0.012421254 -0.063304042 0.009880956 5.014305521
10.282838665 -0.010997831 -0.012492995 -0.006572193 6.074228194 0.091875148 -0.005938864 0.073085560 4.920416156
9.987577115 -0.103649990 -0.172770965 -0.061940190 6.062211160 0.045088563 -0.082131083 0.035867402 4.991525824
10.068043304 -0.060153569 -0.030645102 -0.035947167 6.026370405 0.040178143 -0.014567930 0.031961223 4.985974167
10.281537219 -0.012269954 -0.013429104 -0.007332401 6.073440972 0.088617117 -0.006383867 0.070493835 4.922055252
10.080329529 -0.062810563 -0.159844710 -0.037534959 6.149968613 -0.004485720 -0.075986258 -0.003568335 4.988649977
10.072219621 -0.079134137 -0.094835969 -0.047289762 6.060748736 -0.006170824 -0.045082696 -0.004908815 5.048963201
9.895990256 -0.128309618 -0.109940901 -0.076676534 6.218638306 0.023708342 -0.052263210 0.018859697 5.031677826
9.931197247 -0.114155886 -0.194503258 -0.068218407 6.107552322 0.054991875 -0.092462082 0.043745365 4.995083315
10.362765799 -0.023864283 -0.130957249 -0.014261055 6.017875269 0.096298669 -0.062253867 0.076604417 4.908432138
10.309714883 -0.003024852 -0.012089101 -0.001807621 6.135304130 0.017718608 -0.005746862 0.014094936 4.923181826
9.932617299 -0.106404572 -0.205848973 -0.063586300 6.118459626 0.044499912 -0.097855557 0.035399137 4.979156031
10.208683314 -0.036921234 -0.037512311 -0.022063758 6.083102877 0.079700210 -0.017832434 0.063400545 4.998697182
10.170721108 -0.057742330 -0.120028799 -0.034506234 6.066842232 0.081610455 -0.057058750 0.064920121 4.957379810
10.350202005 -0.025995749 -0.116638550 -0.015534798 6.032626107 0.116636500 -0.055447108 0.092782913 4.908209865
10.157420109 -0.053751208 -0.129146772 -0.032121180 6.099324322 -0.000997826 -0.061393210 -0.000793758 4.969551898
10.098681497 -0.067762527 -0.070593403 -0.040494203 6.049716894 -0.012570390 -0.033558374 -0.009999592 5.028906540
10.237973500 -0.024618609 -0.021891770 -0.014711832 6.089179355 0.096454798 -0.010406811 0.076728615 4.987367373
9.906972161 -0.087668168 -0.003753475 -0.052389614 6.216082906 -0.014159262 -0.001784310 -0.011263520 5.011724327
10.109996316 -0.061046880 -0.161218672 -0.036481000 6.121787498 -0.004237151 -0.076639406 -0.003370602 4.976451884
10.371228002 0.000043758 -0.007022810 0.000026150 6.188166709 0.006771919 -0.003338472 0.005386979 4.931586325
10.288729378 -0.004350100 -0.011041031 -0.002599576 6.079523025 0.112141688 -0.005248636 0.089207345 4.918954680
9.930856363 -0.108312413 -0.203217299 -0.064726407 6.118864989 0.046776293 -0.096604524 0.037209971 4.981659059
10.141836387 -0.034976590 -0.018528823 -0.020901658 6.041064023 0.036812021 -0.008808148 0.029283513 4.954403391
9.929906030 -0.122072978 -0.005763025 -0.072949581 6.173964664 -0.022825954 -0.002739601 -0.018157768 5.048792286
10.285131351 -0.008741051 -0.011276226 -0.005223564 6.075967120 0.097941822 -0.005360441 0.077911525 4.917878091
10.249091387 -0.041653114 -0.112530061 -0.024891481 6.053593411 0.106379883 -0.053494034 0.084623900 4.932398428
9.945969716 -0.121507856 -0.019462261 -0.072611870 6.163809429 -0.017461340 -0.009251882 -0.013890283 5.044747468
10.071902474 -0.053096622 -0.139311210 -0.031730006 6.077303431 0.015203355 -0.066225135 0.012094083 4.967884264
10.276483206 -0.009430611 -0.010567260 -0.005635638 6.088949359 0.120333137 -0.005023417 0.095723543 4.951325660
10.215335945 -0.026868978 -0.117554894 -0.016056631 6.022674312 0.020970043 -0.055882716 0.016681413 4.990362985
9.921698847 -0.119285213 -0.093630554 -0.071283641 6.111604758 0.042404802 -0.044509671 0.033732502 5.040300989
9.992543424 -0.097423093 -0.172397676 -0.058219058 6.096726415 0.019038243 -0.081953630 0.015144690 5.004194611
10.079289412 -0.084897928 -0.120056629 -0.050734146 6.054990279 0.043332961 -0.057071979 0.034470842 5.007607953
9.883663846 -0.132714644 -0.100843502 -0.079308934 6.172977695 0.041125351 -0.047938530 0.032714715 5.031688562
9.979226764 -0.098857984 -0.185658031 -0.059076535 6.100147847 0.022039459 -0.088257278 0.017532121 4.992382982
10.166374194 -0.052085594 -0.121757149 -0.031125826 6.095646139 0.000921912 -0.057880365 0.000733370 4.968093004
10.274865464 -0.018415847 -0.019697626 -0.011005125 6.072029043 0.074401487 -0.009363769 0.059185475 4.930489150
10.192078000 -0.030213431 -0.118855485 -0.018055242 6.030189933 0.018891483 -0.056500985 0.015027944 4.991580891
10.234847548 -0.038098706 -0.058610302 -0.022767403 6.078507630 0.033657098 -0.027861901 0.026773811 4.959086256
9.990616969 -0.103134750 -0.171340110 -0.061632287 6.061479234 0.044822728 -0.081450889 0.035655933 4.991927169
10.326028817 -0.029930084 -0.109671955 -0.017885917 6.043450651 0.118225503 -0.052135360 0.094046945 4.913895202
9.933882186 -0.114295106 -0.193995596 -0.068301604 6.103422342 0.055440657 -0.092220752 0.044102367 4.996746037
9.906801645 -0.125558604 -0.097172070 -0.075032557 6.130761251 0.042383118 -0.046193221 0.033715253 5.039629902
10.349703766 -0.023010160 -0.137178520 -0.013750640 6.003795130 0.071309100 -0.065211307 0.056725519 4.925899601
10.362026970 -0.024045295 -0.126968480 -0.014369226 6.022576745 0.104050211 -0.060357704 0.082770674 4.906517152
10.184487332 -0.048667652 -0.105959368 -0.029083298 6.088712756 0.006569417 -0.050370487 0.005225891 4.965862848
10.059254913 -0.062484903 -0.140236938 -0.037340349 6.169641179 -0.003376667 -0.066665203 -0.002686098 4.999866258
10.034291745 -0.062442818 -0.110309681 -0.037315198 6.186452359 -0.003233990 -0.052438519 -0.002572600 5.007842418
10.005612201 -0.065213852 -0.079549475 -0.038971141 6.201792085 -0.004854328 -0.037815871 -0.003861559 5.015197790
9.966611491 -0.091910269 -0.148381924 -0.054924650 6.154290258 0.011552908 -0.070537130 0.009190197 4.982724775
10.194072467 -0.043471396 -0.047087671 -0.025978068 6.079700473 0.072470247 -0.022384325 0.057649197 5.003151630
9.890185945 -0.129684813 -0.106026920 -0.077498337 6.217417798 0.027646593 -0.050402599 0.021992528 5.032442808
10.080311554 -0.051246191 -0.137749254 -0.030624207 6.072389701 0.015269493 -0.065482620 0.012146695 4.970122568
10.280116157 -0.013645324 -0.014606552 -0.008154308 6.072786061 0.085224449 -0.006943597 0.067795009 4.923900223
9.944392645 -0.113023378 -0.191031130 -0.067541631 6.089181628 0.053457968 -0.090811518 0.042525161 4.994942515
10.353174606 -0.025478427 -0.118302100 -0.015225651 6.030852528 0.115331258 -0.056237919 0.091744609 4.907528859
10.028272196 -0.091381650 -0.134944731 -0.054608753 6.081519653 0.007592608 -0.064149418 0.006039827 5.033737917
10.115524804 -0.073521685 -0.098864920 -0.043935818 6.058466049 0.047999326 -0.046997960 0.038182878 5.012881217
9.900043726 -0.127114087 -0.112876162 -0.075962097 6.218292977 0.021432089 -0.053658561 0.017048966 5.031214759
10.354044034 -0.023327092 -0.136935016 -0.013940035 6.005846233 0.076260495 -0.065095551 0.060664293 4.921379412
9.936301958 -0.114209537 -0.193508716 -0.068250468 6.099949641 0.055366567 -0.091989301 0.044043429 4.997170211
10.300525520 -0.020989974 -0.125645553 -0.012543397 6.007407430 0.036853950 -0.059728817 0.029316868 4.962609029
10.261010882 -0.027864960 -0.033634019 -0.016651819 6.074640023 0.055446664 -0.015988788 0.044107145 4.944158689
10.269714807 -0.007620479 -0.012749449 -0.004553921 6.104038255 0.023707209 -0.006060775 0.018858795 4.923839647
9.961748671 -0.101378056 -0.074570003 -0.060582504 6.067250367 0.043013028 -0.035448752 0.034216339 5.035934642
10.253324230 -0.031619170 -0.041060272 -0.018895297 6.076136531 0.047981649 -0.019519047 0.038168817 4.949854155
10.219076393 -0.047446969 -0.115703959 -0.028353830 6.056887906 0.098362123 -0.055002827 0.078245869 4.939915786
10.187982505 -0.046160845 -0.051308602 -0.027585256 6.078085503 0.069713427 -0.024390852 0.055456181 5.004873266
10.341460882 -0.000774021 -0.010545777 -0.000462547 6.162325303 0.012431958 -0.005013204 0.009889471 4.925312735
10.045201969 -0.093650350 -0.140775866 -0.055964505 6.055543721 0.042247897 -0.066921397 0.033607687 5.000896521
10.029842431 -0.074220623 -0.045116979 -0.044353496 6.031578236 0.042083771 -0.021447506 0.033477127 5.007374277
9.898681490 -0.119044639 0.014702089 -0.071139877 6.189220896 -0.029611407 0.006989013 -0.023555513 5.047494098
10.267633340 -0.013669891 -0.011394283 -0.008168989 6.092916950 0.116005254 -0.005416563 0.092280765 4.964479403
10.112019738 -0.060829823 -0.160314595 -0.036351289 6.120428889 -0.004203037 -0.076209630 -0.003343464 4.976137075
9.998634873 -0.110995654 -0.071259518 -0.066329884 6.131426382 0.001870678 -0.033875029 0.001488101 5.032552746
10.050826054 -0.062278182 -0.130154836 -0.037216814 6.175877532 -0.003070327 -0.061872419 -0.002442408 5.002975328
10.041098132 -0.088583766 -0.123147563 -0.052936766 6.075289128 0.003362357 -0.058541334 0.002674714 5.042261637
9.881782231 -0.131541812 -0.102279246 -0.078608061 6.199775122 0.037016305 -0.048621047 0.029446019 5.033567387
9.937070659 -0.109140522 -0.136193579 -0.065221276 6.189838467 0.011944555 -0.064743090 0.009501748 5.008472988
9.975569083 -0.070512586 -0.051884399 -0.042137610 6.212671945 -0.006388143 -0.024664572 -0.005081690 5.019038032
9.930638164 -0.114077376 -0.194635594 -0.068171490 6.108497561 0.054792208 -0.092524992 0.043586534 4.994509162
10.337208033 -0.000996295 -0.010858664 -0.000595376 6.158648059 0.013179067 -0.005161943 0.010483787 4.924820949
9.894727113 -0.128642534 -0.109048446 -0.076875482 6.218581115 0.024489519 -0.051838959 0.019481114 5.031821215
9.960515126 -0.099907431 -0.200365348 -0.059703674 6.103974500 0.025890521 -0.095248776 0.020595594 4.976782494
10.344684784 -0.022631344 -0.136831080 -0.013524263 6.002525023 0.066402990 -0.065046142 0.052822769 4.930609206
10.346425407 -0.022762619 -0.137011921 -0.013602712 6.002856077 0.068033854 -0.065132109 0.054120101 4.929026971
10.288478651 -0.003978490 -0.011250600 -0.002377506 6.080007006 0.114713186 -0.005348259 0.091252941 4.921671303
9.993722490 -0.102621464 -0.169845916 -0.061325553 6.060808612 0.044570664 -0.080740586 0.035455420 4.992359779
10.143233566 -0.063941235 -0.081949018 -0.038210637 6.064714968 0.054152416 -0.038956555 0.043077586 5.013123218
10.151577947 -0.054814913 -0.133803892 -0.032756839 6.101749134 -0.001957396 -0.063607091 -0.001557084 4.970560931
10.380279481 0.000045113 -0.005427336 0.000026959 6.196002960 0.004914678 -0.002580023 0.003909567 4.934739006
9.999335841 -0.096478990 -0.165074838 -0.057654872 6.094449989 0.017171798 -0.078472532 0.013659956 5.010144542
10.265681054 -0.038812057 -0.110779670 -0.023193694 6.052590704 0.109830307 -0.052661940 0.087368669 4.928562981
10.103343660 -0.077503826 -0.105983465 -0.046315505 6.056705021 0.046009781 -0.050381942 0.036600220 5.011591561
9.954186887 -0.098997230 -0.144136085 -0.059159747 6.168321951 0.011456150 -0.068518762 0.009113228 4.991921984
9.930448691 -0.108776056 -0.202541120 -0.065003475 6.118824021 0.047304830 -0.096283085 0.037630415 4.982239259
10.230253941 -0.025112126 -0.117678261 -0.015006754 6.018099281 0.022444320 -0.055941361 0.017854183 4.988599281
10.286778205 -0.021265164 -0.122980548 -0.012707848 6.008642043 0.031805789 -0.058461939 0.025301117 4.970527667
10.084585727 -0.073992025 -0.082828209 -0.044216888 6.055125090 -0.009702053 -0.039374501 -0.007717865 5.042216185
10.175908417 -0.032888938 -0.120805751 -0.019654098 6.035216740 0.017675602 -0.057428094 0.014060726 4.991312701
10.288452457 -0.005055668 -0.010836795 -0.003021216 6.078968381 0.109173347 -0.005151547 0.086846066 4.917227833
10.260371127 -0.016493059 -0.013263976 -0.009856086 6.093308975 0.111198052 -0.006305369 0.088456694 4.972283805
10.199300526 -0.045874322 -0.092343353 -0.027414033 6.084152771 0.012926601 -0.043897767 0.010282953 4.964764075
9.928177348 -0.112766165 -0.196485780 -0.067387924 6.114781155 0.052288211 -0.093404525 0.041594634 4.988960265
10.351232063 -0.023124014 -0.137162898 -0.013818677 6.004397968 0.072954082 -0.065203881 0.058034082 4.924364332
10.040263607 -0.061087078 -0.145564874 -0.036505022 6.097713625 0.014535855 -0.069197974 0.011563095 4.962936791
10.323166516 -0.030355768 -0.109311540 -0.018140301 6.044381323 0.117999332 -0.051964027 0.093867029 4.914586930
10.272676739 -0.020204601 -0.021936414 -0.012074066 6.072230668 0.070645072 -0.010428034 0.056197293 4.932999182
9.945242466 -0.104283918 -0.140224602 -0.062319018 6.179470625 0.011582417 -0.066659339 0.009213672 5.000143787
10.214321555 -0.034417185 -0.034109743 -0.020567363 6.084279392 0.082702878 -0.016214936 0.065789131 4.996841177
9.889840787 -0.094390118 0.006124099 -0.056406583 6.214782438 -0.019687714 0.002911246 -0.015661336 5.013513471
10.060028323 -0.090160065 -0.131667295 -0.053878746 6.054993178 0.042361676 -0.062591405 0.033698197 5.003783064
9.894534377 -0.130252471 -0.098503205 -0.077837564 6.147483043 0.042347596 -0.046826010 0.033686996 5.035639468
10.067305699 -0.088195007 -0.111943735 -0.052704447 6.095579800 0.035937125 -0.053215308 0.028587544 5.009501298
10.029255981 -0.064436849 -0.147738769 -0.038506811 6.105177909 0.014111018 -0.070231390 0.011225143 4.962992068
9.992460468 -0.078753755 -0.151954876 -0.047062450 6.131200140 0.012369528 -0.072235624 0.009839809 4.970384830
9.962446063 -0.099840278 -0.199077772 -0.059663544 6.103545269 0.025431581 -0.094636694 0.020230513 4.978236200
9.877415106 -0.102079894 0.015151036 -0.061001916 6.211996114 -0.025457801 0.007202431 -0.020251370 5.019087751
10.089377470 -0.052371907 -0.025254632 -0.031296924 6.028229466 0.039158877 -0.012005433 0.031150409 4.976152231
10.333099036 -0.021827989 -0.134527365 -0.013044186 6.002386464 0.056726029 -0.063951012 0.045124864 4.940158970
10.328783180 -0.029513884 -0.110086825 -0.017637199 6.042488280 0.118404039 -0.052332579 0.094188969 4.913234324
9.989384507 -0.080188893 -0.151889702 -0.047920074 6.133606945 0.012239538 -0.072204642 0.009736403 4.971491717
9.937178681 -0.114141686 -0.193304815 -0.068209921 6.098719699 0.055259806 -0.091892372 0.043958502 4.997141890
10.112413284 -0.044345891 -0.021449816 -0.026500657 6.032820398 0.038165058 -0.010196717 0.030359839 4.966407660
10.224473728 -0.040741623 -0.068473859 -0.024346783 6.079604172 0.026856154 -0.032550795 0.021363743 4.961924622
10.210338776 -0.049249962 -0.116568622 -0.029431281 6.058341948 0.095612164 -0.055413866 0.076058310 4.942465857
10.118360447 -0.060077176 -0.157013772 -0.035901515 6.116634424 -0.004105193 -0.074640500 -0.003265631 4.975324867
9.934032351 -0.105002762 -0.207575050 -0.062748592 6.117596137 0.042607136 -0.098676092 0.033893457 4.977039222
9.931715697 -0.107363272 -0.204560131 -0.064159209 6.118774478 0.045672016 -0.097242873 0.036331532 4.980450423
10.137453989 -0.039890834 -0.127376822 -0.023838360 6.047089617 0.015865690 -0.060551820 0.012620962 4.986203276
10.112790524 -0.072196245 -0.121409206 -0.043143749 6.079930856 0.058647561 -0.057714961 0.046653419 4.987251096
10.284623928 -0.005098707 -0.011270183 -0.003046936 6.082688637 0.119877568 -0.005357569 0.095361143 4.934310015
10.280089920 -0.007459541 -0.010789615 -0.004457747 6.086235258 0.120895335 -0.005129119 0.096170765 4.944497194
9.913934937 -0.121656690 -0.122722492 -0.072700812 6.212653613 0.015793553 -0.058339265 0.012563579 5.027556046
9.896579326 -0.091460586 0.002147777 -0.054655925 6.215387638 -0.017256578 0.001021001 -0.013727397 5.012272684
9.948811370 -0.100326304 -0.207021184 -0.059953988 6.107447052 0.029720425 -0.098412797 0.023642236 4.969952462
10.114085823 -0.060596422 -0.159310664 -0.036211811 6.119120292 -0.004170572 -0.075732385 -0.003317639 4.975849815
9.988068280 -0.097971008 -0.177061046 -0.058546487 6.098016571 0.020135635 -0.084170482 0.016017652 5.000232617
10.071014394 -0.062782092 -0.152670047 -0.037517945 6.159392015 -0.004052667 -0.072575599 -0.003223847 4.994148076
9.912297893 -0.122400305 -0.121623068 -0.073145188 6.213645795 0.016304317 -0.057816626 0.012969885 5.028271386
10.149114636 -0.062641965 -0.121395939 -0.037434207 6.071791065 0.073399710 -0.057708654 0.058388574 4.967840354
10.289332864 -0.035190880 -0.108824649 -0.021029715 6.050923187 0.113801499 -0.051732571 0.090527704 4.922934553
10.023558988 -0.063126226 -0.098203253 -0.037723597 6.192622423 -0.003756637 -0.046683420 -0.002988359 5.010755363
10.184873036 -0.047513784 -0.053492026 -0.028393758 6.077216694 0.068367242 -0.025428798 0.054385307 5.005716727
9.881529496 -0.131789053 -0.102173910 -0.078755810 6.195673959 0.037959794 -0.048570973 0.030196553 5.033277629
10.233910019 -0.024730927 -0.117806766 -0.014778953 6.017068746 0.022824746 -0.056002450 0.018156807 4.988028913
10.286569536 -0.007287988 -0.010849444 -0.004355228 6.077195945 0.102068049 -0.005157560 0.081193888 4.916776270
9.912159780 -0.123343717 -0.096241396 -0.073708962 6.123900601 0.042374445 -0.045750801 0.033708354 5.040347036
10.333961009 -0.028711053 -0.111071240 -0.017157436 6.040497225 0.118600982 -0.052800546 0.094345635 4.912004416
10.279905771 -0.006278460 -0.012601613 -0.003751944 6.111577768 0.022235483 -0.005990498 0.017688056 4.923395692
9.937256151 -0.102609444 -0.209771225 -0.061318369 6.114742505 0.038378623 -0.099720100 0.030529726 4.972554360
10.107679918 -0.045951438 -0.022093283 -0.027460116 6.031712587 0.038365853 -0.010502605 0.030519568 4.968374168
10.221791844 -0.041352074 -0.071028931 -0.024711583 6.079926632 0.025201831 -0.033765413 0.020047749 4.962442531
10.394830007 -0.000090997 -0.002422420 -0.000054379 6.208611509 0.001940929 -0.001151559 0.001543985 4.941124295
9.933940615 -0.113917655 -0.088519432 -0.068076042 6.096025152 0.042545378 -0.042079969 0.033844329 5.038899132
10.018684219 -0.068028048 -0.149617246 -0.040652876 6.112406479 0.013628072 -0.071124372 0.010840965 4.964007413
10.147025425 -0.062563920 -0.079508467 -0.037387568 6.065777003 0.055180559 -0.037796377 0.043895462 5.012825365
10.280887143 -0.021469419 -0.122066147 -0.012829908 6.009100517 0.030160379 -0.058027255 0.023992214 4.973506612
9.961886587 -0.108817265 -0.183902803 -0.065028101 6.073014832 0.048645524 -0.087422886 0.038696921 4.990250469
10.332850927 -0.001250359 -0.011138979 -0.000747202 6.154893057 0.013930385 -0.005295198 0.011081451 4.924395787
9.962276985 -0.119409904 -0.035429635 -0.071358155 6.152866817 -0.011535053 -0.016842380 -0.009175994 5.040291673
10.285522779 -0.035747450 -0.109062417 -0.021362316 6.051279465 0.113221558 -0.051845600 0.090066369 4.923861837
9.887472491 -0.116562003 0.020079157 -0.069656278 6.194262756 -0.030397558 0.009545139 -0.024180887 5.041629452
10.264597614 -0.008336790 -0.012834968 -0.004981982 6.100385486 0.024432571 -0.006101429 0.019435812 4.924138735
9.936658255 -0.102955068 -0.209549134 -0.061524911 6.115298733 0.039116222 -0.099614523 0.031116477 4.973275627
10.344942691 -0.026905148 -0.114303283 -0.016078246 6.035463651 0.117954969 -0.054336979 0.093831739 4.909433376
10.281654057 -0.036321346 -0.109341080 -0.021705271 6.051594267 0.112611611 -0.051978070 0.089581163 4.924795415
10.052554432 -0.091986267 -0.136253177 -0.054970066 6.055224923 0.042242443 -0.064771421 0.033603349 5.002305737