4.8893359117 -0.1517673002 2.4511874500 2.6153178263 4.6399358060 4.9429840812 2.2162879648 1.6687624793 2.4375609286 7.3448278399 1.5095707999 -0.1107512157 7.7866132633 4.4757563541 2.4116432059 1.0027882486 4.6315128696 2.1656249159 3.9096881706 1.5333009752 4.6915950258 8.9651637703 1.4649221996 2.6639881029 6.0444526489 4.5474498057 0.1817148884 1.1705272856 4.5912986246 3.6920756670 3.8009535401 1.5128489964 1.2353573029 8.8171855184 1.4904324349 1.1255976108 6.1467776541 4.5335520718 3.6438578788 4.5479692366 4.5672336785 0.5641571495 0.3989837780 1.5082740813 3.1792547270 5.3983686570 1.5057091916 4.2710144917 9.5718197629 4.6659003871 1.6903541711 1.8220304289 5.7919830692 1.4704103160 3.1788085761 0.3088718600 3.9908972788 8.1919851988 2.6865525739 3.3356438324 6.8440237977 3.3597196116 0.8501281908 8.1746257878 0.2886363539 3.3580449529 6.7196760091 5.7796724133 0.8920785211 1.7116541348 3.3769675022 1.4970949754 3.1304949172 2.7369654417 4.0233845322
5.0957419592 0.0533651934 2.4553724759 2.6731646473 4.5500953789 4.9324643719 2.1425096985 1.5525620877 2.3865682134 7.2943221531 1.4551985539 0.0226205630 7.7780224019 4.4388994977 2.5495929334 1.0244254409 4.6211843918 2.2174760068 3.8845817956 1.5640144748 4.6464755366 8.9309112270 1.4162413083 2.7480853946 6.0198818545 4.4713542115 0.2525432077 1.2102610031 4.6109519539 3.7404485829 3.7353529615 1.5332783481 1.1518619353 8.7886963844 1.4388268063 1.2205737551 6.1171615810 4.5178031423 3.7425777157 4.5309502227 4.5490766953 0.6895329697 0.3900078346 1.5593229156 3.1935939942 5.3928257804 1.5009718105 4.2727952836 9.5518820626 4.5093679702 1.7943426100 1.8088579972 5.8026203191 1.5395364708 3.1870622213 0.3461019667 3.8998377234 8.1665615550 2.6057556881 3.4646782953 6.7283969523 3.2653260130 0.9861567238 8.1880591967 0.2011096044 3.4216208465 6.7261852595 5.6826542355 0.9787602440 1.7012581580 3.3968054582 1.4784340050 3.1382452158 2.7667647404 3.9396375254
5.1808586097 0.1140103757 2.4573075469 2.6950143189 4.5175159689 4.8913812887 2.1504684494 1.5299860012 2.3243344582 7.3624931041 1.4905093418 0.0381741726 7.8477635147 4.5031710332 2.6377164957 0.9827225893 4.5871178265 2.1288413600 3.9619595248 1.5765716352 4.6360958774 9.0099791761 1.4501446842 2.8489650125 6.0830745158 4.4291829327 0.3629579987 1.2541087389 4.5476673536 3.6396453878 3.7876968535 1.5468700367 1.1540798058 8.7737442377 1.4491085233 1.3269014346 6.2657580661 4.4875115922 3.8467331401 4.5798873243 4.6094110127 0.7105724803 0.4000604048 1.5109390604 3.2403298315 5.4776078796 1.4559263231 4.3212494114 9.5785225961 4.5099634986 1.7921554063 1.6676470741 5.8048795768 1.3869912773 3.2736712908 0.3592718882 3.8787353550 8.2408769118 2.6430525290 3.5494288434 6.7387529004 3.1943117242 1.0528171084 8.2933371867 0.2368106720 3.5677830061 6.8628925814 5.5964233370 1.0839503674 1.7304356247 3.3986337951 1.3913068469 3.2945795774 2.7753512138 3.8971224879
4.9048134696 -0.2460752979 2.4757024336 2.5657459472 4.5783479506 4.9108577445 2.1662856195 1.6052987755 2.3717318536 7.3186704812 1.4619161057 0.0043260943 7.7822945491 4.3921478361 2.5398199709 0.9327204855 4.6078088124 2.0938889867 3.9127200707 1.5416443781 4.6535114247 8.9833326083 1.3957079046 2.8400566754 6.0336198555 4.4740921152 0.2267238859 1.1127311830 4.6171240849 3.6257418513 3.7968433937 1.5515943224 1.1429989614 8.7177089134 1.3879147217 1.3294259574 6.2002236438 4.4457593520 3.7436843657 4.5224836470 4.5238656130 0.5400045374 0.4650219796 1.4904611781 3.2413485039 5.4038856748 1.4909656542 4.2485220390 9.4605236683 4.5257750918 1.6220302291 1.7219666782 5.7962846996 1.4188839631 3.2002609088 0.3046092117 3.9561328044 8.2762551435 2.6124167234 3.5636757175 6.7654139480 3.2719982463 0.9460731329 8.2378629410 0.1944158211 3.5426999684 6.6552558335 5.7057359760 0.9637427695 1.6423034006 3.3822784712 1.3978908476 3.1550372825 2.7240576362 3.9465533395
4.9005363127 -0.1756510438 2.4269008028 2.6369839843 4.5900217777 4.9032260118 2.1451794303 1.6019977240 2.4347512120 7.3617944638 1.5098950445 -0.1052823648 7.8676351999 4.4897743815 2.4013598982 1.0004667865 4.5897702866 2.1800026717 3.9244190088 1.5678087312 4.6624815581 8.9930281321 1.4206608545 2.6293169422 6.1200740804 4.5126176595 0.1561803273 1.1860045152 4.5695992048 3.7018524585 3.8213143128 1.5068057802 1.2175648493 8.8055921336 1.4068011611 1.1063063132 6.2457693615 4.5028212085 3.6000502599 4.6204292691 4.5615860320 0.5492526299 0.3835312828 1.5005570186 3.1073815916 5.4094998442 1.5092687108 4.2242450607 9.6169613696 4.5898825489 1.6795579511 1.7718570348 5.7728470319 1.5011384392 3.2131104989 0.3622135223 3.9093451937 8.2640771497 2.6579669087 3.2853927526 6.8465014606 3.3221254528 0.8741006166 8.2716345184 0.2410608155 3.3616800981 6.7985153364 5.7410940249 0.9035582828 1.6944842825 3.3651010769 1.4652153183 3.2031051977 2.7747145558 3.9642255166
5.1019201188 0.0144770246 2.4708396570 2.7954290855 4.5877589704 4.9071523780 2.2124801310 1.5360130151 2.4812037000 7.4262388111 1.5067393823 -0.0040393266 8.0271405023 4.5490604316 2.5336886228 1.1014417742 4.5263383375 2.1879618913 4.0242461607 1.5951849661 4.6869070186 9.1333779422 1.4900221662 2.7094289302 6.1707904055 4.5462213859 0.2713668867 1.2750952862 4.6155737622 3.7142660346 3.8704454165 1.5413843865 1.2873037341 8.9247246299 1.5354746815 1.1929541401 6.3675123671 4.5505574103 3.6726395594 4.6745616641 4.6337377169 0.6502909123 0.3955958442 1.4716828413 3.0774961520 5.5159608674 1.5561538544 4.2769814214 9.8274904574 4.4638909169 1.8511955351 1.8390600574 5.7190748276 1.4529223931 3.2677918095 0.4197446707 3.9407223226 8.4095736942 2.6883925414 3.4365106931 6.8920059285 3.3622090285 0.9967123082 8.3685269438 0.2993696978 3.3887109773 6.9235142198 5.7533959416 0.9876272998 1.8574998084 3.3223645414 1.5126182775 3.3027939994 2.8180950597 4.0175215376
4.9876259966 -0.0059773971 2.5119247829 2.6086651893 4.5770305509 4.9685694643 2.1255433114 1.6575400420 2.4456205668 7.2095686330 1.4195208564 0.0586699730 7.6603612243 4.4504717783 2.5519410924 0.9928439957 4.6943759127 2.2084267493 3.9029642184 1.4884115885 4.7548051314 8.8014578911 1.4340990699 2.8291750525 5.9629833222 4.5101869153 0.2810096452 1.1307283385 4.5791670367 3.7360044368 3.7422038005 1.5303664825 1.2490112699 8.6594908881 1.4445797048 1.3061324264 6.1175981702 4.5050969931 3.7858672702 4.4583974705 4.5731977600 0.6769776927 0.4153133789 1.4770695613 3.1770413216 5.4065706000 1.4890940105 4.3633742212 9.3774799171 4.5827998027 1.8346694356 1.7091707182 5.8694786839 1.4792499636 3.2463446203 0.2285219335 4.0724124374 8.1232110710 2.6747944881 3.5183062564 6.7020619062 3.3335806332 0.9963045474 8.0445633885 0.2659591202 3.5517797268 6.6411937014 5.7497812283 1.0177243285 1.7151503926 3.4667113094 1.5202772868 3.1496695083 2.6646556237 4.0372805397
4.9420240246 -0.0032567646 2.4731906756 2.5159336947 4.6122895393 4.9617174488 2.1567038179 1.6748892730 2.3655242186 7.2646620201 1.4459513846 0.0135610493 7.5923719624 4.4564058604 2.5734067531 0.9212301632 4.7027013499 2.1964271528 3.8325917201 1.5515235838 4.6558188264 8.8453524564 1.4045624235 2.8153279269 5.8872590282 4.5051545408 0.2723573340 1.1058775034 4.6771964004 3.7220886648 3.6686838856 1.5486735682 1.1535061192 8.6776984879 1.4301651711 1.2823458802 6.0583892306 4.5070228292 3.7714681114 4.3713890118 4.5630607106 0.6241590408 0.4621761872 1.5360265133 3.2616030080 5.3550858669 1.5101253803 4.3408886540 9.3054220240 4.5509790135 1.7453349510 1.7129378075 5.8865739997 1.5259397780 3.1566265819 0.3328329621 3.9531320852 8.1013310983 2.6091011286 3.5395756170 6.6091955828 3.3234724101 0.9932138180 8.0765024822 0.1955342754 3.4823563899 6.5819724933 5.7279115695 1.0047378422 1.6022515164 3.4548134446 1.4843533630 3.1194186957 2.7608651740 3.9531094596
4.9228292776 -0.1040492910 2.4934698029 2.6155442937 4.6646794270 4.9860021626 2.2214144157 1.6994973033 2.4654537320 7.3044011519 1.4866604758 -0.0374045932 7.7093050077 4.4852150419 2.4918998454 0.9972880452 4.6840995823 2.1805390814 3.8811898432 1.5062131754 4.7520999008 8.9401049416 1.4836071702 2.7604338274 5.9979203241 4.5880888922 0.2271827901 1.1850947014 4.6488994765 3.7048142947 3.7830654311 1.5421434486 1.2786504174 8.7550446044 1.5498644546 1.2285274583 6.1166357137 4.6114892560 3.7056235426 4.5120885954 4.5367166723 0.6677344294 0.4516056758 1.5127668812 3.2081367000 5.3761048415 1.4789297550 4.3387259606 9.4940937830 4.6476503700 1.7325041889 1.8348227003 5.8588706404 1.5149517513 3.2060841746 0.2567145495 4.0633925717 8.2265767850 2.7153758239 3.4607775994 6.7633624183 3.3848445712 0.9120511716 8.0997672662 0.2984533941 3.3943745495 6.6612176671 5.8139364655 0.9517679937 1.7122244089 3.4504017155 1.4682276113 3.1029453615 2.6913680375 4.0413045723
5.0663357422 0.0139287043 2.4844163612 2.7670839718 4.5803981502 4.9320039912 2.2061832151 1.5200390936 2.4935891740 7.3615996881 1.4938272413 0.0016839071 7.9556859231 4.4967661949 2.5336395356 1.0591366242 4.5116632239 2.2004457359 3.9942714547 1.6047715514 4.7096032263 9.0809144892 1.4699946292 2.7181351277 6.1442219953 4.5058004846 0.2899547428 1.2227989836 4.5872102017 3.7258571559 3.8604873644 1.4989024142 1.2832384140 8.8914429197 1.5020442754 1.1933365638 6.2790650638 4.5403466536 3.7048086624 4.6310531631 4.6103132506 0.6625675820 0.4080705763 1.4713888611 3.1305181777 5.4889159397 1.5414430951 4.2833690272 9.7287202468 4.4269673226 1.8138672255 1.8155602826 5.7167646198 1.4966078582 3.2543784533 0.3981981375 3.9515019355 8.3529987694 2.6752360812 3.4536467605 6.8501785192 3.3010352366 0.9959981889 8.2902750008 0.2557246880 3.3839423792 6.8658440769 5.7252899653 1.0016042506 1.8160753758 3.3042546226 1.4989909676 3.2801291464 2.8140069431 4.0273035718
5.0844524722 -0.0077996227 2.4467027922 2.7915492948 4.5897710161 4.9144529439 2.1877454411 1.5251318469 2.3837867006 7.4465866571 1.5223997172 0.0780083616 8.0997015828 4.5672532622 2.5916780028 1.0896070369 4.5728318011 2.2067722610 4.0024863059 1.6272820088 4.6179465368 9.1954637341 1.5229113121 2.8089289709 6.2407389420 4.5218154415 0.3457561532 1.2797213271 4.6190234442 3.7294217717 3.8136828086 1.5642521653 1.2158422055 8.9838330805 1.5514227960 1.2840219059 6.4379721608 4.6133974327 3.7469536928 4.7265790287 4.6078056420 0.6939918436 0.4201088927 1.5467770329 3.1929008494 5.5018068874 1.5185130640 4.2603234445 9.8634922939 4.5206998624 1.8072279993 1.8035753349 5.7902373535 1.5018610097 3.2736898764 0.4124115763 3.9052496460 8.3953760703 2.7073832935 3.4852325581 6.9555931889 3.3061838937 1.0151168462 8.4351408231 0.3088726077 3.4812067597 6.9359161584 5.7286621286 1.1224302756 1.8984230313 3.3913195628 1.5526832328 3.3251010109 2.8381293170 3.9227338442
4.9928983776 -0.1421311127 2.4367598528 2.7362128457 4.5657161893 4.9283271787 2.1359518646 1.5270913617 2.4286713280 7.3879335254 1.5122157288 -0.0344000063 7.9881695492 4.5325136148 2.4909390782 1.0334147447 4.5871880426 2.1803133737 3.9809052052 1.6016955615 4.6356642531 9.0904486785 1.4333084321 2.7069872337 6.2033780249 4.5023980255 0.2469446588 1.1805584988 4.5814876895 3.7114847069 3.8157498620 1.5613952919 1.1926564460 8.9079187749 1.3923429272 1.1827836295 6.3750801884 4.5613794621 3.6861208589 4.6856072531 4.5761918630 0.5668919319 0.3870749936 1.4946472365 3.1634711177 5.4824394478 1.5017157276 4.2695573893 9.7400414581 4.4920934438 1.6974118236 1.8161748916 5.7924351732 1.5260173611 3.2360783359 0.3957706234 3.9290736345 8.3674354379 2.6425830754 3.4242332166 6.9148163511 3.2965096288 0.9337565473 8.3752948827 0.2241103999 3.4178234042 6.9160709433 5.7169413178 0.9781928648 1.7805851114 3.3881173465 1.4731414319 3.2679885603 2.7957384693 3.9346982450
4.8387661475 -0.2150268555 2.3893805016 2.4455626482 4.6331648661 4.8209424357 2.1398684097 1.6230160322 2.2966188168 7.2854310869 1.4371424292 0.0074620796 7.7139599818 4.3925242440 2.4834100134 0.8948078922 4.6077286804 2.0659299229 3.8578578838 1.5740407572 4.5635178378 8.8877875461 1.3946945354 2.7356110074 5.9722029722 4.5112862401 0.2173602249 1.0532546411 4.5562153505 3.5936922667 3.7451974146 1.5152710081 1.1135455373 8.7267059170 1.5112476581 1.2119969086 6.0986394369 4.5170824712 3.6732416312 4.4720754463 4.5001394289 0.5790724791 0.4403436821 1.5033677433 3.2545612688 5.3511016184 1.5746725426 4.1815170396 9.3562336924 4.5499698834 1.5207960804 1.6628921541 5.8024115753 1.3934556180 3.1794838109 0.3209706861 3.8572684892 8.1382606808 2.6007133876 3.4314588362 6.7365851075 3.3380700299 0.9581898002 8.1537276795 0.1779880777 3.4139573719 6.6628782567 5.7395616810 0.9174264184 1.5924568128 3.3926962380 1.3488703530 3.0774957190 2.7277294404 3.8377400849
5.1760428321 0.0047362134 2.4624591395 2.8320842962 4.6230954760 4.8958296204 2.2171849469 1.5687553131 2.4476028481 7.5228021093 1.5528227405 0.0010486422 8.1467193453 4.6282236213 2.5224469736 1.1292686309 4.6155830792 2.1809102493 4.0701356297 1.6164831502 4.6817316636 9.2361158528 1.5462896155 2.7230573598 6.2831336549 4.6118521289 0.2747729369 1.3850572632 4.6545484444 3.6946323452 3.8714038459 1.5601583189 1.2687736640 9.0128589886 1.5566866690 1.2004166491 6.4764039837 4.6304085473 3.6722917791 4.7583205525 4.7102683243 0.6255033485 0.3885678313 1.4891171576 3.0226143230 5.5790369266 1.5265235951 4.2858268444 9.9806771820 4.5942335633 1.8831332389 1.8652998874 5.8034481843 1.4503583903 3.3343119904 0.3955664735 3.9523619814 8.4869918020 2.7456142653 3.4348544688 6.9872661300 3.3982169424 0.9687128772 8.4955337134 0.3265606861 3.4280378572 6.9878574151 5.8616580329 0.9571991833 1.8958038099 3.3831368161 1.5564116712 3.3275585665 2.8160558300 3.9933843704
5.0216641718 -0.0731178099 2.5077120783 2.7465639829 4.5635055276 4.8063960307 2.1376336040 1.5239987983 2.2938340737 7.3767528941 1.4786591558 0.0876998845 7.9997030028 4.4784435954 2.5729641417 1.0092389409 4.5382317431 2.0560389197 3.9667708061 1.5608329428 4.6177869206 9.1312204788 1.4879541512 2.8090196397 6.1422692018 4.4535065578 0.2863755973 1.2401767376 4.5561406019 3.5750334986 3.7774800663 1.5088162648 1.1357084738 8.8927777403 1.4898508292 1.2903354542 6.3594201661 4.4989251363 3.7724575391 4.6302770874 4.4903671360 0.5974518318 0.4479825435 1.5686035190 3.2530473688 5.4796227545 1.4601847560 4.3256106219 9.6892028833 4.5571176416 1.6337698468 1.7826839164 5.7361930172 1.3694000889 3.2652730489 0.3293491874 3.8816260652 8.3608458791 2.6753876180 3.5300643357 6.8415824444 3.2604665026 1.0409664305 8.3959754876 0.2543165515 3.4901737658 6.8373377440 5.6731614591 1.0532381795 1.7157230737 3.3290877784 1.3175942888 3.2614883222 2.7488026275 3.8812185047
4.9289315254 0.0042298302 2.4691142192 2.5306422273 4.6125343780 4.9558672850 2.1597179056 1.6894312057 2.3635844801 7.2509281518 1.4407198768 0.0130637815 7.5938438026 4.4732858952 2.5868342549 0.9148950164 4.7165090258 2.1845070304 3.8327351155 1.5485291046 4.6464771244 8.8561348948 1.4096266354 2.8215283099 5.8924306164 4.5169544433 0.2748894998 1.1122781600 4.6863546800 3.7109143922 3.6710344350 1.5587694312 1.1520143071 8.6576741963 1.4369554531 1.2920304022 6.0580721721 4.5226143202 3.7776349843 4.3835713158 4.5741068128 0.6150415926 0.4746630275 1.5344322719 3.2736214652 5.3445667053 1.5165982782 4.3318633215 9.2905606363 4.5603003067 1.7400367726 1.6927310889 5.9003211889 1.5125277795 3.1653022413 0.3142745754 3.9382285156 8.1261877569 2.6248183738 3.5433666124 6.6028162507 3.3145287823 0.9823208198 8.0763663405 0.2003196433 3.4976314373 6.5840998243 5.7489797869 0.9954072744 1.6001415353 3.4638418484 1.4749059163 3.1317479710 2.7667121699 3.9519243902
4.9098442664 0.0331224578 2.3749598674 2.5632690104 4.5801747327 4.8456458127 2.0830275878 1.6018134837 2.3115321500 7.2557885804 1.4429539687 0.0020130211 7.6952746133 4.4155184380 2.5811548171 0.8987507712 4.5881822433 2.0899732991 3.8133141838 1.5785959346 4.5869809442 8.9060052521 1.4022993808 2.7288634812 5.9372419715 4.4482242412 0.2970505897 1.1014350027 4.5832205424 3.6190104931 3.6663321025 1.5177428842 1.1102476435 8.7390755025 1.4184758208 1.2041181403 6.0738800887 4.5018774835 3.7724988492 4.4251716269 4.5195395139 0.6621114233 0.4503419935 1.5199992495 3.2927535244 5.3274351891 1.4690553526 4.2254669108 9.3435734340 4.4454625866 1.5412647584 1.6675537554 5.7779906558 1.4149884027 3.0948510145 0.3803423751 3.8569735613 8.2276363949 2.6445042483 3.4537375878 6.6514659870 3.2322643715 0.9886119590 8.1437898123 0.2026664052 3.4037131943 6.6183359676 5.6740310921 1.0481371037 1.6238616416 3.3652327874 1.3724185473 3.1343421891 2.7988812382 3.8578622079
5.2569876635 0.1267809371 2.4704656293 2.8054232073 4.5804910297 4.9352999198 2.1753733546 1.5404249929 2.3550754901 7.4133849394 1.5220042296 0.1364266401 7.9520416350 4.5737199680 2.6852123694 1.0226538021 4.6162530805 2.1737468724 4.0469180459 1.5928543700 4.6491777924 9.1489642693 1.5302928384 2.8818474072 6.1550764924 4.4947210536 0.3997588260 1.3226643085 4.5944792385 3.6838902181 3.8028863687 1.4695411253 1.1779754062 8.8665313914 1.5441151776 1.3632051717 6.3530171134 4.5994158552 3.8591080891 4.6529484376 4.6338729671 0.7277234094 0.4437778058 1.6273198592 3.1764186616 5.5620285209 1.5492320598 4.3496520838 9.7322937389 4.5667790766 1.8613980940 1.7332302830 5.8549214409 1.5109426425 3.3693631415 0.3902203406 3.8741612633 8.4194996173 2.7277223218 3.6032741718 6.7886646123 3.2481119212 1.0876424411 8.4204514567 0.3075637987 3.5650638189 6.9037863597 5.6755169287 1.1420478134 1.7650106870 3.4174889997 1.4483014378 3.3761599873 2.8343812334 4.0053330179
4.9305841014 -0.1896828978 2.5062784707 2.6614834763 4.5255040336 4.9156060736 2.1892332689 1.5957947204 2.3973181224 7.3252038104 1.4744861114 0.0142443215 7.8285113759 4.4014179273 2.5634950959 0.9719680353 4.5974094676 2.1297703016 3.9419946435 1.5217983321 4.6884553148 9.0330253916 1.3911412500 2.8542353773 6.0649051640 4.4365427747 0.2383594942 1.2005484405 4.5800426172 3.6478779794 3.7761837868 1.5395707398 1.1698916166 8.7386525785 1.3801128686 1.3490482000 6.2533207763 4.4353967331 3.7564729353 4.5432469675 4.4819949449 0.5457121602 0.4703604745 1.4877873255 3.2267506008 5.4411196214 1.4253321552 4.2853473196 9.5594334208 4.5094999842 1.6704883100 1.7527630026 5.7727713973 1.4015575641 3.2031392685 0.3288756517 3.9503347097 8.3785479440 2.6474561077 3.5769196234 6.7735989711 3.2459452282 0.9574280539 8.3043319811 0.2246087603 3.6189853031 6.7160268392 5.6714529245 0.9924549710 1.7260133790 3.3723291011 1.4394631096 3.2092863852 2.7305882610 3.9811225989
5.1208954597 -0.0901039512 2.4863462020 2.7294829249 4.5468338767 4.7657782834 2.1413887066 1.4951593051 2.2921209738 7.5165630783 1.5331962260 0.1003005252 8.1029251080 4.5130762633 2.5257619449 1.0062790670 4.5092234218 2.0841142148 4.0148800134 1.6162534224 4.5960297684 9.2541441055 1.4642802282 2.7548821533 6.2357912448 4.4512780464 0.3060999585 1.2328742291 4.5488626032 3.6041447791 3.8167768966 1.4941472754 1.1649232320 9.0375045714 1.4738339951 1.2260519381 6.4530420788 4.5184600931 3.7347510372 4.7309082633 4.5835535345 0.6326263851 0.4402182165 1.5010857772 3.1547959340 5.5206331413 1.5229365358 4.2489933794 9.8338768620 4.4876165755 1.6480376006 1.7298165670 5.7008576147 1.3588653805 3.2535894581 0.4282509845 3.8138642060 8.5086198345 2.6806086215 3.4314012450 6.9339350010 3.2534347463 1.0451011478 8.5736801906 0.2401598708 3.4696621286 6.9447173941 5.6626287227 1.0796673427 1.7492630963 3.2876533856 1.4141517824 3.3194541548 2.8248266191 3.8876994880
5.0290079347 -0.0029156793 2.5047456745 2.6922249853 4.5835417362 4.9748130331 2.1842014416 1.5059725752 2.4911189546 7.2870457127 1.4826189542 0.0133000677 7.8369459074 4.4145438721 2.5256240135 0.9964674211 4.5150944985 2.2130293259 3.9579148361 1.5929894634 4.7294837243 8.9913093742 1.4318186604 2.7435432048 6.0700619687 4.4595864182 0.3002127790 1.1768087964 4.5213601243 3.7400647542 3.8099318728 1.4719858866 1.2550025719 8.8514766566 1.4467435354 1.2169813017 6.1986341904 4.5128070560 3.7655350284 4.5849041365 4.5619372273 0.7206611585 0.4101853724 1.4757343368 3.2129499682 5.4415427720 1.5074753372 4.2869206674 9.5803929907 4.4324549025 1.7331538573 1.7648622546 5.7354632489 1.5661679537 3.2462291159 0.3818350270 3.9980974385 8.2439428347 2.6361285019 3.4609294752 6.7909411382 3.2406437524 0.9811686124 8.2133372577 0.2425072115 3.3902753424 6.7891115039 5.6713196192 1.0231726389 1.7539044256 3.3152915189 1.5334843955 3.2247639648 2.7941847570 4.0390872452
4.9746712718 -0.0172852395 2.5079870285 2.6050254668 4.5899206637 4.9666287596 2.1239461812 1.6650848266 2.4535112898 7.2100729785 1.4252771601 0.0549411123 7.6573468286 4.4552431260 2.5414931281 0.9881602844 4.6994116384 2.2026565613 3.9073109498 1.4841359816 4.7501727040 8.8048353140 1.4450067693 2.8156579157 5.9511884867 4.5230365012 0.2849371651 1.1358712414 4.5858866061 3.7256688204 3.7318938081 1.5330272012 1.2574470306 8.6577187034 1.4617661201 1.2937054991 6.1154874651 4.5270502652 3.7782249627 4.4550358666 4.5679559656 0.6701576360 0.4240076941 1.4723014851 3.1537782505 5.4118806177 1.4842762135 4.3608665100 9.3679885996 4.5843196554 1.8356813737 1.7063488392 5.8835123336 1.4846521563 3.2356413706 0.2148225692 4.0855400350 8.1476239123 2.6812592721 3.5273451312 6.7086054263 3.3372050329 0.9871846582 8.0592636420 0.2748491338 3.5437287015 6.6317766507 5.7601747612 1.0014095680 1.7061277463 3.4684436344 1.5091651973 3.1379977844 2.6720432716 4.0420322118
5.1008610825 0.0747418527 2.4193649316 2.7001455881 4.5783540866 4.9377846871 2.1337578668 1.5325092094 2.3846040711 7.3418402492 1.4924027803 0.0093862252 7.8678995305 4.4543213926 2.5573324046 1.0072753335 4.5787847314 2.2059500830 3.9069078999 1.6051206594 4.6193156520 9.0265322889 1.4491884035 2.7292026926 6.0610784380 4.4868521674 0.2823672187 1.2081942845 4.5765763664 3.7303234998 3.7731542679 1.5310180792 1.1606647657 8.8272439169 1.5102373436 1.2016773547 6.1686393288 4.5290109336 3.7318696932 4.5638380626 4.5443871754 0.6790743703 0.4182318363 1.5421231227 3.1461756937 5.4118170163 1.5327073911 4.2476334830 9.6163897598 4.5208483092 1.8112446499 1.7327554238 5.7940621123 1.4887209721 3.2156538474 0.3941418177 3.8701256046 8.2731412878 2.6456055145 3.4550307331 6.7795291833 3.2760466996 0.9701568935 8.3356859408 0.2152896740 3.4187241220 6.7828745977 5.7066569810 1.0117610694 1.7245011874 3.3781607449 1.4665446100 3.2188236118 2.8007362962 3.8962973603
5.0127326456 -0.0257289101 2.5076267481 2.5952910032 4.6048515021 5.0077508678 2.1497326197 1.5291085033 2.4657813673 7.2800707672 1.4776535797 0.0225940640 7.7295720340 4.3796864067 2.5144497014 0.9654776615 4.5505994564 2.2277145087 3.9147370652 1.5768438144 4.7208980758 8.9151292303 1.4008293632 2.7615944112 5.9794640416 4.4645221850 0.2960296125 1.1114928808 4.5042800187 3.7573912874 3.7720889103 1.5216173494 1.2293139577 8.7883165375 1.4443481446 1.2278418687 6.1553374297 4.4839385995 3.8061304903 4.5061797493 4.5046552327 0.7582788015 0.4139173426 1.5062765588 3.2683242781 5.4007808971 1.5066159429 4.3017339981 9.4724987702 4.5076432514 1.7026951874 1.7305762861 5.7690355166 1.5714926034 3.1868222468 0.3414056196 3.9970472937 8.1490807613 2.6220522611 3.4290811727 6.7392853715 3.2546677208 0.9794988985 8.1419861348 0.2037767953 3.4352021098 6.7447285354 5.6447850898 1.0282602665 1.7385054278 3.3518882452 1.5472782766 3.1824065189 2.7777490003 4.0510716362
4.9176918754 -0.0043174988 2.3894844908 2.5762093567 4.5821533230 4.8953369408 2.1337216544 1.7011676722 2.3539548665 7.2159433115 1.4209877507 -0.0021229911 7.6569997746 4.4824581205 2.5914459529 0.9185302532 4.6963948213 2.1105781839 3.8620510014 1.5372056452 4.6021244159 8.8773201951 1.4464320691 2.8128074872 5.9615746581 4.5074940057 0.2643253641 1.1316425017 4.6091693198 3.6353962838 3.7238377308 1.5424217443 1.1188416782 8.6303150829 1.4542336760 1.2953305214 6.0605462737 4.5826949737 3.7468545347 4.4571759501 4.5910418565 0.6553461387 0.4658002674 1.4966292309 3.2346862520 5.3627148889 1.4829973680 4.2139298300 9.3257695325 4.5928888756 1.6917619165 1.6231480669 5.8895988323 1.3759192086 3.1757153440 0.3091243942 3.8990807019 8.1971410119 2.6902119261 3.5246374927 6.6713518611 3.2988848869 0.9651828762 8.1230985046 0.2468183220 3.5344647308 6.6511341272 5.7476193491 0.9776055486 1.6608289130 3.4683314415 1.3968703310 3.1259198350 2.7333688770 3.8881407484
5.0884353894 0.0151111913 2.4748792158 2.7869940122 4.5842219733 4.9145838979 2.2108734335 1.5299393482 2.4862519578 7.4032388573 1.5012308145 -0.0024819667 8.0021787172 4.5310444113 2.5339972608 1.0868208881 4.5185485344 2.1924983340 4.0113611540 1.5972565967 4.6969932961 9.1148022343 1.4821283585 2.7109224207 6.1618744768 4.5309904200 0.2765816562 1.2534449580 4.6069488840 3.7182420768 3.8696104686 1.5273954739 1.2809687227 8.9114044027 1.5251045541 1.1916896379 6.3359791491 4.5454891490 3.6827674751 4.6550564715 4.6240353335 0.6537408028 0.4003910665 1.4716476162 3.0952519288 5.5084547660 1.5536544362 4.2782243177 9.7943543061 4.4472887191 1.8400793897 1.8320312956 5.7159589725 1.4654691832 3.2610459369 0.4138602268 3.9418218861 8.3913065439 2.6837363138 3.4416945740 6.8758331302 3.3437083902 0.9969388080 8.3392077301 0.2832144160 3.3853697422 6.9048338612 5.7417040695 0.9934530228 1.8439652980 3.3137185304 1.5037658787 3.2962819657 2.8177123988 4.0212613074
5.1164864752 0.0596279322 2.3899121557 2.7111695847 4.6238557617 4.9102599725 2.1948041492 1.5205826775 2.3304114806 7.4906776268 1.5593960563 0.0145468540 8.0668944217 4.5177004199 2.5946182960 0.9871691411 4.5499879214 2.1375409925 4.0424270417 1.6541022957 4.5897881048 9.2407000787 1.4845558110 2.7744860355 6.2504850383 4.5299506186 0.3525748340 1.2377800571 4.5616040022 3.6550654088 3.8443232539 1.4911388503 1.1920113170 9.0023468789 1.5047088191 1.2613524836 6.4299735445 4.6276873650 3.7502278120 4.7413474227 4.6061995303 0.6975332931 0.4297690370 1.5314077335 3.2014997220 5.5542763519 1.5534334566 4.2286661965 9.8044111604 4.4310420853 1.6774749557 1.7141401009 5.7798054025 1.4365770729 3.3178678882 0.4533651410 3.8197260443 8.4985441723 2.6987774177 3.5031316662 6.9479228323 3.3014865718 1.0686921866 8.4756147137 0.2786724780 3.4403730055 6.9667047273 5.7297103955 1.0969182726 1.7777968240 3.3550901929 1.4530694859 3.3703931424 2.8981265964 3.9111131846
5.0875309442 0.0464906005 2.4686032107 2.6643139884 4.5430370420 4.9338065681 2.1473318929 1.5662918892 2.3867006388 7.2782373835 1.4433128230 0.0300980775 7.7507320502 4.4364047865 2.5490756534 1.0174079355 4.6256185345 2.2139733573 3.8829750304 1.5469550492 4.6486949711 8.9057373749 1.4078461510 2.7630486858 6.0008476869 4.4696773981 0.2613486287 1.2072347176 4.6247071789 3.7376966088 3.7286162922 1.5349835186 1.1482382293 8.7600532688 1.4148772624 1.2297057462 6.1168336371 4.5135370537 3.7535406789 4.5179601631 4.5547164930 0.6816659417 0.3842383638 1.5594290019 3.2217235118 5.3911954921 1.4944637303 4.2943859010 9.5323336079 4.5182026176 1.7893242702 1.8260740164 5.8171318006 1.5521838170 3.1904606864 0.3312209003 3.9254985148 8.1293485979 2.6012684700 3.4664386635 6.7228567014 3.2611210701 0.9862476515 8.1286034176 0.1970793741 3.4318674815 6.7213565130 5.6859808199 0.9638267946 1.7108524918 3.4007945053 1.4882302743 3.1253915661 2.7508699783 3.9685501164
5.1149084444 0.1104073858 2.4447060663 2.6428221819 4.5099252835 4.8616762930 2.1261419766 1.5372540409 2.3151278288 7.3402867734 1.4764594736 0.0071961280 7.8132738995 4.4713619574 2.6103873245 0.9670230241 4.5788817190 2.1033525670 3.9111232409 1.5628528155 4.6136414353 8.9622442021 1.4267362610 2.8169387615 6.0439705700 4.4155273271 0.3416706651 1.2127581212 4.5591274778 3.6189026567 3.7848766359 1.5676213256 1.1306634084 8.7508997020 1.4099726216 1.3015196237 6.1886029267 4.4755148359 3.8215229821 4.5473741295 4.5784514994 0.6987114712 0.4032981905 1.4789280695 3.2277589665 5.4184892472 1.4255938614 4.2872516524 9.5233687714 4.4756813668 1.7712350313 1.6441402072 5.7892961538 1.3732047719 3.2089571247 0.3547048569 3.8718355150 8.1876306471 2.6200117844 3.5196965872 6.7094985413 3.1765663591 1.0586469023 8.2317230666 0.2288815926 3.5393355418 6.8257346060 5.5943345628 1.0651003780 1.6975349738 3.3736696390 1.3788650320 3.2526605590 2.7780748480 3.8596492039
4.9351294283 0.0008502917 2.4716033733 2.5232253858 4.6128332557 4.9590437286 2.1585908522 1.6826471681 2.3643789176 7.2579191427 1.4434813857 0.0133012521 7.5924337760 4.4654123586 2.5806922393 0.9175494769 4.7103814543 2.1911827508 3.8320562762 1.5497508713 4.6502732839 8.8511562716 1.4077821306 2.8182984255 5.8888379379 4.5113931262 0.2733946125 1.1100401483 4.6830932698 3.7173411580 3.6685317051 1.5542956319 1.1537938449 8.6672909592 1.4333476400 1.2863274075 6.0597274224 4.5142455723 3.7735861827 4.3752935260 4.5685065175 0.6191555127 0.4692206670 1.5355924478 3.2680429568 5.3497524716 1.5143540676 4.3374275124 9.2970189753 4.5553517101 1.7426325999 1.7040300472 5.8952732055 1.5199156140 3.1608107500 0.3238527133 3.9461325835 8.1128887083 2.6172958123 3.5430495525 6.6049034229 3.3206104655 0.9871894550 8.0750061939 0.1966155288 3.4906981950 6.5833981273 5.7389725554 1.0009664983 1.6001876877 3.4588016741 1.4799373066 3.1261148329 2.7639896636 3.9535641583