-28927.8110083404
-28927.8463712843
-28927.818795146
-28927.8296044545
-28927.832666686
-28927.807798079
-28927.7826811682
-28927.7864167451
-28927.7844814725
-28927.8300324894
-28927.8229477371
-28927.8157059752
-28927.7532024109
-28927.7490602962
-28927.8211664808
-28927.7864342964
-28927.8319995993
-28927.801982465
-28927.8048475502
-28927.7724381283
-28927.8210747785
-28927.7732837216
-28927.8650433182
-28927.817215662
-28927.7970610167
-28927.8231104611
-28927.7748878319
-28927.8349150255
-28927.8072312662
-28927.7847719538
-28927.8187977311
-28927.8449796949
-28927.8256948609
-28927.7734351529
-28927.827925513
-28927.8538837993
-28927.780976512
-28927.8018070877
-28927.8130408936
-28927.7707813641
-28927.778568986
-28927.763735388
-28927.8226701811
-28927.8221522127
-28927.7846655574
-28927.7559088538
-28927.7765467731
-28927.8183658866
-28927.8283196697
-28927.8580625133
-28927.8608195693
-28927.7908183202
-28927.8642823522
-28927.7838967001
-28927.8146161599
-28927.7965271296
-28927.8098687282
-28927.8585214331
-28927.8345229096
-28927.7528492073
-28927.8053221165
-28927.7857386378
-28927.8226572557
-28927.7802280632
-28927.7729009937
-28927.8136345097
-28927.8025149915
-28927.7931812195
-28927.8117742044
-28927.7858462587
-28927.7977168107
-28927.8244578321
-28927.7865148421
-28927.865322779
-28927.7680263489
-28927.7962722951
-28927.8076666481
-28927.8100290032
-28927.8024277791
-28927.7920997036
-28927.8236372732
-28927.8257616649
-28927.8343971931
-28927.8551672236
-28927.7769288207
-28927.8310749569
-28927.7728292917
-28927.8114541987
-28927.7727467052
-28927.8309624379
-28927.79915602
-28927.8111354175
-28927.7601395415
-28927.8009057111
-28927.7820539462
-28927.8198016946
-28927.7990824133
-28927.8174394755
-28927.8428172073
-28927.81832126
-28927.8193059034
-28927.8316307492
-28927.7965491708
-28927.7832913832
-28927.7910063508
-28927.7777979518
-28927.7977168107
-28927.7897373486
-28927.8038336545
-28927.8584753098
-28927.7627153698
-28927.8209098776
-28927.8277838778
-28927.8040439984
-28927.7913815956
-28927.8310088333
-28927.7482702141
-28927.8020670924
-28927.7932850309
-28927.8294587376
-28927.805701579
-28927.8129270141
-28927.8362326
-28927.8037033121
-28927.8644238513
-28927.7820992531
-28927.8152354906
-28927.8120348893
-28927.8012963303
-28927.8071014679
-28927.7961231768
-28927.7844343968
-28927.8183713289
-28927.8231586252
-28927.8225522198
-28927.8198853695
-28927.8413747326
-28927.7726570438
-28927.7976827965
-28927.8084703359
-28927.7780555075
-28927.7755474355
-28927.8133634844
-28927.808257679
-28927.7837390102
-28927.786253885
-28927.8058479762
-28927.8066937056
-28927.7869473668
-28927.8665342291
-28927.820769739
-28927.8283885144
-28927.7646699625
-28927.8286694718
-28927.8156568587
-28927.782010408
-28927.7842077261
-28927.8024451944
-28927.7760013211
-28927.8204702779
-28927.7912524776
-28927.8270180138
-28927.8194113475
-28927.8506804769
-28927.8082481551
-28927.7652494286
-28927.808877554
-28927.8259838457
-28927.7978053837
-28927.789448908
-28927.8317443566
-28927.8166541554
-28927.8020729428
-28927.830484062
-28927.7849628416
-28927.8015844987
-28927.7844255531
-28927.7887252217
-28927.7707216351
-28927.7839450003
-28927.7680086615
-28927.772583301
-28927.7741093146
-28927.7994588826
-28927.8395046312
-28927.8227484138
-28927.8222086763
-28927.7481981039
-28927.8118699884
-28927.8226720859
-28927.8110913351
-28927.8067361553
-28927.793423945
-28927.8067829589
-28927.7843322181
-28927.8078129092
-28927.8304071899
-28927.8042797849
-28927.7984385923
-28927.8140811843
-28927.774270542
-28927.7802247979
-28927.8402156643
-28927.7737716215
-28927.823292097
-28927.8046252333
-28927.8029016651
-28927.7821667373
-28927.8078469234
-28927.8134936908
-28927.8549151102
-28927.8310647527
-28927.8067230938
-28927.7708946994
-28927.7613854141
-28927.8143298962
-28927.7714400153
-28927.7714888597
-28927.8055848422
-28927.8045787018
-28927.8199329894
-28927.8202174843
-28927.8532654209
-28927.8327148502
-28927.7871023356
-28927.7918556177
-28927.8494203183
-28927.8648990979
-28927.7869172982
-28927.7818528541
-28927.7863126616
-28927.7873411153
-28927.7507044072
-28927.8323251833
-28927.7943413763
-28927.8192942025
-28927.7851760427
-28927.8615518273
-28927.7967312149
-28927.7798042461
-28927.8091884439
-28927.7848044714
-28927.8040297124
-28927.8095812401
-28927.8069726221
-28927.7689026911
-28927.7935919752
-28927.7823855167
-28927.8181571754
-28927.8200090452
-28927.7449248482
-28927.8227214746
-28927.8231654281
-28927.8225152124
-28927.7866106261
-28927.8453810626
-28927.7764324853
-28927.798574377
-28927.8009482969
-28927.7888833197
-28927.7911945174
-28927.7837849974
-28927.7628982302
-28927.8053456543
-28927.8082921014
-28927.8139422703
-28927.8184208536
-28927.8341195011
-28927.8140943818
-28927.8352970731
-28927.7722662885
-28927.7709725239
-28927.8117453603
-28927.7833262138
-28927.7981204913
-28927.7868163441
-28927.7885976003
-28927.7875832965
-28927.7635073567
-28927.7827392645
-28927.7803228949
-28927.8194665865
-28927.8076265113
-28927.8248578392
-28927.8555891359
-28927.8449961577
-28927.8022140338
-28927.8043765214
-28927.8170085835
-28927.8174845103
-28927.7966461793
-28927.8057980433
-28927.821839554
-28927.8381839273
-28927.82298352
-28927.7780150986
-28927.8006569992
-28927.7982292008
-28927.8059139637
-28927.8040997817
-28927.8192973318
-28927.8289651234
-28927.8124963941
-28927.83276247
-28927.7689567056
-28927.7823256517
-28927.7816800619
-28927.8172676357
-28927.8158816246
-28927.7750145008
-28927.8069617375
-28927.7919787491
-28927.815863393
-28927.8213581849
-28927.8027407098
-28927.8627455901
-28927.8328092736
-28927.7837225474
-28927.8088646286
-28927.8131059288
-28927.8192939304
-28927.7811005958
-28927.789286184
-28927.7666785698
-28927.8302243295
-28927.8192493037
-28927.8174958031
-28927.8523323431
-28927.7873058766
-28927.7984313813
-28927.8202123141
-28927.7877364965
-28927.7860819092
-28927.8215896176
-28927.8416129681
-28927.774294488
-28927.8012778266
-28927.833291187
-28927.8240874853
-28927.8143463591
-28927.7951566289
-28927.7760806423
-28927.8449783343
-28927.7842473186
-28927.8044978841
-28927.7484492649
-28927.7711821875
-28927.824639604
-28927.7913690784
-28927.786241912
-28927.8098412447
-28927.8207161326
-28927.8278183002
-28927.8198057763
-28927.8237107439
-28927.8093436848
-28927.8259575867
-28927.8599920716
-28927.7702372727
-28927.8078371273
-28927.8028130921
-28927.7797216596
-28927.8256669693
-28927.8048803399
-28927.7881370479
-28927.7835610479
-28927.7903924623
-28927.7945336246
-28927.8470170101
-28927.7910370996
-28927.7935421784
-28927.7997809291
-28927.7624161808
-28927.7828010343
-28927.8275675474
-28927.814886913
-28927.796872714
-28927.7879748681
-28927.8232775389
-28927.8287558679
-28927.8277031961
-28927.8200694544
-28927.764580301
-28927.8201602044
-28927.8271694451
-28927.8223889516
-28927.8055534131
-28927.8250744417
-28927.8613402589
-28927.7924914113
-28927.8444927474
-28927.8478275008
-28927.7719711812
-28927.7818445547
-28927.8094036859
-28927.772528334
-28927.8195220977
-28927.8010416319
-28927.7929699233
-28927.8573883517
-28927.7888253595
-28927.7630889819
-28927.7798500973
-28927.8624685784
-28927.8049449669
-28927.8539873386
-28927.8244760637
-28927.8201045571
-28927.8225575261
-28927.8536240668
-28927.7481636815
-28927.7812869937
-28927.8035502481
-28927.8498302576
-28927.7887176025
-28927.794623014
-28927.8196497191
-28927.8033901092
-28927.7981561382
-28927.7817961184
-28927.8442546479
-28927.7724075155
-28927.7714650497
-28927.8267478049
-28927.8075582108
-28927.8620853062
-28927.8055640255
-28927.7661154305
-28927.7889550217
-28927.8166265359
-28927.7993728946
-28927.7999273263
-28927.8142569698
-28927.7825377643
-28927.8220342514
-28927.785636323
-28927.7862170136
-28927.8255013881
-28927.8076002523
-28927.7856265269
-28927.8638428886
-28927.8153099137
-28927.7859583696
-28927.821937651
-28927.7567436986
-28927.8072059596
-28927.8261864343
-28927.8154705969
-28927.7815020996
-28927.7883249424
-28927.7805271162
-28927.785636323
-28927.8266035846
-28927.800611148
-28927.8193857688
-28927.8140425442
-28927.7750781754
-28927.8222745278
-28927.8177866926
-28927.8002738631
-28927.7661374717
-28927.7905896087
-28927.8247368847
-28927.8053478312
-28927.8185993602
-28927.8188703854
-28927.8133256606
-28927.8016367446
-28927.8129528649
-28927.816461635
-28927.8089202759
-28927.792071812
-28927.8372339784
-28927.8039600513
-28927.7555775553
-28927.8102562181
-28927.8265114742
-28927.8151779386
-28927.8257450659
-28927.7610636396
-28927.8054555882
-28927.7873789391
-28927.7648461561
-28927.8509438829
-28927.7476397266
-28927.8190766476
-28927.8066741134
-28927.7789300809
-28927.808094955
-28927.8072368445
-28927.7848938608
-28927.8000161714
-28927.8231941361
-28927.8300767078
-28927.7759425446
-28927.8007916955
-28927.840593086
-28927.8303099093
-28927.7927696476
-28927.7930454348
-28927.800582304
-28927.8074226982
-28927.813589883
-28927.8042142055
-28927.8272810117
-28927.7876039772
-28927.8106544565
-28927.7451327431
-28927.7999651501
-28927.8071425571
-28927.8646377327
-28927.793591567
-28927.802882209
-28927.7862140204
-28927.7958944652
-28927.7817853699
-28927.86578959
-28927.7759705723
-28927.7819867341
-28927.8210777718
-28927.7740023739
-28927.8207135476
-28927.8068757496
-28927.7468325013
-28927.8295063575
-28927.823414276
-28927.8020274998
-28927.7885765115
-28927.7867510368
-28927.76486983
-28927.8272518955
-28927.7884729723
-28927.8212896123
-28927.7822867394
-28927.7743864624
-28927.7863239543
-28927.8504875482
-28927.8074135823
-28927.8129049729
-28927.8063999588
-28927.7886565129
-28927.7848477375
-28927.7841965694
-28927.8642114666
-28927.8219396919
-28927.7832882539
-28927.8023158043
-28927.8252103625
-28927.8200882303
-28927.7459241858
-28927.8042490361
-28927.7818542147
-28927.8006486997
-28927.7983796796
-28927.8081531874
-28927.8119841401
-28927.8218636361
-28927.8099579815
-28927.789206999
-28927.7990996925
-28927.8098172987
-28927.8166081682
-28927.8268146088
-28927.7876290116
-28927.7958584102
-28927.816820689
-28927.8146594259
-28927.7769665084
-28927.8595015866
-28927.7447139601
-28927.7784949711
-28927.8057139602
-28927.8296282645
-28927.7705130599
-28927.8278856483
-28927.8071028285
-28927.7921239218
-28927.8331502321
-28927.8058449829
-28927.7809299805
-28927.7868657327
-28927.7735714819
-28927.8051234735
-28927.8193056313
-28927.822617255
-28927.826185618
-28927.7790391985
-28927.7773933188
-28927.8222950724
-28927.772767658
-28927.8053106877
-28927.8033958236
-28927.8630088601
-28927.7997690922
-28927.7904115103
-28927.8413295617
-28927.7612290848
-28927.8132053864
-28927.783829352
-28927.803542765
-28927.7985036274
-28927.8063176444
-28927.7735233177
-28927.8027862889
-28927.8103370359
-28927.8062813172
-28927.7584561101
-28927.8149816085
-28927.8590106935
-28927.8195759762
-28927.8105301005
-28927.8646393654
-28927.8086008144
-28927.7912783284
-28927.7873202986
-28927.7880196308
-28927.8054413023
-28927.7944275003
-28927.865054747
-28927.8138995484
-28927.77463912
-28927.8662358565
-28927.8461175383
-28927.7932616291
-28927.8148047346
-28927.8196297187
-28927.8158492431
-28927.787256488
-28927.8300542585
-28927.8038607298
-28927.7994952098
-28927.8607715413
-28927.7903877003
-28927.8450701727
-28927.7729209941
-28927.8543006775
-28927.8134717857
-28927.8204807543
-28927.7860272143
-28927.8019518522
-28927.7888008693
-28927.8166255835
-28927.775189742
-28927.8290475738
-28927.8329407045
-28927.7757156018
-28927.8052857893
-28927.8119962492
-28927.8202744921
-28927.8117199177
-28927.808066111
-28927.8228024284
-28927.8156706004
-28927.8317616359
-28927.8237051656
-28927.7847832466
-28927.8429071409
-28927.8031306488
-28927.8141704376
-28927.8085164592
-28927.7483469501
-28927.782544159
-28927.8448418693
-28927.8127735419
-28927.8199204722
-28927.8435457917
-28927.8212962791
-28927.7914466308
-28927.8389018993
-28927.7749734116
-28927.751544014
-28927.8023826082
-28927.7603089323
-28927.7484308972
-28927.7623470639
-28927.8184830316
-28927.8453280004
-28927.8196942096
-28927.8141915264
-28927.8137376408
-28927.8346234556
-28927.7705986397
-28927.8452526249
-28927.7783122467
-28927.8044591079
-28927.8248847785
-28927.8564518724
-28927.8318820462
-28927.807113577
-28927.7853375422
-28927.7990090786
-28927.7971826515
-28927.8221232326
-28927.7947473699
-28927.8085493849
-28927.8020983855
-28927.7874019327
-28927.8043068602
-28927.785617139
-28927.8124993874
-28927.7861786456
-28927.7823079643
-28927.7602828094
-28927.8108106498
-28927.8058222614
-28927.8455165752
-28927.8455761681
-28927.8085620382
-28927.8278399332
-28927.8224416056
-28927.8201475511
-28927.8033480676
-28927.7989149273
-28927.7774356325
-28927.788532157
-28927.8116269909
-28927.8281276935
-28927.7973544913
-28927.7723362217
-28927.8173970258
-28927.7975030654
-28927.7950589401
-28927.7804774554
-28927.8004169949
-28927.8338283394
-28927.8043459086
-28927.7715549833
-28927.8524503044
-28927.8040404609
-28927.825247506
-28927.8284708288
-28927.7869362101
-28927.8569208603
-28927.7885543343
-28927.8210032126
-28927.7793289996
-28927.8250970271
-28927.7964902582
-28927.8016653165
-28927.7827992656
-28927.8572683495
-28927.7753334181
-28927.7709681701
-28927.7887856309
-28927.8293655387
-28927.8139181882
-28927.7881488848
-28927.787046008
-28927.8275650984
-28927.7775944108
-28927.7508316203
-28927.7675164078
-28927.8009420383
-28927.7958558251
-28927.7603287966
-28927.8252005664
-28927.8108800388
-28927.8169223235
-28927.7709446323
-28927.8235048899
-28927.7874326816
-28927.8154371269
-28927.7999685515
-28927.8050427917
-28927.8008321044
-28927.7929183577
-28927.7821508186
-28927.8210546421
-28927.8057819886
-28927.8352600656
-28927.7977351784
-28927.8298549352
-28927.844108931
-28927.797116936
-28927.8134904255
-28927.823756323
-28927.7818412893
-28927.8255671036
-28927.7806614043
-28927.8452108554
-28927.8066954743
-28927.8160277497
-28927.7937534746
-28927.787431185
-28927.7965909402
-28927.7828617157
-28927.8178222035
-28927.8324503556
-28927.8595615877
-28927.777647609
-28927.838618765
-28927.7861148349
-28927.7561284495
-28927.8455315414
-28927.814599697
-28927.8449930284
-28927.8218248599
-28927.8061713833
-28927.807860393
-28927.7539439207
-28927.8622937453
-28927.8226284117
-28927.8286920573
-28927.8435686493
-28927.7898229283
-28927.8339539199
-28927.8589506925
-28927.7930112845
-28927.8304112716
-28927.7888782856
-28927.7917432347
-28927.8048075494
-28927.8258009853
-28927.8013843591
-28927.7902902836
-28927.7870676411
-28927.8038902542
-28927.821353559
-28927.8138213157
-28927.830390591
-28927.8199646907
-28927.8261192223
-28927.8183321445
-28927.8227693666
-28927.7827515096
-28927.7763230956
-28927.7998669171
-28927.7847695048
-28927.787409688
-28927.8208930065
-28927.8272395144
-28927.7917075878
-28927.7970769353
-28927.8146803787
-28927.8605011963
-28927.7992172456
-28927.8376862314
-28927.8633299543
-28927.8601284006
-28927.8164142872
-28927.7795600241
-28927.8196255009
-28927.7835629527
-28927.8570921559
-28927.7755945112
-28927.8474936173
-28927.8012009545
-28927.7877156798
-28927.8047588411
-28927.8175321303
-28927.8152529059
-28927.827877621
-28927.8200008818
-28927.8649210031
-28927.830345148
-28927.7869847824
-28927.82519009
-28927.8094596053
-28927.8260337786
-28927.7992621444
-28927.8624775581
-28927.8370039063
-28927.7816460477
-28927.7939000079
-28927.8520577803
-28927.7953669728
-28927.8300750752
-28927.7952796243
-28927.7802847989
-28927.8169281739
-28927.794615939
-28927.785442578
-28927.7872611139
-28927.822358883
-28927.798983636
-28927.7833871672
-28927.7894547585
-28927.7835847218
-28927.7954260215
-28927.857688221
-28927.7945983877
-28927.8287455276
-28927.8438418514
-28927.8195245468
-28927.7854944157
-28927.8561786702
-28927.8486419371
-28927.7917229622
-28927.8045419665
-28927.7846733126
-28927.8197053663
-28927.7653468453
-28927.8318885769
-28927.750512567
-28927.8060400884
-28927.8267873974
-28927.7809697091
-28927.8051211605
-28927.8093277662
-28927.766712584
-28927.8308901917
-28927.7515264626
-28927.8246379713
-28927.7677304253
-28927.8021194743
-28927.7616236496
-28927.7677845759
-28927.7857029909
-28927.7909341046
-28927.8213214496
-28927.8069854114
-28927.8510625245
-28927.7878301036
-28927.8666667485
-28927.7899904143
-28927.7723744537
-28927.8126664652
-28927.7750136845
-28927.8059062085
-28927.8163763273
-28927.8291430857
-28927.7639013773
-28927.8171601508
-28927.8192528412
-28927.8115756974
-28927.8289721983
-28927.8573201872
-28927.8257209839
-28927.7768656903
-28927.8179212528
-28927.797985659
-28927.8368647201
-28927.7851867912
-28927.7888482171
-28927.7845107247
-28927.809569131
-28927.8138379147
-28927.8148373883
-28927.8033958236
-28927.8422215504
-28927.7860317042
-28927.7848184853
-28927.7850863812
-28927.840193487
-28927.8037935177
-28927.8013579641
-28927.8448081272
-28927.8239131965
-28927.8424923035
-28927.7822301398
-28927.7482019135
-28927.8144488099
-28927.8185683392
-28927.863659484
-28927.7855319674
-28927.7599637561
-28927.7789020532
-28927.7927912806
-28927.8262982731
-28927.7831224006
-28927.8108260242
-28927.7764644587
-28927.8241696637
-28927.7981312398
-28927.7693900467
-28927.7519300073
-28927.8640318716
-28927.7886381453
-28927.7860027241
-28927.8245831404
-28927.8047306773
-28927.8107673837
-28927.7883086156
-28927.7459975204
-28927.7881243946
-28927.7723502356
-28927.8438848454
-28927.7983838974
-28927.7984632186
-28927.8295871753
-28927.8400228717
-28927.8284837542
-28927.7927220277
-28927.7854635308
-28927.8278572125
-28927.8028250651
-28927.8275789762
-28927.8140079857
-28927.78166115
-28927.8308061086
-28927.7918375221
-28927.8153353564
-28927.7627043492
-28927.8023612473
-28927.8474376979
-28927.8185042564
-28927.8047008809
-28927.8491389528
-28927.8068984711
-28927.8558771682