0.125330158578277 0.0508635933245873 -0.0499621650222439 -0.179758070372741 -0.14575036354939 -0.160770226232305 -0.717142007423985 -0.286387576885231 0.147331334065965 0.129744226203671 -0.121590748073633 0.224649508361665 0.0992640710939977 0.259320816567888 0.146941297918031 0.21796490070832 0.0233103805406063 0.0990969494749095 -0.532553865149411 0.122594249118711 0.172604493745216 0.134938366124933 -0.0340329036213056 -0.157889049519225 0.650130094822362 -0.110909105512064 -0.438976814197894 0.12026843040137 0.109140701671928 0.156427121017478 0.180089742509085 0.0527829208422696 -0.370320424864443 -0.185893747784927 -0.0460620606530916 0.188295671116499 0.122381618997195 0.145239485615347 0.0235710902663839 -0.0394697555555198 -0.0984660010853057 0.281434606315823 0.069643435326804 0.0297916140390302 -0.113827048981344 -0.252710770867675 -0.0534791752184094 -0.0455372987691546 -0.303237035631887 -0.21082212270849 -0.183784158731667 -0.125129098415005 -0.0227349679505764 0.188447366124595 0.292449463674835 0.276730261293581 -0.00927704963067797 0.306579982234018 -0.0262401510783142 -0.0484619271031982 -0.307181105842369 0.130529183593019 0.0770978308686876 -0.0184186021948029 -0.159285414924252 -0.0467781125133387 0.0806678057625949 0.0611158618801908 0.149524998149135 -0.129012747732431 0.338555490169256 -0.174065908026597 0.261053482092558 -0.284214224506534 -0.0557718267221164
-0.202457300007851 -0.007856258758245 -0.0652836179500675 -0.0935893922403119 0.0255878625435037 0.331639740461203 -0.181245967002992 0.24187177687398 0.0537200874600796 0.052045785946999 0.0428978056282938 -0.17397257703009 0.208374947984673 -0.0543734044356229 -0.132031735503714 -0.56571310836816 -0.451901485997809 -0.345365310481825 -0.123437313409466 0.00454956469194741 -0.279660031831289 0.281769877994732 0.00767396763834724 0.268814352972831 -0.0477389332680043 -0.161030421737716 0.521829799407613 -0.222802428805466 -0.0592695536545409 -0.0704037101385637 0.153723607440997 -0.008231125405369 0.00973290598551395 -0.271196993040662 0.0448323026467856 -0.162738404684798 0.181655029304484 -0.118666633959955 0.0430248180588008 -0.189165989086674 -0.0183034168327236 -0.257847060997713 0.0218996169653186 -0.165343445061108 0.0891984645314066 -0.106192419201028 0.0666678991764842 0.13459563825071 0.144149595548708 0.187292684291787 0.0290277396847055 -0.325654986726562 0.0617673790844516 -0.15632890492749 0.270714654336956 0.16810069466588 0.243896262456596 -0.00705124677460627 0.172879858751437 -0.0990619824899926 0.072141774977081 0.11383476228684 -0.303712175250464 0.00312208895475092 0.0280260384109091 0.0569133959355804 0.288218972720254 0.263420695549397 -0.0256158875534739 0.253644080832736 -0.0502473002154267 0.0659739587919934 0.404786559144462 -0.334179989071343 0.223654234842449
-0.204052925804868 -0.0650352495130841 -0.0183018741716243 0.0999220160528388 0.234734398187997 0.0225207951679603 -0.246142891237508 0.0750445489455516 0.195007789559448 -0.0215895420843642 -0.115273293761915 0.335963048191923 0.171434899521782 -0.216188269342321 -0.0404534591164913 -0.0953128017983861 0.153591195696642 -0.257552669837935 -0.0450621591505777 -0.568946526032242 0.11793155594615 0.383241497121793 -0.244753467807427 -0.315607377876796 -0.165928113617734 0.0235569492063072 -0.399269231722902 -0.0531454462005994 0.0877126247826209 0.0141351465424805 -0.0469658029470839 -0.0930291491510916 -0.260671416360304 0.146153769426851 0.0490491667616558 0.158686348197367 -0.221030682532948 0.112336324139077 0.028244839176823 -0.0110056013924165 -0.214446604961239 -0.12044609353797 0.101963985127914 0.208284445200182 -0.212421605158256 0.0902695855546705 0.101844943113086 -0.00752381529135107 0.260442331187062 -0.169807134951863 -0.0015640012444824 0.0150211482338312 -0.00824835178764425 0.359706145170876 -0.150526956533114 0.00470665901389033 0.076074018119135 0.284631257223705 0.131137506286501 -0.0162604193169161 -0.0192896914955273 -0.160343680438356 0.0870739630875207 -0.00473391269331087 0.13601694334351 -0.153868617584329 0.00214378470762687 0.449314700444507 0.17743148032485 -0.137858880696045 -0.291876107966271 0.112441739314194 -0.132578865973591 0.380616916371559 0.118722683979896
-0.0865080635742697 0.280710841150079 -0.0331615572103981 -0.0131822962034945 -0.123391547796854 -0.313057616189876 0.153805882699625 0.0270865578014501 -0.0850163102912701 -0.068674901266642 -0.112204169504906 0.217255276602654 0.0494304611633602 0.0732123817799784 0.0112012622418413 0.0222983948594814 0.0602856530985972 0.475885238108249 -0.210324871614157 -0.0781015890239497 -0.134291734014153 -0.355993217015102 -0.278333857506278 -0.124379365120757 0.0586198362215626 -0.457927634471947 0.125637662357399 0.190789639893662 -0.238293317344027 -0.000930481753046493 -0.20606507009869 -0.169411956600265 0.435871951625418 0.0326643061160648 0.248322414260602 -0.280117945067591 0.0269310061406065 0.121837316739333 -0.28529665837786 -0.395301507375565 -0.18781230397206 0.191651987448157 0.0296746289056684 0.0284124750162776 0.0617936043231393 0.231949637793622 -0.0642022125194752 -0.00682936068649377 0.00829797405300429 -0.00855457001585049 0.0547040481312343 -0.0265563966036657 0.020486539398382 -0.093937776538565 0.028974003656414 0.0944355418532646 -0.103950418403414 -0.0170703163940359 0.174931598013474 -0.133744346434093 -0.0864666688347725 0.193720181761919 0.0389617058334917 0.0966176359781902 0.0901256038520714 0.034556894174693 0.43071894933347 0.274561794008366 0.158741883996941 0.226933675229326 -0.159491617291189 -0.0245835901678752 -0.121562980173846 0.189595620202822 -0.186964611698008
0.145016571086501 0.121900308734221 -0.0405534749777611 0.256608818355361 -0.00504578734554778 0.232358185874746 0.333144349253363 -0.155547289970524 -0.259154980499716 -0.247505060988169 -0.092582291652668 -0.0759351786202001 -0.176206093191659 -0.0186332891977854 0.0423324203354092 -0.0941480926684329 0.00255104723783567 -0.331666222810073 -0.0279566186614417 -0.218699978722125 -0.107858750298429 0.194266540901246 0.347604483067424 -0.00736337853702639 0.0525517787875615 0.310341247104235 0.20722232303333 -0.226562151014584 -0.0151512459865368 0.0202913927693236 -0.147196094109595 0.125042195173079 -0.26293038643001 0.21586482473184 0.101412226674739 0.0201530674907553 -0.128026215959445 0.144755090030174 0.39445355799133 -0.24310024932937 -0.00984834845777642 -0.126740407933198 -0.0827606826539457 -0.0330278599151275 0.276893526259921 0.274029833039299 -0.0646549835521126 0.127994077186543 0.0682082462841111 -0.132006024485393 -0.13013143413959 0.353587951251148 0.304399944990558 -0.206904277736696 -0.227735601890767 -0.133852589821226 0.22151584944867 -0.0551020546948475 -0.0721764848518148 0.274778795002998 0.143716879110361 -0.117316291277723 -0.112085898820628 -0.231914927918888 -0.154976762473975 0.0519154310841102 -0.0848211636622117 -0.219353552807852 -0.240010813367887 0.17988045481995 -0.0410597249285067 0.0455709802031554 -0.243841240877389 0.0259264766547948 -0.0141444025090762
0.0773040332356242 -0.0069725710585432 -0.0155880761878151 -0.237600662510452 0.000216743884448244 -0.0224243788492556 -0.103322298225826 0.0414387053385621 -0.36798972105362 -0.122025007173079 0.324277133254726 0.246211796766609 0.00902071077801498 -0.411827007291373 -0.323559024513013 -0.345825280599593 0.310534079741644 0.0626646936238637 0.0600552823744387 0.569248116277151 0.0456411712831725 0.206106464838188 0.378280813246889 0.0266417571844923 0.625085248985803 -0.200574225026002 0.359181126176756 0.199033620808192 -0.165347301713856 -0.127675260559359 -0.0975650870033287 -0.223687402056084 -0.0436927903147872 0.109715600041591 -0.133818137056675 -0.067887629885645 -0.157000476726042 0.166349517208019 0.101515327858207 -0.0297846720640834 0.0981271298638315 0.0412666986259929 0.12721991842489 -0.00273025303553487 0.0409106010222434 0.113036435167965 -0.250546160235208 -0.0753104008749935 -0.0582639957279964 0.203638207079346 -0.170442454214581 -0.0246915764448245 0.180765170960385 0.276665726637595 0.11076795202148 -0.375749820603344 -0.0102365848344275 -0.165011001594214 0.195699673062473 0.0786098958561611 0.104169476279511 -0.409823090523414 -0.104636388372226 -0.130700933195405 -0.332089426171641 0.132756014889824 -0.159287728915901 0.183077105727833 -0.085133552534815 -0.0490041724795936 -0.0477849559907994 0.128890106175039 -0.0614321074055423 -0.0907012735522844 -0.126378396795235
-0.0465330865087371 -0.119151286655311 0.0560276513544129 0.325787141360734 0.05753200303639 0.0889693793581642 0.470009241981108 -0.0634699627176856 -0.113479436013641 -0.0116020970174697 0.161246908511982 0.0647172042164501 -0.171173161355271 -0.0193711954236057 0.120256603332942 -0.382079359093672 -0.529283937839313 -0.108591257210402 -0.105997786792336 -0.193640734715307 -0.162368166020972 0.18632132201961 0.18103050866946 0.222302349499117 -0.602078772681754 0.490088261739098 0.400553754198232 0.158631326618159 0.322741157020214 -0.103450081986882 -0.185060710791318 0.0501948497380513 0.243200779411006 -0.088097261616707 -0.0254706202999588 -0.143193145667157 0.0116576328170437 0.14134786588224 -0.00863093174026464 0.0322783837310627 -0.121401514978788 -0.0983359033326002 0.096503736167027 0.0717987899926754 0.162308516458466 -0.0798833625936132 -0.0848522739943804 -0.0315155378174708 0.241020485057363 0.0625693057458918 0.0325066975737555 0.359616156606752 0.368769279129121 0.201260709215179 -0.074066758918794 0.0580161415113794 -0.0846974936640864 -0.0134080389443552 -0.0446767509859419 -0.0123340897090761 0.0812162217833875 -0.248065818297755 -0.0281167983055831 -0.146739980644576 -0.371116952212036 -0.172503706553397 0.0175742523531326 -0.121301242007335 -0.327993403842881 0.124895899478831 -0.241511822617482 -0.156749794297409 -0.198791680125788 0.217979041768397 -0.0401438984559033
-0.00278707438602486 -0.0584156907360918 -0.0901780543294468 0.0610135320272722 0.116778930994808 0.117962409168136 -0.370271316819449 -0.177021132472443 0.294394245100655 -0.412927438875523 -0.038760131449853 0.0765062203371154 0.259930424812285 -0.0064858614817217 -0.225527539637337 0.260560344761156 -0.0547397864467009 -0.219228083038444 0.349569833307901 0.35298785608353 0.265106567020722 -0.235740470334908 -0.160563252534819 0.0334875729227117 0.168353176865795 0.102994996962596 0.178039031687781 -0.224129631571209 -0.159344550266391 -0.0881556256282962 0.256494404323832 -0.0309156997600358 0.00605905857758874 -0.0929743846820673 0.116738050475677 0.150399944102607 -0.406166469497764 0.245544595841172 0.357412722336619 0.576359526834629 0.0871590665581641 0.0653185849349844 -0.0651890014026452 -0.00960743621610619 0.0195910246302525 -0.240935124476536 -0.111590447497577 -0.154906314283775 -0.0632313644676643 0.165176837662386 0.0293025904705598 -0.320590173227457 -0.28280371804143 -0.0587550761779325 -0.0354629504603343 -0.24280174440666 -0.186160885265285 0.145072106886075 0.104092343224548 -0.330811074340708 0.186087094642703 -0.450166763591673 0.132855259420544 0.131537569731579 0.168267816284969 -0.0453622067343868 -0.105839149809294 0.126989290590548 -0.167625040826937 0.243248087684717 0.124401990816879 -0.0419696378668962 -0.0619815518670677 0.0720841822960414 -0.117755692580833
0.00270968422087786 0.0736214440814697 -0.0385120201230528 0.131569451394298 -0.142393018777 -0.0390352393458905 -0.55982837049479 -0.153205787532007 -0.0712030656981718 -0.17560599802404 0.0899242865786159 0.208441025301758 0.351862484811608 0.116292735638353 -0.125213944775465 0.582008751780177 0.0941892302977469 -0.162753317075424 0.223331047342151 0.254284799409302 -0.11879261794973 -0.394042695918556 -0.0591230008501097 -0.245565421766013 0.0694215492386915 -0.5952717805812 0.190219626617479 -0.109488314639631 -0.0931196519355824 0.0196802418638272 -0.0691446415713715 -0.0131658411517689 -0.402152722427632 0.0467521443848342 -0.203541019430092 0.0512705987446129 0.12472055033388 -0.124694582205375 0.258036808312924 -0.264020019386465 0.205321764559023 -0.258554628221914 -0.158348762526809 -0.095506148656162 -0.208773211658469 0.0539435162092914 0.106955008004437 -0.0171384505925872 -0.343729318386043 0.0943648365528812 0.186455276425063 -0.407516812179997 -0.171484521787142 0.0965309898464475 0.0568236644816392 0.195183910034949 0.109144815434859 -0.0879116280644275 0.0323609160998739 0.0317574784998739 0.0914900875943808 0.164859563696302 -0.139793120604354 0.312381416408027 0.124620020252244 0.179629001060768 0.264390772270658 0.224351774769505 -0.0094305444100559 -0.0512903962287203 0.0160876412737972 0.219723277251312 0.309521836950336 -0.140912578342061 0.286029165289832
0.103438769138821 -0.0573718233922485 -0.00937706549194768 -0.401373164352131 0.0255791207972745 -0.0239246167683013 -0.140558280509594 0.0888549653266346 -0.42420120618903 0.225945857905423 0.164719695756634 0.172984502596004 -0.139068326997877 -0.257335668843303 -0.068613194822671 0.191899070334224 0.0624080976610175 -0.16758287475689 0.319057282315143 -0.306782842168572 -0.463448047215705 -0.218928292564818 -0.0916428110432091 0.192474225814071 -0.504662295364322 0.045235451414063 -0.0302577548011947 0.250302162671339 -0.216964999205806 -0.0278599452325537 -0.215727527894004 0.116485825385946 0.095889499939332 0.0893553017431664 -0.0396692730576928 0.244118919875258 0.254592560298608 -0.0957318913970227 0.0769816170658755 0.398095266626353 -0.113182730862213 0.190803266733372 -0.140463406851989 -0.0124490179609721 -0.0276717405784421 -0.200177761123488 -0.076128525477976 -0.0318343544446545 -0.0717501961680482 0.240526062175045 -0.135256925641933 -0.0873287592790844 -0.0512487443790399 0.101430224387564 0.166197565089741 0.215064440731499 0.188341436729111 -0.0815733478278698 -0.19033172665736 -0.102505202063576 0.0495276488126145 0.0354056148894779 -0.022151584944867 0.328714083686426 0.532674964045704 -0.0408028718554773 0.00803572166612741 -0.160034891108317 0.0351677879700062 -0.0588736039723935 0.222570515420208 0.364692797174285 -0.124676327382367 -0.0806503222701365 -0.0873968934776358
0.0436593659909696 0.0381392103573945 0.038421517338562 0.304476049604789 0.0518421546818946 0.0184463700945898 -0.0277907825932695 0.114968875304991 0.146420135576659 -0.0804556898614445 0.0139641682706441 0.12928477030627 -0.221449772131584 -0.0846923514604222 -0.0480721480654479 -0.398255960490861 0.320776835220469 0.0032969238793355 0.561019561973614 -0.150975099582454 0.291472187868444 -0.147940170979812 -0.161057675417137 -0.279941053261541 -0.445746268211699 0.0849674593564597 -0.108471186754842 -0.183231886058127 -0.0796434787926758 0.00441818138832576 0.0236538797453784 -0.249168049653188 0.0599452392160237 0.0516966303181963 -0.210691253625235 -0.0260203218716674 -0.0038875059701749 0.0433012115057544 0.193577485610236 -0.0874753120835156 -0.121054930451817 -0.111078541122801 -0.134135153912577 0.0794848418096336 -0.197683792346325 0.543162745529131 0.0316962862762693 0.0927913222316199 0.202631363601886 -0.0411494563824479 0.27637724901203 0.0685291197927604 0.0811887109937837 0.0159431453508317 -0.202524662875853 -0.126508751658124 -0.186413110355017 0.211411162138231 0.212310019338742 0.201362524847731 0.00937115195773379 -0.145135613101329 0.0843218556864128 0.250213973878497 0.0501768520252264 -0.00907958900997067 0.204656106294685 0.0526584795135947 -0.258090801451399 -0.262729583376921 -0.128577203082069 -0.277090472660262 -0.278857848059666 0.323177987221492 -0.054138919948533
-0.00660824592893091 0.210574525602057 0.0411381435343866 -0.40938343211012 -0.0499068863328532 -0.374453213949403 0.439106654840416 0.385643420453366 -0.238618818835974 0.355987560591072 -0.0745789224037535 0.201222656908064 0.0828036200545422 -0.326136296989536 -0.0353480222084382 -0.325718750051999 -0.330058769944628 0.141782639202053 -0.156285710416711 -0.249789999186379 0.454487243110378 0.274444037544455 0.119913361238353 0.0776889271798935 -0.0939323772247175 0.319470458379566 -0.329549691781867 0.342677223516337 -0.00889806922062256 0.0656173469678775 -0.0161470337261193 -0.126409764237587 0.285878755832653 -0.0613102371786995 0.336036324594138 0.127505567838439 -0.125759789694425 -0.156182352123059 -0.0118278397583304 0.0521013217465729 -0.00257521559505766 0.225781050277984 -0.00207333651742661 0.0446572106120178 -0.0950536347337078 0.133592137205631 -0.0408918319788689 -0.203669060301332 0.195112947624382 0.224497556243387 0.16624153093107 -0.0743081853808306 -0.0215401769291874 -0.214898604663327 -0.0474694817959975 -0.415028286182553 -0.241668402719059 -0.20072052072025 0.0848306767389906 -0.197464477360045 0.0365006471597804 -0.136217489286416 0.137387854840399 -0.0835343271952325 0.145365469605121 0.057051978324332 -0.323190585620469 -0.1668521676162 0.0843725063925057 0.175379741062813 -0.160536513075765 0.0699568526401402 -0.16126439200444 0.394613480525288 -0.193561030558511
0.026272546961399 0.245705546815863 -0.00996250537912283 0.971208520287739 -0.163260595466903 0.30023450291233 -0.354770658093926 -0.0417156130058821 0.240205445776579 -0.394139369347444 0.209632473890766 -0.377352131265125 -0.19300233013039 0.0456604545469134 0.120908120537203 -0.0573057460751629 0.0275853515568826 -0.0815023854173031 -0.366953567015274 -0.174430233156209 -0.380775810464784 0.256131364745135 0.00567159353148731 0.184624909030773 0.288664030447395 -0.64353701839424 0.233160626756553 -0.207778195249436 0.0930790285266348 -0.227063515871849 -0.0272246259698353 0.0556844092598241 0.251450416749566 -0.0342583892519831 -0.324420343626775 -0.0837916944886283 -0.0332201783321705 -0.0549004803112088 -0.237481877605808 -0.28082936894454 0.114749817428894 -0.0538614980608466 0.274654867894689 -0.0412178476911825 -0.0403076776426098 0.215609514319909 -0.166248472906017 0.0593520860233522 -0.242053039553145 -0.000574384149297006 -0.0558587299640422 0.178681807145813 0.207690006456594 0.079410279856502 -0.0726274561131697 -0.074433140929872 -0.0229226583843217 0.0194853523449521 0.211503464694004 0.123842776168392 -0.222532977333459 -0.0846838668243761 -0.206438136974532 0.0873357012540312 0.179046646495792 -0.258334799015268 -0.161311443167968 0.338641107860266 0.261116731197628 0.277107699042538 -0.288478911115482 0.0696791736422705 0.052855940134302 0.323251006513524 0.111667837662724
-0.0451850578181533 0.0330052342190048 0.0507486650726913 0.557795400276128 0.185276683345217 0.225389471468951 0.18462465192059 -0.139174256393361 -0.0160367334575211 -0.424418464293845 0.0636039171231394 0.0873251597365195 -0.119112720127829 -0.110711387781173 -0.0347075607420556 0.134282735157741 -0.0107860292959529 0.0303783394771214 0.185857495249094 -0.58861082706471 -0.701680943666676 -0.029324701946316 -0.398842943039135 0.0132851402767796 -0.517593137808635 0.225805218635206 -0.124983316941123 -0.40759394523496 0.0877895007274015 0.148340234424891 0.00944005748683477 -0.0781833500622113 0.420536100527334 0.0149291027882411 -0.0133447898392849 0.117901216944531 0.136767962188674 0.0516799181562874 -0.126650419369074 0.315782469911564 -0.207231578999926 -0.064382189647724 -0.0602458010201993 0.190127581171889 0.220139795748116 -0.237948532588338 0.195528694790637 0.16675215175493 -0.204138029275512 0.0069113788349386 -0.0985955846176449 0.0175210305452076 0.071447577482407 0.0811758554846231 0.00351829574708157 0.192913627117181 -0.121393287452925 0.248767729097926 -0.110183540575038 -0.0730084934046908 0.139245990134477 0.117402423189099 0.0363643787626777 0.0238176589320848 0.267813165919401 -0.191844048755017 0.215443164031371 -0.303076084657196 0.296380421265973 -0.24802699466009 0.252930857184505 -0.38346929674412 0.105793384196682 0.0179092669218587 0.042034686743249
0.182558771598476 -0.0226326380976578 -0.306155493321534 -0.613253295464541 -0.302170799702104 0.0239649830670656 -0.0426491800811272 0.28773766245728 0.153714608584584 0.417018061890436 0.062255117102006 0.00365610680528354 -0.125383894606568 -0.0529114759338759 -0.080091107621649 -0.0725233264889686 -0.023833599763444 -0.0956470450365625 -0.392956148284299 -0.147214863152969 -0.18184837616226 -0.249637789957917 -0.1997609855165 0.351644969596611 0.72093515395692 0.0199610061838954 0.572151147355805 0.111808734043125 -0.129302253798729 0.0694745139364333 0.0291843197862819 -0.0148985066764388 0.475158387620307 0.02102338546093 0.046017837701579 -0.116002972461873 -0.206516555580412 0.0495284201431642 -0.184101175587569 -0.135009585645683 0.16583735372306 0.166397082591914 -0.200937264604698 -0.157340119278066 -0.327131313398569 0.156496283656762 0.0922539619487055 -0.35442998710117 0.177544865915647 -0.154931768191913 0.126422619746747 -0.084509546120158 0.103084985526721 -0.0333582465005557 0.0368621440773774 0.211689869576833 -0.0770014145499829 0.182714066149137 -0.0170901138781432 -0.177092351993192 -0.0040014057813381 0.00247802794580329 -0.201607807962516 0.168154173583989 0.25242306457266 0.0278902842341728 -0.146116231340102 -0.0992748697216927 -0.0977103542568439 -0.0437043602730318 -0.0130336865175976 0.280105603778797 0.112897852779214 0.0411283733474245 -0.0184026613634437
0.0747794683466594 -0.109141473002477 -0.128639937966773 -0.132972758774272 0.150903622951521 0.0438306013729892 -0.375332016555623 -0.208328153931328 0.226388344530732 -0.268853176610496 0.0554118724656187 0.0301394841169169 0.235596745742493 -0.0879044289792975 -0.23435361800666 0.0854639391202433 -0.200172104699457 -0.125607837576147 -0.0246704934098011 0.114453883608016 0.51670919299875 -0.382549099398402 -0.143036565565581 0.172035508909767 0.473152928191249 -0.0872372280538607 0.1927678456433 -0.193400850914369 -0.176540336429835 -0.102473577511041 0.217410056932948 -0.12810746277734 -0.291911846281737 0.0663092304709026 0.055327540325525 0.19371221134624 -0.308106702501934 0.235336036016715 0.105681541266985 0.186247017176661 0.130135290792338 0.228749130232991 -0.256168902831884 -0.0385287322849616 -0.124263922648494 0.185502426086077 -0.178768710387739 -0.206523497555359 0.269463041965076 0.170938162647815 0.0822811721622542 -0.181498192092724 -0.172651287798561 -0.155351114900733 0.0439072202075865 0.216622014221401 0.0839770709307246 0.036020108227356 -0.0343278090014505 -0.219182574536015 0.147237745959275 -0.0524440496207954 0.159416026897324 0.258388792153742 0.362898425205644 -0.142382991479854 -0.131305656346322 -0.0713848425977031 -0.0785679868962974 0.185722512402907 0.205981509289146 -0.031710427336346 -0.210343383547348 -0.00943568661372015 -0.1947190548237
0.0539293751492147 -0.13417140644841 0.145953737704311 -0.46620555393066 0.0125724308489142 0.0728711965668553 -0.000509078162760999 -0.0908707091630216 0.00447217452680041 -7.61046142309373e-05 0.0114185203466559 -0.129525682547941 0.0956583578846239 0.0611986513591853 -0.267410788482673 -0.0358660992276117 -0.232918171853783 -0.12038207310235 0.160939147622676 0.199959731688123 -0.317246198184593 -0.164036811110022 0.205451348091362 0.42273336415307 0.337493882222771 0.0961712927001331 0.270264197295967 -0.166612283815263 -0.102251691422928 -0.248004111853784 0.314295344611862 0.0979348114467885 -0.0631508889803187 -0.0824135839066087 0.0627261429576515 -0.0512294611152989 -0.181309730328429 0.0766730848460204 -0.100991851525187 0.308203890151188 0.004492229121091 -0.0598431664732883 0.177998665389017 -0.144829137762939 -0.153370338049263 -0.229936207948883 0.0975445181886717 0.199173231637676 0.126532920015346 0.208633600828985 0.326478510643392 -0.0551424209936119 0.245007492668441 -0.0357455145516849 0.113961003386798 -0.259706224732524 -0.10854703425889 -0.437852985587071 -0.208571380164647 -0.0563585521602076 -0.0472365399700068 0.0765944091299573 0.104042978069371 -0.0466541854050302 0.0741786018484915 0.0614439344739701 0.0237310128003422 -0.224469274123233 -0.24007586224424 0.0397960283780167 0.0454722498928018 0.170310556690593 0.161312214498518 -0.178240863181603 0.174137898877896
-0.355303647503726 0.0681123441857728 0.0849767153230553 -0.316154765456856 0.00660233239471702 -0.177875766721441 0.202333372899542 0.0892421732625528 -0.0199617775144451 0.190857774092213 0.0407514498188348 -0.220675613369931 0.639474677499481 -0.202573513810663 -0.0846069908795956 0.0964888237764007 0.0195432021361749 0.25027028100862 -0.231433360545731 0.00260478326612711 0.515743487150603 -0.0967857860380112 -0.00619327009322573 -0.258920496012626 -0.149793678290592 -0.239522818240149 -0.38271622101749 -0.0483590830299132 0.0390308684727759 0.267135166366269 0.0935526254841125 0.0481731923674504 0.111609473651135 0.243734797261539 -0.109645666071757 0.157214906618841 0.055712177159611 0.0450300203776761 0.176231547099797 -0.267401018295711 0.000737906225820236 0.157233418552032 -0.239417660175215 -0.258012125735336 0.0490998174677487 0.329660249160649 -0.21469883005097 -0.140931347385436 -0.0714228949048186 -0.00545099299429088 0.183357098717351 -0.00929761844533498 -0.181932708302353 -0.31809826133176 -0.264445793849865 0.0162722463853439 -0.0811426882709887 -0.261402637721361 0.205378071689146 0.144121313428555 0.211529689932692 0.0642343512923767 0.105919882406823 0.127856266128341 0.0833093557849214 0.0187492458904143 0.29718209081723 0.207369390058128 0.0176948370290593 0.171395047443384 0.00519028326851328 -0.154995788627533 -0.348560161618426 0.276448211422597 -0.399431725358692
0.0290678488732866 0.112044246970948 -0.141307242473293 -0.533910635586224 -0.00213272896974873 -0.0798635651095058 -0.161497590940614 0.0284921791730736 -0.0629467434948479 0.36466760037633 -0.224748752892385 0.286805380932951 0.423670016550513 0.0341887123923325 -0.113616732851476 0.463538550000196 -0.254436494417398 -0.432449300866491 -0.26381793078246 0.190504504700479 -0.296919324209986 0.0465467133484474 0.531244402986309 0.146280781857358 0.0398567063812548 0.57596589114413 0.13693251270593 -0.143089016042956 -0.0324707021481057 0.0395777418324691 0.282295668319402 -0.227475149275172 -0.00587239658457637 0.108701043258634 0.135109344396769 -0.0541844284509616 -0.130742585045086 0.0632732734275279 0.0360851571037088 0.230068362583055 0.0811881967734173 0.263524825173598 -0.189366792139763 -0.156283139314879 -0.205137673667842 -0.168024332941466 0.0983963242256551 0.121562980173846 -0.0889814635367752 0.0441702439250131 0.389057586576246 -0.154055536687524 8.97314539412064e-05 0.274564365110198 0.166584001695109 -0.12479176985463 0.125101844735584 -0.355599067104238 -0.112015450630428 -0.113828077422077 0.134772015836394 -0.235264045165415 0.121649369195405 -0.086093601958931 -0.176163155791062 -0.211674700076023 -0.0643935024957854 -0.2318534785851 -0.131956659330216 -0.0715985011599528 0.00625857607976174 0.0171495063304654 0.121402029199154 -0.123290503494851 -0.108535207190462
-0.137573231282496 0.235462534226856 -0.129574019262385 0.185220376215093 0.148461590431367 0.514660539058912 0.304644970995159 0.0420364865145315 0.0651571197399269 -0.257893597940875 -0.19992502181339 -0.46422477707919 -0.0392992915040499 -0.224666734743941 0.0924609356461917 0.0309439818801892 -0.196801133087356 -0.133783170071758 -0.165344216391658 -0.442589726492397 -0.40084248893398 0.0118712913792934 0.098642892891356 0.0103466279928425 0.158482459822079 0.492115832643913 0.0696866298375837 -0.0740366770273581 -0.000878545496037543 0.0164702212264176 0.131173244601967 -0.00818047469927612 0.00627194580928879 -0.0749411906519001 -0.0681398549753765 0.100335963447811 -0.0869356378089523 -0.0697984727672812 0.290153469738746 -0.292433779953659 -0.283040516520169 -0.21078766994394 0.035719032202814 0.0610364148335781 0.227893724653442 0.16044729584219 -0.0382628803555198 0.134248539503373 -0.360930246753151 -0.075607363136604 -0.0560199380489166 0.312577334367635 0.262280411886849 -0.0196478459807424 0.22419853710031 -0.11547692502702 0.18169231028105 -0.117440475496214 -0.0955205468264219 0.238399503849693 0.0172729192184074 -0.0984714003991532 -0.133761572816369 -0.239182661467759 0.150157489199838 -0.120577476841592 0.210727506161068 0.0352022407345567 -0.136884433101669 0.0667203496538596 0.134148780752287 -0.185009031644492 -0.00398829316199425 0.257815179334995 0.0433348929397552
0.0730331759822792 -0.0419179587200705 -0.0463543949314043 -0.273450049576155 -0.239228941300737 -0.0379916291122304 -0.245876010867333 0.343013780746163 -0.177165885505591 0.71568907777865 -0.141402887461448 0.151495747703459 -0.0506617618307654 0.143867802787907 0.183236771151608 0.172494193476618 -0.00361471206578631 0.137472958311043 -0.0238533972475514 0.0716908037157261 -0.369783321691712 0.151583422275935 0.0953194866631496 -0.0304302757341303 -0.245385701747947 0.175947183237163 0.0178462749269716 -0.0948782855887568 0.0668849001711157 0.0514878568494276 0.0111642383754586 0.280188650367974 0.286434113828392 -0.216560564887613 0.17773641300214 -0.121021763238183 0.177526353982455 -0.168748355217393 -0.159477219120929 -0.314031806674069 -0.224316807784588 0.00389933303860268 0.108882563047982 0.073538397492292 -0.0872115170355395 0.0187677578236056 0.12555692975987 0.0900839520023909 0.0755685394989389 0.128048841655567 0.280869221022938 0.0736502404219895 -0.0827830512398852 -0.277843805497075 -0.342711419170705 -0.293789007729373 -0.279616580210326 -0.0436136003783577 0.129797448011596 -0.0825549945073756 -0.0157765379521099 0.203180808063411 0.123745331408954 -0.22652101338527 -0.442740650169943 0.355037538464101 0.130415283781856 -0.116189891565068 0.00964446008248881 0.263903034253103 -0.121934504388588 -0.139562749880195 0.120642011497578 -0.138104678031196 0.117760577674314