-1.48441827406798 0.0716081827125361 1.99341697821384 0.0716081827125361 -1.22701588756075 -0.0812849641601761 1.99341697821384 -0.0812849641601761 -1.10895915389955
0.386157972827661 0.641675437435019 1.13926207903882 0.641675437435019 0.0192118394441622 0.720443979156084 1.13926207903882 0.720443979156084 -0.914483557542122
-1.45098240644606 0.201525334228619 0.195767467536373 0.201525334228619 1.86938738608262 1.07672107145005 0.195767467536373 1.07672107145005 -2.23789085438638
0.473356461549985 0.50210280536881 -0.565344761770225 0.50210280536881 -0.22613790470809 0.09965399190526 -0.565344761770225 0.09965399190526 -1.53697118284651
2.47292248230514 0.428486179917674 1.88303343640951 0.428486179917674 1.12789859915549 0.0365077911140619 1.88303343640951 0.0365077911140619 0.220968209374585
-0.0133955679551007 -0.845834433736358 -0.319579978357402 -0.845834433736358 3.42352443881074 -0.409521648913078 -0.319579978357402 -0.409521648913078 2.12606799973098
5.02722373141247 0.431124852923581 -1.74182139239215 0.431124852923581 0.255980381423376 0.49463878214893 -1.74182139239215 0.49463878214893 0.190541787676047
2.79045176584067 0.115228565691975 0.3130376034632 0.115228565691975 -1.13692184816082 -0.693291870246719 0.3130376034632 -0.693291870246719 -0.12291047007144
-0.930044927978018 -0.574725049439443 -0.687340092910685 -0.574725049439443 -2.82508428018375 0.0582491604161598 -0.687340092910685 0.0582491604161598 -2.36297427421555
0.567315056717123 -0.903150391295486 -0.277016716657859 -0.903150391295486 1.80630078259097 -0.576801930575269 -0.277016716657859 -0.576801930575269 1.03596662530953
-3.09975841772063 -0.721677501586971 -1.38385499639417 -0.721677501586971 1.737016326958 -0.439532308147384 -1.38385499639417 -0.439532308147384 0.871387196065119
-1.43279819290695 0.0326947238649908 -0.234632724207581 0.0326947238649908 1.91552617467828 0.900066515812687 -0.234632724207581 0.900066515812687 -0.592351467671597
3.97265383189893 -0.203532549262374 1.52649411946781 -0.203532549262374 0.563483631754165 0.648288860613488 1.52649411946781 0.648288860613488 3.52978208118914
-6.97419961590791 -0.612532075839413 0.452997998209212 -0.612532075839413 -3.70670535925973 0.319068155260402 0.452997998209212 0.319068155260402 1.47913694197878
-1.82673420895295 -0.643378086172109 -1.09718941481136 -0.643378086172109 -0.103400049563375 0.202970467661439 -1.09718941481136 0.202970467661439 -1.4495155096199
2.93736085735049 -0.0866762220201784 -0.473830013710309 -0.0866762220201784 -3.3341453403762 -0.728080264969499 -0.473830013710309 -0.728080264969499 -1.01314872850253
2.94650310366082 0.696068915013343 0.677205258779919 0.696068915013343 -0.665887065039865 -0.558364224509348 0.677205258779919 -0.558364224509348 -0.535727837029239
-2.12712766411377 -0.963703235245711 -1.25843742389229 -0.963703235245711 -0.151245175752848 0.0523540992990628 -1.25843742389229 0.0523540992990628 -0.816336140922423
-0.934073203647636 0.180664364491518 -0.716891573992939 0.180664364491518 0.582354281286489 0.607339778503401 -0.716891573992939 0.607339778503401 -3.69016574280548
-2.01776468213959 -0.221858486377434 0.623498849646926 -0.221858486377434 1.30246232088821 0.405465509586345 0.623498849646926 0.405465509586345 -0.0631149142280631
3.08508403232843 0.59473774185034 -1.05164737209727 0.59473774185034 3.79310515357883 0.00377611264666882 -1.05164737209727 0.00377611264666882 0.67592416375372
6.4829902131599 0.663295262022588 -1.63228312306428 0.663295262022588 -0.651759692248282 0.755579820217035 -1.63228312306428 0.755579820217035 0.551784754204298
2.76621823852793 -0.541382960929048 1.22241594358184 -0.541382960929048 0.409384995190163 -0.197040441610219 1.22241594358184 -0.197040441610219 -1.16119949570294
1.88605454889933 0.00569231755201006 0.144205377984255 0.00569231755201006 1.33769462472236 -0.168872087376298 0.144205377984255 -0.168872087376298 -2.88221012050109
1.18728339092239 0.857696605455298 0.0867333645966032 0.857696605455298 -3.73338949385823 0.674592835751358 0.0867333645966032 0.674592835751358 -2.71379060782261
-0.083883415008823 -0.943688418849259 -0.209708537522057 -0.943688418849259 2.9206679953072 -0.573838816310357 -0.209708537522057 -0.573838816310357 2.44405768275707
-5.61486882545328 -0.260177908095961 -1.14975678504171 -0.260177908095961 -1.50750140867366 -1.00053710245726 -1.14975678504171 -1.00053710245726 0.669575498776371
0.90807962138003 0.673364126023328 1.24860947939754 0.673364126023328 -0.744548333631508 1.16780578427474 1.24860947939754 1.16780578427474 -1.26015286441508
1.636298621054 1.06673716855674 0.083815063243744 1.06673716855674 1.25532106085517 1.08197627096469 0.083815063243744 1.08197627096469 -0.0666710730347963
2.79287992191878 -0.0827092538860245 0.0192347102060522 -0.0827092538860245 -2.36202241330321 -0.750153698036036 0.0192347102060522 -0.750153698036036 -0.813628241716009
1.98314008689846 0.0493412844587178 0.0835006352378301 0.0493412844587178 1.37586273971425 -0.148023853376153 0.0835006352378301 -0.148023853376153 -2.71377064522948
5.00074094546418 0.0169516642219125 0.956827269414616 0.0169516642219125 1.83643029070719 0.440743269769725 0.956827269414616 0.440743269769725 1.52188274347837
2.36315887240289 -0.809846579868406 0.891400216716981 -0.809846579868406 -0.874330850864954 -0.0929332140832597 0.891400216716981 -0.0929332140832597 2.41436696995897
2.22177702469693 0.273943595732189 1.72867855237899 0.273943595732189 0.117134503002729 0.326843048701164 1.72867855237899 0.326843048701164 2.06307866579
2.13779394264895 0.446561401353336 -0.0171023515411916 0.446561401353336 1.63042418026026 0.00380052256470924 -0.0171023515411916 0.00380052256470924 -0.383852779035633
2.71744554868492 -0.532869643531376 0.0132743327570094 -0.532869643531376 -0.0549936642790388 -0.290138987403205 0.0132743327570094 -0.290138987403205 2.89380454102804
2.94612105845303 0.489445384310029 -0.546137899867176 0.489445384310029 -1.27936110107293 -0.619838170091466 -0.546137899867176 -0.619838170091466 -0.565035405052891
0.0964666647818308 1.20583330977288 -1.14795331090379 1.20583330977288 -0.347279993214591 0.227661328885121 -1.14795331090379 0.227661328885121 0.109971997851287
-0.880222525339199 -0.109547344856625 0.217172806470152 -0.109547344856625 1.6182256906891 1.42027171664993 0.217172806470152 1.42027171664993 0.593861922117495
-2.9369082463271 0.0114648337527408 1.21909398904144 0.0114648337527408 2.71525479377411 0.152864450036544 1.21909398904144 0.152864450036544 -0.0515917518873335
3.04236408253549 0.506430791378578 -0.623590153563175 0.506430791378578 -1.30387032108664 -0.557451803942838 -0.623590153563175 -0.557451803942838 -0.330691748101684
-6.11000359567848 -0.372911017576621 -0.667415103252517 -0.372911017576621 0.382472838540124 -1.90089000754442 -0.667415103252517 -1.90089000754442 0.539286702341575
-4.18290891646745 -0.284368635570593 -1.39494344205575 -0.284368635570593 1.02026855059449 -0.049956652194834 -1.39494344205575 -0.049956652194834 0.549523174143174
2.14698105598521 0.146169355712521 -0.0265762464931856 0.146169355712521 1.4749816803718 -0.108203289293684 -0.0265762464931856 -0.108203289293684 -2.26847246852549
-2.37693069800161 -0.0696820074332719 -0.696820074332719 -0.0696820074332719 -1.75172824241975 -1.71882285002071 -0.696820074332719 -1.71882285002071 -0.414220821964449
-7.72861815872529 0.173519943176542 -0.69208529060069 0.173519943176542 -4.01090351411524 0.841671448511502 -0.69208529060069 0.841671448511502 -1.88079662546528
3.1045794281509 0.523413573705294 -0.691586165978836 0.523413573705294 -1.33782241943447 -0.498849037755226 -0.691586165978836 -0.498849037755226 -0.113374781308006
-1.60271138335412 0.219338652703925 -0.429057189061188 0.219338652703925 1.5603828714288 0.671484120997105 -0.429057189061188 0.671484120997105 -1.30833582314622
2.42169160661117 -0.802173492244732 0.762349276317689 -0.802173492244732 -0.946299226075937 -0.130850995188857 0.762349276317689 -0.130850995188857 2.55443899303464
0.513336151035166 -0.139306836526272 0.255713919103019 -0.139306836526272 0.0190831282912701 -0.257622231932146 0.255713919103019 -0.257622231932146 1.60298277646669
1.62523448294971 -0.255912362767639 0.513734519287276 -0.255912362767639 -0.61686338189513 0.0190979375199731 0.513734519287276 0.0190979375199731 0.687525750719031
0.32470123233994 -0.0320925636615057 0.403988742562483 -0.0320925636615057 -1.87647107526686 -0.43796910408643 0.403988742562483 -0.43796910408643 -0.685270624066268
2.6280455287742 -0.52637474174283 1.38580113826112 -0.52637474174283 1.04126494366582 -0.344536194595307 1.38580113826112 -0.344536194595307 -1.42599702763058
-3.07208542485306 -1.02920687431866 0.151468181503501 -1.02920687431866 -0.749573308466043 -0.0543731933602311 0.151468181503501 -0.0543731933602311 -0.483533040953483
-0.37277106334368 -0.051880508815873 0.474610580648912 -0.051880508815873 1.05106067860306 1.61598177459812 0.474610580648912 1.61598177459812 0.774364631585067
-3.9911691601186 -0.378172004967506 -0.996822618222042 -0.378172004967506 -2.38733199033333 -1.45062902418305 -0.996822618222042 -1.45062902418305 -0.560470304797997
0.529778857574502 0.61201889683697 0.110928425051701 0.61201889683697 2.12102798935062 1.24890106135794 0.110928425051701 1.24890106135794 -1.42103137609334
1.36112393895194 -0.036424443436742 1.35920686298158 -0.036424443436742 1.70428053764545 -0.302898003316065 1.35920686298158 -0.302898003316065 -1.20008955744213
-0.443366008327663 0.244815143728753 2.71995407717536 0.244815143728753 0.156141942063221 0.325777632205979 2.71995407717536 0.325777632205979 0.817335597960562
-6.68053561426678 -0.725247908697982 0.562116265278111 -0.725247908697982 -3.46703878304401 0.226025771003436 0.562116265278111 0.226025771003436 1.66669438096447
2.85144431237478 0.1791682923551 1.26942641179251 0.1791682923551 1.18365435694167 0.236349662255663 1.26942641179251 0.236349662255663 1.73831364497714
-5.12867029509959 0.265407733067328 1.3136728082757 0.265407733067328 1.86167294777442 0.173756141792279 1.3136728082757 0.173756141792279 1.07308738117869
-2.87094320431617 -0.756117394719632 -1.37214197265111 -0.756117394719632 1.7290907935086 -0.504717956373765 -1.37214197265111 -0.504717956373765 0.898129291189817
1.14905583304589 0.433498823340214 1.67531204653314 0.433498823340214 -0.441070855188951 -0.0548972309033459 1.67531204653314 -0.0548972309033459 1.02979633142828
-1.94802358983467 -0.302345508048996 0.267901083081389 -0.302345508048996 0.396110887127482 0.6391354410656 0.267901083081389 0.6391354410656 0.0516666374514108
2.98674508513962 0.989848978952221 0.0191090536477263 0.989848978952221 -0.590469757714742 -0.141406996993174 0.0191090536477263 -0.141406996993174 -0.460528192910203
-1.68426280852394 -0.771388489979893 -1.28887775335836 -0.771388489979893 -0.403137703306075 0.251961064566297 -1.28887775335836 0.251961064566297 -0.606644716994238
0.635666356117135 -0.28488705594274 -1.36241904984861 -0.28488705594274 -2.65119382673244 -0.486439803004271 -1.36241904984861 -0.486439803004271 -1.62792603395852
-1.62816126382962 -0.663538041560717 -0.859147522020813 -0.663538041560717 -0.625183241470502 -1.03366186243129 -0.859147522020813 -1.03366186243129 2.01362700473628
2.89404987427963 -0.103977839794478 -0.340816252659677 -0.103977839794478 -3.13088828714483 -0.74324900297534 -0.340816252659677 -0.74324900297534 -1.01474669577203
0.372614551136009 0.456262715676746 1.02469001562403 0.456262715676746 -1.46004069016559 -0.695800641407038 1.02469001562403 -0.695800641407038 -0.0418240822703684
1.18886215194484 0.399472973885003 -0.321107462261629 0.399472973885003 -1.14298965733604 -0.353600479276198 -0.321107462261629 -0.353600479276198 -0.26185549005859
0.552736015432438 -0.443320694971409 0.93757610808847 -0.443320694971409 -1.44880976058741 -0.418796571419799 0.93757610808847 -0.418796571419799 -0.390499505783326
1.49923346540946 -0.199517761556392 0.074106597149517 -0.199517761556392 2.19469537712031 0.00380033831535984 0.074106597149517 0.00380033831535984 0.505444995942859
7.18694173970061 0.238347359112831 -0.740030106922903 0.238347359112831 -1.3858745638738 0.811149883432377 -0.740030106922903 0.811149883432377 0.75156304365417
1.94850118849019 0.455469239986553 0.124734314685114 0.455469239986553 -1.29081116560504 -1.01866356992843 0.124734314685114 -1.01866356992843 -2.08268507246963
1.86764381401714 0.591993437980892 0.838339094431005 0.591993437980892 -1.55255053251118 0.028644843773269 0.838339094431005 0.028644843773269 -1.80080584521284
1.81495523698756 0.611909986247629 0.589246653423642 0.611909986247629 -1.23326302783858 -0.989632199980733 0.589246653423642 -0.989632199980733 -2.02459106560944
0.720446441930755 0.631835382228042 0.543224322525328 0.631835382228042 0.776309936091161 0.256201542183931 0.543224322525328 0.256201542183931 0.0789794227785052
1.31261809415862 0.398507076068302 -0.326738029193442 0.398507076068302 -1.95853951603236 -0.326738029193442 -0.326738029193442 -0.326738029193442 -0.0302185460525726
1.18258190795091 0.391646673877118 -0.231167061166494 0.391646673877118 -1.26855312904588 -0.431766577054774 -0.231167061166494 -0.431766577054774 -0.168121499030177
-0.0799692743837596 -0.974863535344879 -0.171362730822342 -0.974863535344879 2.60852156918454 -0.618809861302902 -0.171362730822342 -0.618809861302902 2.3533815032935
-0.343008816547075 0.237022946265676 2.70360320008734 0.237022946265676 0.387330180482933 0.304468500081112 2.70360320008734 0.304468500081112 1.02517241799463
-0.526456958770772 -0.223171971652827 0.139244050689371 -0.223171971652827 1.30660513318108 -0.869798453621275 0.139244050689371 -0.869798453621275 1.73578200174421
-5.63971347415382 -0.103130554556148 0.529021548371354 -0.103130554556148 -0.914806215414724 -0.645520878518114 0.529021548371354 -0.645520878518114 2.10080759281043
2.9703584185517 0.495700175929068 1.69652424552468 0.495700175929068 0.313174917350535 0.34199469502083 1.69652424552468 0.34199469502083 -0.511070724019892
-2.42503381185276 -0.381186199493444 -0.279664246864537 -0.381186199493444 -0.791105027089408 1.13015003869915 -0.279664246864537 1.13015003869915 0.0478877135042014
-2.94293559598046 -0.0734284652969516 -0.716893700662343 -0.0734284652969516 -1.24055459791166 0.600954018614525 -0.716893700662343 0.600954018614525 -0.722690684764734
-1.97898980913653 -0.321537996068604 0.155027248104506 -0.321537996068604 0.118662831882461 0.725374407797625 0.155027248104506 0.725374407797625 0.0842123323036821
-0.289725171915328 0.552588407361686 -0.527645180640499 0.552588407361686 0.170765167552743 0.249432267211872 -0.527645180640499 0.249432267211872 -2.53269686707439
0.0887037673343636 1.07987195015747 -0.76555207895092 1.07987195015747 0.285394729684474 0.0539935975078735 -0.76555207895092 0.0539935975078735 0.518724204629213
1.05333419973219 0.544960838252671 1.01482106628678 0.544960838252671 0.315807694252431 0.621987105143508 1.01482106628678 0.621987105143508 -0.56421740497538
3.7627981957381 -0.645965856425509 1.37479613758199 -0.645965856425509 0.116763507575456 0.350290522726369 1.37479613758199 0.350290522726369 2.9567533369914
2.75153869290564 0.529067790776242 -1.41728378988964 0.529067790776242 -1.45590187680761 1.15274989450152 -1.41728378988964 1.15274989450152 -2.94076731880371
-5.09016985594751 -0.937200433776296 0.609180281954593 -0.937200433776296 -1.95250090370062 0.0429550198814136 0.609180281954593 0.0429550198814136 1.55614322024939
0.656395927731665 0.0921257442430407 -1.11126678993168 0.0921257442430407 1.00186746864307 1.00762532765826 -1.11126678993168 1.00762532765826 -2.10161854054437
1.45182757256721 0.845294833364729 0.0192550075937296 0.845294833364729 -3.5101878843369 0.602681737683736 0.0192550075937296 0.602681737683736 -2.21047487176016
-1.48435515967804 -0.713411006977041 -1.1506629144791 -0.713411006977041 0.462182937315771 -0.909023702438487 -1.1506629144791 -0.909023702438487 1.37695995432665
3.56921685965223 -0.118785347151659 1.21236473362725 -0.118785347151659 1.94958807864786 0.369554413360717 1.21236473362725 0.369554413360717 0.839039356864893
3.39462976814897 0.566400962427525 -1.21776206921918 0.566400962427525 3.83264651242625 0.045312076994202 -1.21776206921918 0.045312076994202 0.549408933554699
-1.68204048056473 -0.753753601895025 -1.23324062600128 -0.753753601895025 0.922533034380425 -0.83238947384845 -1.23324062600128 -0.83238947384845 1.19296371597635
-0.681197842754092 0.258585016796171 2.69777502597796 0.258585016796171 -0.507521338935768 0.333844835117444 2.69777502597796 0.333844835117444 0.125433030535456
-2.10232476393154 0.342373108856189 -0.398152997377703 0.342373108856189 0.494325218966521 0.398152997377703 -0.398152997377703 0.398152997377703 -4.81822830159974
2.2876173008753 0.896498671964643 -0.98537569547838 0.896498671964643 -2.93680599436694 0.204803575922957 -0.98537569547838 0.204803575922957 -0.135247644477425
2.37758434229176 0.44603331063661 -0.168207477316349 0.44603331063661 -1.25872112238975 -0.873166904720821 -0.168207477316349 -0.873166904720821 -1.52898706908906
-5.70053388117695 -0.0515626180206961 0.593924970534684 -0.0515626180206961 -0.834550521297933 -0.521355359987038 0.593924970534684 -0.521355359987038 2.14080351115557
-3.57239544410658 -0.965985057519571 0.40038817273447 -0.965985057519571 -0.421768123705728 -0.0272108466906921 0.40038817273447 -0.0272108466906921 1.25169894777184
0.281248997239144 -0.117029784086087 0.524746451224711 -0.117029784086087 -1.81584923049702 -0.44735578755488 0.524746451224711 -0.44735578755488 -0.705953858841878
-1.56519796497083 -0.548206712978644 -1.27075478344166 -0.548206712978644 -0.788410361068227 0.399047996019791 -1.27075478344166 0.399047996019791 -0.410670753185416
0.729072683020891 -0.150776811410079 0.292010786654964 -0.150776811410079 -0.16795391650743 -0.177496752672625 0.292010786654964 -0.177496752672625 1.46577963497394
-5.83493596438328 -0.483695543574368 -0.370896978076788 -0.483695543574368 0.671055872705941 -2.11831882324269 -0.370896978076788 -2.11831882324269 0.542962586462927
1.36219057428902 0.242081822793254 1.07784049672234 0.242081822793254 -0.355437596958349 1.58890212261921 1.07784049672234 1.58890212261921 0.0345831175418934
1.43040849869328 0.0882021326271996 -1.26934373476535 0.0882021326271996 1.413151559701 1.29427042442086 -1.26934373476535 1.29427042442086 -1.26934373476535
-3.23608215466977 -1.08839453763174 -1.16211823180287 -1.08839453763174 -0.335636818200162 -0.382199151360879 -1.16211823180287 -0.382199151360879 -1.03019162118085
4.06619382914665 -0.373681479324704 -1.11526585839693 -0.373681479324704 -0.121350171120909 -0.720396253955873 -1.11526585839693 -0.720396253955873 2.18237688698397
1.87571101724068 0.349773980673979 2.06020718287091 0.349773980673979 1.57013924291561 -0.0538113816421506 2.06020718287091 -0.0538113816421506 0.859060271215761
-7.21239573838625 -0.410895183123621 0.229153082895865 -0.410895183123621 -3.85609325700629 0.478060741903443 0.229153082895865 0.478060741903443 0.965998771862743
-3.30583339491955 -1.04819107643791 -0.019197638762599 -1.04819107643791 -0.38587253912824 -1.08850611783936 -0.019197638762599 -1.08850611783936 2.7433425791754
0.683571330140333 0.207715045070267 0.032101416056314 0.207715045070267 -1.98084620253373 -0.387105311267316 0.032101416056314 -0.387105311267316 -0.441866550422204
1.42843393648901 -0.695272221076215 -0.54560871844673 -0.695272221076215 1.84142942475771 -0.409206538835047 -0.54560871844673 -0.409206538835047 0.12314085659388
0.985116394478348 1.13191805326336 -1.56652822729792 1.13191805326336 -1.94705357967485 0.938757975914662 -1.56652822729792 0.938757975914662 -1.96443798663624
-1.53032534426557 -0.661606821768947 -0.926249550476526 -0.661606821768947 -0.441071214512632 -1.01638149431172 -0.926249550476526 -1.01638149431172 1.87359381121235
-1.55219984439558 -0.66441026549774 -0.0935520201419232 -0.66441026549774 1.03861834606543 -1.28872680807751 -0.0935520201419232 -1.28872680807751 0.25010846201208
0.20844027110647 1.24485161910808 -1.32784172704862 1.24485161910808 -0.814461059323429 0.395650514600244 -1.32784172704862 0.395650514600244 -0.328100426741666
2.419352577723 -0.352940846632531 -0.0474382858377058 -0.352940846632531 1.03225709982848 -0.216318583419939 -0.0474382858377058 -0.216318583419939 2.14231298843079
-1.73969741151774 -0.204897695134312 -0.431058358631618 -0.204897695134312 -0.724873921465725 -1.67784150355267 -0.431058358631618 -1.67784150355267 -0.38659942478172
-1.60562384521346 -0.682102731379464 -0.973337605451595 -0.682102731379464 0.724255147363589 0.0977169643268334 -0.973337605451595 0.0977169643268334 -1.32013702786644
1.1309032182702 0.383324699616039 1.2624922942578 0.383324699616039 -1.00503540645598 0.0953544028895619 1.2624922942578 0.0953544028895619 -1.32924037628049
0.414654323484184 0.44508766832706 0.901587840970198 0.44508766832706 -1.53688391456523 -0.728498192176342 0.901587840970198 -0.728498192176342 -0.07418127805451
1.51225861440307 0.964946858622892 0.0553032784586242 0.964946858622892 1.55993385445361 1.17090389564122 0.0553032784586242 1.17090389564122 -0.417635102842714
3.12991729382249 0.727887742749417 0.14749304260975 0.727887742749417 0.593803158558735 -0.532507348642994 0.14749304260975 -0.532507348642994 1.34084584190682
0.602937611783182 0.481591677336252 1.51303212013515 0.481591677336252 -0.88544611541744 -0.348869561534923 1.51303212013515 -0.348869561534923 0.436086951918653
0.557174458427848 0.105671017977695 0.82807652269794 0.105671017977695 0.176758793708145 1.69457887011504 0.82807652269794 1.69457887011504 0.495693138877189
-3.32675891222192 -0.673798256312691 -1.39174853511881 -0.673798256312691 1.69889303942089 -0.374332364618162 -1.39174853511881 -0.374332364618162 0.83888842737506
-1.88961535606999 -0.626042777542944 -1.07978020346856 -0.626042777542944 -0.179963367244761 0.237398484450535 -1.07978020346856 0.237398484450535 -1.53543213330104
-2.3933589632492 0.687392719131107 -0.849132182456073 0.687392719131107 -0.069316912853557 0.348510034069273 -0.849132182456073 0.348510034069273 -2.19888651329895
3.26842360662163 -0.0980715681155944 1.23155257652852 -0.0980715681155944 1.87467574436348 0.34325048840458 1.23155257652852 0.34325048840458 0.716676843921651
-5.90357294171297 -0.252518350066789 -1.09042014801568 -0.252518350066789 -1.10381127264044 -1.1860710381925 -1.09042014801568 -1.1860710381925 0.682947355862453
1.83880845042474 0.468678823952042 0.215441072300535 0.468678823952042 -1.30209560364095 -1.04885785198945 0.215441072300535 -1.04885785198945 -2.20165657219407
2.03213212034906 0.645545729960511 0.723851572943886 0.645545729960511 -1.49736050973089 0.0114593916561037 0.723851572943886 0.0114593916561037 -1.70935925536881
-4.20159403938795 0.196710993662254 1.39798492583272 0.196710993662254 2.69665944709808 0.158514684213272 1.39798492583272 0.158514684213272 0.435437927718387
-5.4137198022956 -0.313285126173775 0.299913200056601 -0.313285126173775 -0.844341620541515 -1.18246032379004 0.299913200056601 -1.18246032379004 1.73452984491334
-0.732179848757409 -0.0980083262116216 0.301711906180874 -0.0980083262116216 1.4489858424228 1.49510740769886 0.301711906180874 1.49510740769886 0.691823479140859
-1.7717301533102 -0.036790025041414 1.74655803091344 -0.036790025041414 -1.06303809198612 -0.21105856471127 1.74655803091344 -0.21105856471127 -1.04367492091169
-3.30188367095164 -0.853600949012175 0.638260709602286 -0.853600949012175 0.213400237253044 -0.481120534897772 0.638260709602286 -0.481120534897772 0.234740260978348
-2.75986918632735 -0.974985454986861 0.0174798189141071 -0.974985454986861 -1.23135613239377 0.0504972546407538 0.0174798189141071 0.0504972546407538 -0.941968019260215
2.88149518671344 0.263167660996992 1.14611423376226 0.263167660996992 1.03169351158966 0.23456248045384 1.14611423376226 0.23456248045384 1.71821784462529
-2.07821804610869 -0.228333081416039 -1.08361462366934 -0.228333081416039 -1.31775278342646 0.536002233493582 -1.08361462366934 0.536002233493582 -0.315409256532324
2.88281791703698 0.614022838324018 -1.31300481151048 0.614022838324018 -3.46594652450193 -0.177641827439653 -1.31300481151048 -0.177641827439653 0.0559957934320645
2.11866664357208 -0.279071681545785 -0.0113906808794198 -0.279071681545785 1.56621862092022 -0.142383510992748 -0.0113906808794198 -0.142383510992748 1.54913259960109
-2.00262582585801 -0.784553604191501 -1.29480118051165 -0.784553604191501 1.31781986816519 -0.73851622888442 -1.29480118051165 -0.73851622888442 1.05694140809173
2.69808700606399 0.698106428142432 0.677351912711171 0.698106428142432 -0.803765779428854 -0.647163526629336 0.677351912711171 -0.647163526629336 -0.833954165510689
-5.66780641385577 -0.519947165115942 -0.23321159611818 -0.519947165115942 0.58302899029545 -2.11993164012346 -0.23321159611818 -2.11993164012346 0.625083540415122
0.681958413957154 0.482734607632592 -0.559359148526654 0.482734607632592 -0.377375863903256 0.034481043402328 -0.559359148526654 0.034481043402328 -1.24131756248381
-0.766831037258886 0.322069035648732 0.18595652653528 0.322069035648732 2.08961457653046 1.15791486626092 0.18595652653528 1.15791486626092 -2.05702425744696
1.84564650838775 0.975970143178861 -0.641627896109667 0.975970143178861 -2.78682959695825 0.421309883590083 -0.641627896109667 0.421309883590083 -0.697673706312018
-4.92263539500526 0.257779588179096 1.35191072911704 0.257779588179096 2.12143053679241 0.177581494078933 1.35191072911704 0.177581494078933 0.905092776273271
1.67588306959522 0.530916733434337 0.440226330570108 0.530916733434337 -1.3093426913523 -1.0731697672267 0.440226330570108 -1.0731697672267 -2.31071588964482
-2.78056039406913 -0.390926478559685 -0.40817323496673 -0.390926478559685 -0.825928001270707 1.29350673052837 -0.40817323496673 1.29350673052837 -0.20312846434964
-4.29475399439058 0.221180792366734 -1.31554488677257 0.221180792366734 0.00769324495188639 0.175021322655415 -1.31554488677257 0.175021322655415 -0.171174700179472
-0.770587152484806 -0.849572335614498 -0.196499723883625 -0.849572335614498 2.56798168565561 -0.184940916596353 -0.196499723883625 -0.184940916596353 1.30999815922417
2.26215025855906 0.341886688950991 -0.117760970638675 0.341886688950991 1.64865358894145 -0.0379874098834435 -0.117760970638675 -0.0379874098834435 -1.15671663095085
-3.83377109231127 0.548506406279474 -1.19324200664307 0.548506406279474 -0.533109735226015 0.263667991790484 -1.19324200664307 0.263667991790484 -1.01810487340997
-0.938556082817608 -0.402510840395356 0.118273327509536 -0.402510840395356 1.80080679304842 -1.22088596138876 0.118273327509536 -1.22088596138876 1.27620735651419
-2.42914117050134 -0.145052219576115 -0.955410619608013 -0.145052219576115 -1.37896310077027 0.564736641549676 -0.955410619608013 0.564736641549676 -0.413882333190516
-6.01235488955651 -0.858068244257331 0.642571653233801 -0.858068244257331 -2.85239124118419 0.117543595103744 0.642571653233801 0.117543595103744 1.71809554843306
1.30586787501325 1.07620215862284 0.447943050149893 1.07620215862284 0.474515942955395 0.643443618647515 0.447943050149893 0.643443618647515 0.476414006727216
1.64661027732555 0.270339000754941 -0.086962196047044 0.270339000754941 2.69582807745836 -0.215515007594848 -0.086962196047044 -0.215515007594848 -0.41401567248484
3.21501649626368 0.376307453044068 -1.41260028527312 0.376307453044068 -0.860682687475151 1.00348654145085 -1.41260028527312 1.00348654145085 -2.45082289931265
-3.25740407527235 -0.139519984187751 -0.885564344080585 -0.139519984187751 -2.36796417607544 -1.64711092443872 -0.885564344080585 -1.64711092443872 -0.428248840354068
2.08694158658391 0.376648757799674 1.99854442914113 0.376648757799674 1.45086638846303 -0.0365118693785399 1.99854442914113 -0.0365118693785399 0.65144861680658
1.139800564989 0.550646894572386 1.15520327532668 0.550646894572386 0.00577601637663343 0.806716953936468 1.15520327532668 0.806716953936468 -0.850999746157325
-2.41656754719511 -0.317816421603847 1.26545197138605 -0.317816421603847 -0.517420637611141 -0.428277007161282 1.26545197138605 -0.428277007161282 -0.61237798309034
-0.568145465726172 0.564306645011806 -0.499046692867583 0.564306645011806 0.274475681077171 0.282153322505903 -0.499046692867583 0.282153322505903 -2.87911553577452
2.81892222765357 -0.101981486734225 -0.0904364127643124 -0.101981486734225 -2.63997358111993 -0.754278166034265 -0.0904364127643124 -0.754278166034265 -0.913985022618051
1.89339091496997 0.822711991479336 -0.0249889156290452 0.822711991479336 -2.89679198869009 0.488244966905961 -0.0249889156290452 0.488244966905961 -1.24560133289395
-0.685280690372186 -0.522211064334612 -0.792052469325359 -0.522211064334612 -2.90807499767007 0.00582391521562764 -0.792052469325359 0.00582391521562764 -2.39362915362296
2.53441072624844 0.451695871419372 -0.268371605613183 0.451695871419372 -1.25492074737432 -0.812674580377949 -0.268371605613183 -0.812674580377949 -1.30027932860472
-5.73172841975101 -0.890384578691263 0.643816541515221 -0.890384578691263 -2.58309372279663 0.0900169024610948 0.643816541515221 0.0900169024610948 1.68096780900175
2.42646638924167 0.853899796214028 -1.07993209521186 0.853899796214028 -3.02535538658635 0.129437299426108 -1.07993209521186 0.129437299426108 -0.021250899905779
2.80878781675953 0.156672976338065 1.69508834640461 0.156672976338065 0.334109841106477 0.477569433897959 1.69508834640461 0.477569433897959 2.59548605379325
-3.42334215840781 0.091696664957352 1.33151198906822 0.091696664957352 2.86170008554403 0.13945534462264 1.33151198906822 0.13945534462264 0.087875970584129
-3.68085607656372 0.129890095073343 1.36575614672707 0.129890095073343 2.85758209161355 0.141350985815109 1.36575614672707 0.141350985815109 0.187194548782171