9.127588076 0.050183963 0.075711348 0.029989431 9.390228167 0.101086191 0.035991319 0.080412832 5.146056139
9.536602696 0.255394743 -0.033490836 0.152621325 7.210047250 -0.051802257 -0.015920723 -0.041208063 5.166732639
8.602702123 0.174284719 -0.054239274 0.104150792 9.153317454 -0.016054576 -0.025784022 -0.012771219 5.337473165
9.534271907 0.258712115 -0.036950028 0.154603752 7.201953323 -0.054485979 -0.017565138 -0.043342932 5.167226349
9.526312053 0.296703099 -0.107634579 0.177306781 7.019382129 -0.119639013 -0.051166841 -0.095171375 5.185567655
8.910496669 0.146625466 0.060498523 0.087621900 9.468369357 0.076480913 0.028759515 0.060839633 5.274043008
9.781548320 0.215477586 -0.028597599 0.128767234 6.481214786 -0.052755896 -0.013594598 -0.041966672 5.237267762
9.717625405 -0.012969699 -0.144931847 -0.007750561 8.127313709 0.130241869 -0.068897048 0.103605818 5.185453039
9.035696923 0.105786122 0.052055253 0.063216720 9.502310097 0.182042788 0.024745792 0.144812817 5.256642509
9.668633220 0.090862165 -0.083637508 0.054298314 7.638706320 0.054440336 -0.039759222 0.043306623 5.211064690
9.281346459 -0.071184470 -0.052751085 -0.042539122 9.133734077 0.102896126 -0.025076573 0.081852613 5.274174776
8.827375941 0.157855772 0.046034749 0.094333018 9.402326426 0.013080489 0.021883791 0.010405370 5.233399180
9.047368647 -0.289863934 -0.404976803 -0.173219766 8.742257766 0.213139446 -0.192516048 0.169549830 5.377894310
9.636509892 0.128579659 -0.047507973 0.076837908 7.531346142 0.025641064 -0.022584126 0.020397154 5.206097583
9.230326447 0.012247317 0.139891848 0.007318873 8.847196436 -0.012276891 0.066501156 -0.009766117 5.193042675
9.154868206 -0.266482207 -0.299914985 -0.159247081 8.720526490 0.319712057 -0.142572234 0.254327041 5.253038917
9.062804048 -0.317782735 -0.433980521 -0.189903760 8.737667636 0.291308181 -0.206303705 0.231732105 5.431996385
9.042577071 -0.303462455 -0.420251485 -0.181346105 8.735668321 0.239495745 -0.199777257 0.190515944 5.401933521
8.818429599 0.209891941 0.060285957 0.125429309 8.787489793 -0.062380169 0.028658467 -0.049622664 5.254834328
10.401971705 0.001151522 -0.001160869 0.000688138 6.215440653 -0.000110060 -0.000551848 -0.000087551 4.945513030
9.031786051 0.108564842 0.052732464 0.064877256 9.504695419 0.179967386 0.025067721 0.143161861 5.264337807
9.270459648 -0.183042474 0.080643773 -0.109384338 8.744936381 0.150744640 0.038336073 0.119915523 5.059565455
8.660669883 0.168760311 -0.012057778 0.100849461 9.253103505 -0.033795372 -0.005731972 -0.026883806 5.248635894
9.703519491 0.038086468 -0.149240631 0.022760089 7.839979633 0.095912069 -0.070945339 0.076296881 5.195829094
8.632274182 0.205231901 -0.076056586 0.122644516 8.958128327 -0.037859809 -0.036155437 -0.030117016 5.357701076
9.711522283 -0.085402729 -0.096718027 -0.051035810 8.408908435 0.135355741 -0.045977380 0.107673841 5.163804314
9.149075155 0.040645306 0.073708007 0.024289225 9.368821106 0.086990054 0.035038980 0.069199527 5.155999357
9.184183626 -0.250167793 -0.246742948 -0.149497752 8.716555640 0.296262294 -0.117295551 0.235673041 5.219738094
9.677634544 -0.168654248 -0.065968625 -0.100786079 8.644101237 0.128004788 -0.031359868 0.101826248 5.129678589
9.340055506 -0.056964824 0.132823202 -0.034041605 8.875819996 0.021370312 0.063140895 0.016999823 5.190071085
10.343873398 0.026907459 -0.009655307 0.016079626 6.176048922 0.009677184 -0.004589896 0.007698082 4.975927874
9.243232903 0.004865410 0.138378734 0.002907520 8.850149822 -0.007917243 0.065781859 -0.006298071 5.189882526
8.696372103 0.167601769 0.005618604 0.100157128 9.291428679 -0.034593718 0.002670947 -0.027518881 5.226643362
9.045565939 0.097959888 0.051642523 0.058539842 9.493350045 0.183328561 0.024549590 0.145835634 5.232561050
9.053479177 -0.314609207 -0.436038515 -0.188007291 8.734308340 0.274384259 -0.207282024 0.218269331 5.432445985
9.564774815 0.287052480 -0.122231881 0.171539669 6.883935946 -0.130782299 -0.058106041 -0.104035724 5.195209329
10.035870651 0.115014235 0.040933032 0.068731347 6.263396611 0.011259370 0.019458560 0.008956691 5.229196030
9.699643435 0.046295662 -0.143171816 0.027665821 7.801305065 0.090020430 -0.068060373 0.071610154 5.200519181
8.759075113 0.164194233 0.028364021 0.098120819 9.347327663 -0.020457353 0.013483561 -0.016273575 5.218089238
9.043614596 -0.298188852 -0.415327304 -0.178194652 8.738039163 0.228001295 -0.197436422 0.181372249 5.391164543
8.997044221 0.147927029 0.129969542 0.088399702 8.807453868 -0.053894598 0.061784335 -0.042872496 5.305152904
9.474312769 -0.173504895 0.116486315 -0.103684777 8.926291702 0.082020715 0.055374739 0.065246478 5.210870258
8.610456202 0.196495449 -0.082868775 0.117423700 9.009227334 -0.025392105 -0.039393785 -0.020199110 5.372905156
9.115509860 -0.211302598 -0.217398533 -0.126272303 8.826156371 0.129477746 -0.103345935 0.102997968 5.320325981
9.164530737 -0.261212114 -0.282912238 -0.156097727 8.718175516 0.312285989 -0.134489545 0.248419695 5.240176078
8.702012717 0.167377682 0.008070432 0.100023216 9.296912575 -0.034094395 0.003836486 -0.027121676 5.224551658
9.707489744 -0.102630068 -0.091535942 -0.061330694 8.466219925 0.134807924 -0.043513944 0.107238059 5.156325851
9.250390470 -0.196262096 -0.061337037 -0.117284250 8.747274872 0.203075175 -0.029158124 0.161543825 5.153744215
8.616585124 0.171217961 -0.041012082 0.102318128 9.188390741 -0.022139701 -0.019496139 -0.017611862 5.308243335
8.807191439 0.160013584 0.041295172 0.095622505 9.386241821 0.001223350 0.019630713 0.000973160 5.226855406
9.210653614 -0.163769731 -0.132790803 -0.097867141 8.928128504 0.126305418 -0.063125493 0.100474419 5.277136690
8.595834001 0.186047569 -0.077305444 0.111180152 9.069390791 -0.014779638 -0.036749114 -0.011757022 5.373232384
9.282645317 -0.179004703 0.105222113 -0.106971407 8.743029182 0.134183099 0.050020014 0.106741019 5.032068627
9.713356435 -0.059490740 -0.109089322 -0.035551067 8.313531025 0.134056048 -0.051858390 0.106639951 5.173072885
9.253616941 -0.192834498 -0.034049880 -0.115235952 8.748803910 0.192408509 -0.016186478 0.153058622 5.140556554
9.714738917 -0.034428976 -0.128256672 -0.020574409 8.216153226 0.132169046 -0.060970079 0.105138864 5.180661653
9.534026322 0.295263593 -0.113195088 0.176446547 6.979823033 -0.126609151 -0.053810171 -0.100716036 5.188107830
9.701719029 0.245335548 -0.062692409 0.146610051 6.607278939 -0.078853299 -0.029802435 -0.062726838 5.210560822
9.220319472 -0.225044806 -0.177874650 -0.134484508 8.727514754 0.260440520 -0.084557250 0.207177257 5.195322661
9.266248520 -0.129765659 -0.110762491 -0.077546650 9.012950878 0.124002250 -0.052653774 0.098642277 5.269897268
9.279534556 -0.106954027 -0.088702514 -0.063914649 9.061910629 0.116024161 -0.042167001 0.092295805 5.269530135
9.169112680 -0.176250642 -0.141717670 -0.105325607 8.884882372 0.123001159 -0.067369107 0.097845922 5.287532134
8.643531076 0.169304834 -0.022074597 0.101174862 9.231457031 -0.030801615 -0.010493723 -0.024502309 5.266469248
9.246049121 -0.200892917 -0.089649084 -0.120051582 8.744482635 0.215223465 -0.042616978 0.171207641 5.165843814
8.783076120 0.216340399 0.034746229 0.129282842 8.795859235 -0.065693076 0.016517506 -0.052258041 5.250633642
8.965323772 0.135273550 0.062187199 0.080838110 9.502912219 0.123485694 0.029562270 0.098231364 5.299589869
8.665337192 0.168625179 -0.009521831 0.100768708 9.258554364 -0.034302320 -0.004526445 -0.027287077 5.244736697
9.058164534 -0.272009112 -0.367567346 -0.162549904 8.753953921 0.186131142 -0.174732508 0.148065053 5.356857628
9.045595027 -0.293390317 -0.409872576 -0.175327097 8.740402634 0.219103098 -0.194843378 0.174293842 5.383090842
9.609381394 0.273733814 -0.114172356 0.163580568 6.789562703 -0.119633494 -0.054274740 -0.095166985 5.196585862
9.568988269 -0.242665837 0.057658651 -0.145014658 8.927471987 0.111144600 0.027409510 0.088414174 5.188364672
10.294231395 0.041269831 -0.000280433 0.024662435 6.155580241 0.018517301 -0.000133311 0.014730287 5.029728207
9.378021369 -0.087187985 0.134817213 -0.052102661 8.889252853 0.033974108 0.064088799 0.027025989 5.197838886
10.364743002 0.019112243 -0.010653830 0.011421284 6.189642989 0.005791784 -0.005064570 0.004607293 4.956630573
9.291488142 -0.024097479 0.133555571 -0.014400411 8.861856592 0.007376273 0.063489046 0.005867735 5.185099970
9.667702756 0.256002937 -0.082196703 0.152984775 6.673915000 -0.093812301 -0.039074298 -0.074626541 5.200411192
8.960936076 0.136371312 0.062336773 0.081494122 9.500836863 0.119720137 0.029633374 0.095235909 5.298258432
8.873655334 0.152143797 0.055367910 0.090919600 9.439499599 0.046166615 0.026320547 0.036724979 5.253978703
8.932168214 0.175454071 0.109963823 0.104849585 8.793181242 -0.053538944 0.052274107 -0.042589577 5.284135913
9.264584793 -0.030236330 -0.006520054 -0.018068926 9.208536242 0.085907933 -0.003099474 0.068338713 5.260052215
9.718145455 0.005923735 -0.153590292 0.003539964 8.031877361 0.123809020 -0.073013061 0.098488565 5.186833979
8.594537395 0.180542575 -0.069247528 0.107890423 9.104344222 -0.012882700 -0.032918578 -0.010248030 5.363761301
9.651798813 0.110062973 -0.062334862 0.065772523 7.582214765 0.038814946 -0.029632466 0.030876816 5.209150279
9.684381606 0.250854285 -0.072250376 0.149907992 6.640738012 -0.086222056 -0.034346058 -0.068588594 5.204727560
9.085711644 -0.307445566 -0.380711184 -0.183726371 8.738621080 0.332316305 -0.180980767 0.264353567 5.376955069
9.059569324 -0.269910665 -0.361967754 -0.161295893 8.755655394 0.183139173 -0.172070600 0.145684979 5.354748992
9.096831346 0.064961827 0.072374326 0.038820533 9.420987013 0.127043430 0.034404981 0.101061499 5.144156987
10.406197181 0.000007912 -0.000014042 0.000004728 6.218618215 -0.000010241 -0.000006675 -0.000008146 4.946872983
9.693211181 -0.136681051 -0.080101195 -0.081679218 8.563975601 0.131236108 -0.038078145 0.104396724 5.140841045
9.054590137 -0.315096018 -0.436730109 -0.188298205 8.734593090 0.276247711 -0.207610791 0.219751684 5.433369464
9.579234492 -0.248726862 0.045814989 -0.148636666 8.917420042 0.112135391 0.021779323 0.089202335 5.179072416
9.214212317 0.011535594 0.046777941 0.006893555 9.293049856 0.068197382 0.022237087 0.054250185 5.205045192
10.394635467 0.004766394 -0.004267922 0.002848349 6.210425366 0.000501458 -0.002028866 0.000398904 4.943904150
9.678207524 0.079662785 -0.099056727 0.047605677 7.674533889 0.064201917 -0.047089140 0.051071842 5.210992173
9.572654395 0.284788899 -0.122403283 0.170186976 6.865543497 -0.129750012 -0.058187521 -0.103214552 5.195991317
9.103988863 -0.296142846 -0.361256669 -0.176971980 8.735076724 0.339671017 -0.171732567 0.270204151 5.340212925
9.620091145 -0.248960930 -0.012755160 -0.148776542 8.849752172 0.119271468 -0.006063491 0.094878998 5.142967057
9.862249580 0.177713871 0.004140141 0.106200018 6.393897512 -0.030693847 0.001968122 -0.024416581 5.246734878
8.912804184 0.182350592 0.103809659 0.108970876 8.789989970 -0.053758265 0.049348568 -0.042764044 5.278311309
9.543227150 -0.224551847 0.077967104 -0.134189921 8.937346520 0.107188882 0.037063651 0.085267448 5.202446368
8.861109189 0.198857079 0.084121002 0.118834986 8.785438340 -0.057170393 0.039989063 -0.045478351 5.264877434
9.201735911 0.017848201 0.054483745 0.010665905 9.309110138 0.068371466 0.025900237 0.054388667 5.193862156
8.748785482 0.219530183 0.007822830 0.131189025 8.812700092 -0.065738348 0.003718782 -0.052294054 5.255963789
8.824353830 0.208548076 0.064107290 0.124626228 8.786777171 -0.061640605 0.030475035 -0.049034349 5.256087138
9.528273127 0.268096087 -0.048194633 0.160211520 7.178173469 -0.062791033 -0.022910548 -0.049949501 5.169456704
9.519870459 0.294571224 -0.095019050 0.176032795 7.076708090 -0.102652719 -0.045169728 -0.081658986 5.182003383
10.383184499 0.010860512 -0.008284723 0.006490132 6.202622050 0.002372911 -0.003938354 0.001887621 4.945603929
9.926058434 0.150031451 0.027968127 0.089657283 6.338607376 -0.012918303 0.013295362 -0.010276353 5.245747589
9.062503477 -0.265668720 -0.350150241 -0.158760949 8.759336266 0.177214127 -0.166452844 0.140971676 5.350689931
9.539291242 -0.221751902 0.080473868 -0.132516702 8.937647023 0.106300514 0.038255305 0.084560763 5.203681452
9.702581362 0.040060840 -0.148018612 0.023939954 7.830241167 0.094440005 -0.070364421 0.075125872 5.196985946
8.840555486 0.156335717 0.048930585 0.093424649 9.412871426 0.021722304 0.023260401 0.017279828 5.238514117
9.519267478 0.291673767 -0.087730314 0.174301304 7.097308099 -0.094731667 -0.041704841 -0.075357886 5.179982113
9.530119802 0.265042771 -0.044296153 0.158386889 7.186095206 -0.059953187 -0.021057306 -0.047692029 5.168601208
10.027035867 0.117554910 0.041302802 0.070249630 6.268667756 0.009669473 0.019634340 0.007691947 5.231848769
8.673085430 0.214577772 -0.049024492 0.128229514 8.889276633 -0.053465703 -0.023305042 -0.042531315 5.313255480
9.081670761 -0.309958689 -0.386875980 -0.185228188 8.739222901 0.328541831 -0.183911360 0.261351019 5.386027720
9.217267550 -0.161358176 -0.132309132 -0.096426020 8.935717895 0.126891048 -0.062896519 0.100940281 5.276836400
9.353063427 -0.066779893 0.133396821 -0.039906991 8.880138943 0.025328946 0.063413580 0.020148868 5.192544317
9.646044862 0.262575813 -0.095354421 0.156912660 6.717238711 -0.103946402 -0.045329155 -0.082688095 5.197259766
9.195696806 0.031611066 0.142898561 0.018890454 8.839517071 -0.023480413 0.067930474 -0.018678383 5.206110073
8.867430812 0.196993409 0.086957721 0.117721276 8.785640584 -0.056527910 0.041337569 -0.044967263 5.266438980
9.678763227 0.252602427 -0.075538119 0.150952665 6.651846137 -0.088735105 -0.035908971 -0.070587694 5.203103420
9.128309823 0.068846801 0.141611292 0.041142154 8.828550184 -0.034636411 0.067318538 -0.027552842 5.251726445
9.966968183 0.135610461 0.037625992 0.081039445 6.307842324 -0.002747884 0.017886475 -0.002185908 5.243000286
9.190390551 0.034535410 0.143112431 0.020638013 8.838398812 -0.024976350 0.068032143 -0.019868382 5.208783762
9.567969805 0.217154192 -0.012936699 0.129769157 7.301547617 -0.025723216 -0.006149790 -0.020462504 5.173182110
10.393078885 0.005623243 -0.004935736 0.003360393 6.209386402 0.000715582 -0.002346328 0.000569236 4.943824702
9.346601263 -0.061837433 0.133081559 -0.036953427 8.877957326 0.023329809 0.063263712 0.018558579 5.191276576
9.281185886 -0.100623275 -0.082472442 -0.060131455 9.075146701 0.113678697 -0.039205378 0.090430017 5.270449566
9.081351618 -0.242762711 -0.285739403 -0.145072549 8.784326029 0.150012956 -0.135833510 0.119333477 5.334309834
9.258804243 -0.137212879 -0.117480839 -0.081997033 8.996481408 0.126009045 -0.055847512 0.100238658 5.271495158
9.049424948 -0.286129816 -0.398884648 -0.170988294 8.744352860 0.207164865 -0.189619986 0.164797123 5.372893196
9.101221425 0.084883307 0.141717927 0.050725409 8.825932444 -0.037557980 0.067369230 -0.029876915 5.273453170
9.333364495 -0.052113850 0.132635546 -0.031142712 8.873707073 0.019416825 0.063051688 0.015445847 5.188938507
9.088896486 -0.235144757 -0.267127829 -0.140520137 8.794014114 0.143304531 -0.126986024 0.113997006 5.330652984
10.329777536 0.031514015 -0.007633242 0.018832458 6.168228716 0.012283447 -0.003628656 0.009771332 4.990883426
9.164527369 -0.178080488 -0.145650310 -0.106419105 8.880226349 0.122879662 -0.069238588 0.097749272 5.290603099
9.068767069 0.080389579 0.061662703 0.048040002 9.456639045 0.159017077 0.029312938 0.126496145 5.171218266
8.648844618 0.209870351 -0.066130667 0.125416407 8.927274288 -0.045182734 -0.031436899 -0.035942314 5.340790260
9.044073002 -0.308355620 -0.425351670 -0.184270211 8.733927663 0.252839363 -0.202201760 0.201130629 5.414518014
9.788612990 0.212381758 -0.025860589 0.126917198 6.472325223 -0.050835864 -0.012293490 -0.040439310 5.238884340
9.282284623 -0.078847719 -0.060670085 -0.047118602 9.118971911 0.105711170 -0.028841072 0.084091946 5.273754236
9.253772594 -0.017203651 0.009799012 -0.010280728 9.232411246 0.079512776 0.004658210 0.063251444 5.247526602
8.615316065 0.198785664 -0.082271865 0.118792310 8.996157180 -0.028484250 -0.039110028 -0.022658874 5.370393548
9.713050181 -0.069090113 -0.103536385 -0.041287555 8.349810244 0.134752659 -0.049218660 0.107194097 5.169875051
9.276157562 -0.052000288 -0.032023420 -0.031074848 9.169357705 0.095492926 -0.015223149 0.075963458 5.271631809
10.178898423 0.072080394 0.019902477 0.043074517 6.185313231 0.026927062 0.009461150 0.021420149 5.141374495
9.576735889 -0.247406207 0.048969870 -0.147847456 8.920271111 0.111891873 0.023279076 0.089008620 5.181500490
9.702070621 -0.117371749 -0.087123107 -0.070140174 8.510740626 0.133499651 -0.041416190 0.106197344 5.149474955
10.299482501 0.039958050 -0.001433005 0.023878528 6.156723337 0.017651109 -0.000681216 0.014041242 5.024063499
9.045436616 -0.309869995 -0.427509327 -0.185175186 8.733612093 0.257659517 -0.203227457 0.204965003 5.419003926
8.981719748 0.130787391 0.061162019 0.078157227 9.509048379 0.137591880 0.029074925 0.109452662 5.302298390
9.703599813 -0.113602815 -0.088309715 -0.067887897 8.499723936 0.133887882 -0.041980274 0.106506177 5.151230997
10.259721423 0.049546022 0.006659307 0.029608203 6.154731524 0.023346722 0.003165671 0.018572033 5.065600523
8.617910611 0.199910354 -0.081696220 0.119464413 8.989695330 -0.030059665 -0.038836381 -0.023912097 5.368822915
9.711990942 -0.082086845 -0.097884714 -0.049054271 8.397230157 0.135315306 -0.046531994 0.107641676 5.165120417
8.641903321 0.208099643 -0.070593349 0.124358250 8.939642027 -0.042304901 -0.033558348 -0.033653033 5.348283872
8.625548892 0.170287137 -0.034126332 0.101761877 9.204636736 -0.025568447 -0.016222822 -0.020339388 5.292326643
9.213950607 -0.162601419 -0.132582896 -0.097168969 8.931871831 0.126606132 -0.063026660 0.100713634 5.276987232
8.919299381 0.180083938 0.105906429 0.107616346 8.790982549 -0.053628974 0.050345321 -0.042661195 5.280200937
9.157481685 -0.181404410 -0.153426489 -0.108405447 8.872956504 0.122878607 -0.072935193 0.097748433 5.295794802
9.479955724 -0.178029495 0.113741301 -0.106388632 8.927959000 0.084733848 0.054069827 0.067404743 5.210842889
9.715814312 -0.025609902 -0.135527661 -0.015304219 8.180850917 0.131563456 -0.064426529 0.104657125 5.182939990
10.265835279 0.048073210 0.005533049 0.028728066 6.154088704 0.022615388 0.002630276 0.017990265 5.059410779
9.934145194 0.146974714 0.030324557 0.087830608 6.332239003 -0.010800816 0.014415551 -0.008591917 5.245386014
9.519313480 0.290388279 -0.084901482 0.173533109 7.104216419 -0.091954736 -0.040360084 -0.073148871 5.179188212
9.204196243 -0.165886655 -0.133080285 -0.099132193 8.920995514 0.125688255 -0.063263106 0.099983474 5.277488677
8.696807246 0.217671890 -0.031682988 0.130078528 8.858893652 -0.059293183 -0.015061316 -0.047167004 5.288905651
9.148483765 -0.269990710 -0.310341409 -0.161343727 8.722407507 0.324271234 -0.147528700 0.257953811 5.262476720
9.273952050 -0.181801688 0.089432199 -0.108642856 8.744142646 0.145695776 0.042513876 0.115899213 5.050237702
9.636702110 -0.237941820 -0.032010631 -0.142191633 8.812284994 0.123022934 -0.015217070 0.097863243 5.133363755
9.274631994 -0.048234207 -0.027772703 -0.028824276 9.176181405 0.093940700 -0.013202463 0.074728681 5.270371296
9.025512149 0.112630250 0.054035111 0.067306702 9.507670582 0.175613159 0.025686968 0.139698126 5.274912472
8.946965005 0.139624205 0.062485495 0.083438018 9.493245125 0.107723420 0.029704073 0.085692667 5.292843511
9.178688068 -0.173104577 -0.136456592 -0.103445551 8.894525661 0.123492176 -0.064868120 0.098236520 5.282535593
9.010969254 0.120281322 0.057104585 0.071878906 9.511545424 0.163277686 0.027146120 0.129885408 5.291959418
9.055694711 -0.315559415 -0.437246563 -0.188575126 8.734913646 0.278091679 -0.207856301 0.221218538 5.434071954
9.434920147 -0.139344165 0.131209277 -0.083270669 8.912477311 0.061243309 0.062373675 0.048718306 5.208360849
8.944796449 0.170706374 0.113882712 0.102012409 8.795604836 -0.053622492 0.054137051 -0.042656039 5.288229887
9.671159315 0.087969655 -0.087433827 0.052569779 7.647714813 0.056941808 -0.041563899 0.045296514 5.211165329
10.053621527 0.109908369 0.039643405 0.065680134 6.253090971 0.014276913 0.018845503 0.011357110 5.222953218
9.106196611 -0.219277483 -0.233160859 -0.131038014 8.815173226 0.133045991 -0.110838958 0.105836463 5.323931207
8.602298572 0.191819680 -0.081945033 0.114629508 9.035824026 -0.019779358 -0.038954661 -0.015734238 5.375383753
9.166771882 0.033141624 0.069536143 0.019805101 9.350097414 0.077891048 0.033055778 0.061961379 5.167065600
9.051268125 -0.313571590 -0.434245320 -0.187387222 8.733858820 0.270553590 -0.206429583 0.215222081 5.429997351
9.716910465 0.011196372 -0.154396340 0.006690839 8.000408221 0.120143008 -0.073396236 0.095572298 5.186809514
9.654429798 -0.216356425 -0.047107275 -0.129292419 8.756317839 0.125909272 -0.022393644 0.100159290 5.126499895
9.624750313 0.269037571 -0.107168907 0.160774141 6.759340668 -0.113486057 -0.050945472 -0.090276774 5.196447285
8.957105093 0.165845850 0.117690543 0.099107809 8.798178430 -0.053803303 0.055947200 -0.042799872 5.292381153
9.602785788 -0.253711165 0.011492113 -0.151615235 8.881814706 0.115537585 0.005463069 0.091908740 5.156232897
9.109276432 -0.216603783 -0.227835766 -0.129440238 8.818828736 0.131747399 -0.108307540 0.104803449 5.322768068
8.635399978 0.206218870 -0.074398405 0.123234319 8.951939689 -0.039365326 -0.035367179 -0.031314636 5.354794820
9.044585880 0.121093894 0.141250693 0.072364491 8.818430325 -0.048524423 0.067147118 -0.038600586 5.307768781
9.817591694 0.199050031 -0.014376355 0.118950292 6.438832001 -0.043041509 -0.006834167 -0.034238996 5.243808647
9.274181465 -0.118876497 -0.100360328 -0.071039397 9.036532194 0.120383359 -0.047708840 0.095763494 5.268833814
9.542701844 0.293079644 -0.117287808 0.175141442 6.946368787 -0.129943797 -0.055755750 -0.103368705 5.190788288
8.921619923 0.144692590 0.061469743 0.086466833 9.476541592 0.085960589 0.029221210 0.068380600 5.280167630
9.561076594 0.288094867 -0.121878197 0.172162589 6.893069275 -0.131078777 -0.057937908 -0.104271568 5.194713802
8.594336381 0.181618428 -0.071117737 0.108533342 9.097138214 -0.012989206 -0.033807629 -0.010332755 5.366323999
8.670154278 0.168483834 -0.006980367 0.100684241 9.264017637 -0.034694442 -0.003318295 -0.027599006 5.241081203
10.062501935 0.107341587 0.038757641 0.064146250 6.248056266 0.015695690 0.018424433 0.012485730 5.219352472
8.916172355 0.145658483 0.061032440 0.087044042 9.472587765 0.081307789 0.029013327 0.064679354 5.277187299
9.047157542 -0.311223873 -0.429795195 -0.185984250 8.733499386 0.262230208 -0.204314103 0.208600932 5.423154169
9.594555558 -0.253562793 0.023850350 -0.151526570 8.895526059 0.114080102 0.011337872 0.090749330 5.163759327
8.594983736 0.179507842 -0.067295385 0.107272077 9.111511268 -0.012923367 -0.031990577 -0.010280381 5.360894667
9.111475020 0.057745279 0.074944112 0.034507997 9.405981502 0.113737873 0.035626594 0.090477091 5.142569554
9.263898585 -0.132318985 -0.113118594 -0.079072492 9.007348209 0.124746661 -0.053773807 0.099234447 5.270380081
9.634067731 -0.240165170 -0.029278116 -0.143520285 8.818893005 0.122458589 -0.013918099 0.097414314 5.134690621
10.207802510 0.063393992 0.015116409 0.037883610 6.171154358 0.026923956 0.007185970 0.021417678 5.115456574
9.554006840 -0.232238328 0.070550120 -0.138783284 8.935221506 0.109222313 0.033537798 0.086885018 5.198022958
10.402888930 0.000814426 -0.000845484 0.000486693 6.216105367 -0.000123928 -0.000401922 -0.000098583 4.945811812
10.131090342 0.086864054 0.028404799 0.051909083 6.210653661 0.024244057 0.013502945 0.019285852 5.179969766
9.597706848 0.180730986 -0.020347485 0.108003016 7.394258038 -0.005006121 -0.009672696 -0.003982308 5.190124365
9.057859596 -0.316402870 -0.437644295 -0.189079166 8.735644121 0.281767011 -0.208045373 0.224142221 5.434761595
9.152607818 -0.184072681 -0.159792929 -0.109999979 8.867822483 0.123031372 -0.075961642 0.097869956 5.299448778
9.590235031 0.279566330 -0.120166861 0.167066021 6.827920127 -0.125854235 -0.057124381 -0.100115509 5.196705732
9.027319504 0.131571104 0.138132459 0.078625565 8.814720512 -0.051453290 0.065664786 -0.040930465 5.309864811
9.591890937 0.188291423 -0.017546792 0.112521057 7.374629552 -0.009140437 -0.008341315 -0.007271106 5.186727493
10.405563392 0.000096855 -0.000126274 0.000057880 6.218120687 -0.000057408 -0.000060027 -0.000045667 4.946686135
10.114603096 0.091903582 0.031275659 0.054920654 6.219515993 0.022632144 0.014867682 0.018003594 5.191345774
10.397436993 0.003260456 -0.003027629 0.001948416 6.212300315 0.000178024 -0.001439260 0.000141616 4.944300813
9.281752110 -0.097370729 -0.079259136 -0.058187766 9.081862084 0.112478769 -0.037677851 0.089475489 5.270991295
9.686197992 0.069353994 -0.114294661 0.041445248 7.710070794 0.073002670 -0.054332881 0.058072734 5.209542429
9.617185330 -0.250218704 -0.008934706 -0.149528176 8.855502350 0.118605805 -0.004247340 0.094349472 5.144955466
9.284419876 -0.019680274 0.134065455 -0.011760733 8.860044392 0.005262812 0.063731432 0.004186503 5.185133977
9.526591374 0.271050819 -0.052187585 0.161977238 7.170279685 -0.065688354 -0.024808699 -0.052254284 5.170394990
9.558864664 0.227707460 -0.015098186 0.136075683 7.275949921 -0.032310762 -0.007177308 -0.025702817 5.169324728
9.555876533 0.231201006 -0.016385883 0.138163391 7.267597073 -0.034570608 -0.007789447 -0.027500497 5.168345662
9.083772983 -0.240251607 -0.279405884 -0.143571939 8.787470577 0.147665886 -0.132822710 0.117466411 5.333039907
9.714230183 0.017781979 -0.154520196 0.010626331 7.958896085 0.114352139 -0.073455114 0.090965732 5.187176898
9.546989085 -0.227232207 0.075486378 -0.135791677 8.936844379 0.107965263 0.035884374 0.085885050 5.201092550
9.628626460 -0.244156621 -0.023234995 -0.145905536 8.831646324 0.121240323 -0.011045347 0.096445198 5.137663474
9.824967299 0.195543648 -0.011368535 0.116854913 6.430937957 -0.041043020 -0.005404323 -0.032649222 5.244646029
9.429501333 -0.134333681 0.132416717 -0.080276454 8.910314136 0.058297159 0.062947662 0.046374679 5.207637320
8.623392888 0.202106832 -0.079986698 0.120777006 8.976925798 -0.033217120 -0.038023716 -0.026423814 5.365040151
9.549972003 0.238224933 -0.019873305 0.142360819 7.250922660 -0.039254524 -0.009447282 -0.031226495 5.166919262
9.277520402 -0.055802544 -0.036250059 -0.033347038 9.162423307 0.097021006 -0.017232390 0.077179027 5.272626460
9.237278796 -0.002898920 0.028268483 -0.001732365 9.260486151 0.072620927 0.013438144 0.057769062 5.228617180
9.640692103 0.264196176 -0.098489654 0.157880972 6.727876824 -0.106417329 -0.046819568 -0.084653687 5.196882780
8.800384859 0.160691203 0.039615938 0.096027443 9.380815301 -0.002400161 0.018832446 -0.001909299 5.225008145
9.218250366 0.009312551 0.043979099 0.005565086 9.287661348 0.068528517 0.020906586 0.054513599 5.208890233
9.713175661 -0.065883013 -0.105253208 -0.039371024 8.337782469 0.134537027 -0.050034796 0.107022564 5.170966026
8.596741599 0.187175286 -0.078505963 0.111854065 9.062684783 -0.015547922 -0.037319811 -0.012368182 5.374177522
9.136048790 0.046357505 0.075324786 0.027702778 9.381923035 0.095162786 0.035807557 0.075700836 5.149393103
9.159850032 -0.180215751 -0.150600123 -0.107695117 8.875418829 0.122851388 -0.071591608 0.097726781 5.294015664
9.583033593 0.199341317 -0.014368385 0.119124362 7.346199877 -0.015290019 -0.006830378 -0.012163024 5.181455409
9.244361462 -0.202658866 -0.098805083 -0.121106896 8.743304893 0.219395089 -0.046969515 0.174526117 5.169448704
9.051475931 0.092939770 0.053023323 0.055539870 9.485128540 0.179995579 0.025205988 0.143184287 5.215044496
9.081110436 0.073224805 0.067338223 0.043758405 9.439324984 0.143792998 0.032010941 0.114385576 5.154072900
9.087815732 0.093256954 0.142217057 0.055729416 8.824627794 -0.039662268 0.067606504 -0.031550850 5.283861241
9.021002731 0.115254110 0.055021800 0.068874694 9.509283880 0.171987717 0.026156015 0.136814131 5.281261541
8.594656488 0.183850708 -0.074532477 0.109867330 9.082824353 -0.013635284 -0.035430913 -0.010846702 5.370484440
9.520301232 0.295244445 -0.097075062 0.176435105 7.069809614 -0.105133417 -0.046147106 -0.083632351 5.182562626
9.224126180 -0.158555340 -0.131479672 -0.094751073 8.943960775 0.127399774 -0.062502214 0.101344966 5.276474557
8.886726244 0.191022944 0.094750095 0.114153386 8.786900340 -0.054940192 0.045041873 -0.043704252 5.271282120
9.233964795 -0.212971968 -0.141246428 -0.127269902 8.735944799 0.240395168 -0.067145090 0.191231424 5.184318219
9.298570629 -0.028599923 0.133140528 -0.017091026 8.863718536 0.009455645 0.063291744 0.007521850 5.185281401
9.525121251 0.296784116 -0.106404184 0.177355197 7.026972226 -0.117881137 -0.050581941 -0.093773007 5.185156444
9.259587201 -0.187780999 0.025462382 -0.112216033 8.748695275 0.171908936 0.012104192 0.136751462 5.105305288
9.018631714 0.116538120 0.055535208 0.069642006 9.509977831 0.169983002 0.026400077 0.135219405 5.284203559
8.606092126 0.194166601 -0.082746904 0.116032004 9.022465268 -0.022457801 -0.039335850 -0.017864907 5.374576630
9.709881734 0.025856940 -0.153649404 0.015451847 7.908067297 0.106461301 -0.073041161 0.084688666 5.189335554
9.560396129 -0.236772170 0.065549177 -0.141492663 8.932758894 0.110156448 0.031160472 0.087628110 5.194479644
9.552908018 0.234707588 -0.017976732 0.140258889 7.259257386 -0.036884073 -0.008545698 -0.029340830 5.167539843
9.281896981 -0.075025893 -0.056742164 -0.044834717 9.126376871 0.104312293 -0.026973834 0.082979157 5.274044116
8.638608838 0.207175237 -0.072575282 0.123805834 8.945779597 -0.040847093 -0.034500510 -0.032493364 5.351655248
9.123447255 0.052092238 0.075706318 0.031129796 9.394264037 0.104161080 0.035988928 0.082858869 5.144760738
9.591902887 -0.253154175 0.027836989 -0.151282384 8.899721247 0.113672057 0.013233022 0.090424735 5.166337069
9.519493195 0.288932102 -0.081870219 0.172662912 7.111182482 -0.089122250 -0.038919096 -0.070895663 5.178336562