4.7805752260 4.6533188748 0.6938017597 3.0119162292 8.0653026157 5.6427771252 1.6002794393 3.3533552614 2.2393171500 6.1903543863 1.3781732642 0.1514888683 7.6533899585 6.3162155939 2.9840624384 1.8636823547 6.3569260365 3.0426832369 3.0129059841 1.8840798777 4.8910099603 7.2812339261 3.2340458033 2.6616528932 6.1936781420 7.5467096637 0.2707082785 2.1847099951 6.9021237114 4.4693423401 2.5906996912 2.9493237026 0.7342935764 6.3525743080 2.3909838841 1.7016631994 6.4660587225 6.5263070516 4.3339029497 4.7277065676 7.3682258748 0.8258088610 -0.3536377300 3.0402536607 2.2180007265 4.5502106356 2.0203390799 4.6780287666 9.4666679879 6.0937298908 3.0824091239 2.0781846997 7.5454582283 2.0498178394 2.5945574619 0.5103209140 5.4294154544 6.7526772304 4.6928052626 2.5203969928 7.0944322882 7.3520571445 1.5096707312 7.2422413408 2.6679553384 4.1194309721 6.4132504224 8.9163789835 -0.4009682162 2.5554502351 4.9456000398 2.8659809254 2.3985496495 2.1888351688 3.5487566064
4.4596722281 4.0569406112 2.5799533497 2.8302298553 6.2033969952 4.9759977429 2.0828578565 2.1202914570 2.5365016745 6.8875024831 1.4675954846 -0.1599799409 7.7558173801 5.0242683700 2.8728570890 1.2311543047 5.3715416838 2.2611793869 3.6872341443 1.9090701493 4.8006070306 8.4847371472 1.8063674381 2.7155844377 5.9077301712 5.6349859083 0.2625661508 1.5158823197 5.6339701503 3.7803299527 3.4485821856 1.9960719083 1.1453740759 8.2810613624 1.7247690073 1.1789036513 6.1384875165 5.2247872828 3.9694822297 4.4298390429 5.5433404271 0.5884608224 0.4522620237 1.4792958464 3.1648530553 5.1672029700 2.2501570834 4.6212164365 9.2425431058 5.7208975171 1.9610008970 1.9264763953 6.5076557248 1.4836429411 3.1378196113 0.5694966558 4.1655006800 8.0013877654 3.1103847286 3.4923240088 6.6625958970 4.6573387262 1.2133972046 7.5670600545 0.6882558744 3.3937870781 6.5013755771 7.0481116543 0.4174866972 1.8427252390 4.0084239174 1.9222595192 2.9508110445 3.0959402708 4.1175796603
4.3573598547 3.9356031678 1.5798339345 2.6071087986 7.9041083901 5.8727578398 1.6625976324 3.3816661105 2.2923814821 6.1641022310 1.6021014870 -0.0180511617 7.0293138376 5.9453100321 2.7275482452 1.5598536742 6.3894225106 3.0438159039 2.8152248917 1.8105561947 4.8396291452 7.0839010583 2.8445375414 2.6509927924 5.8745642007 7.5479161015 -0.0125916616 2.2657314250 6.6366735261 4.3956172788 2.0418363830 2.9684175875 0.2781522230 6.3577721336 1.6530424210 1.9887480779 5.7003929845 6.5568647266 4.0782296480 4.5031758269 8.0406364655 0.4972424921 -0.0681620785 2.7272072360 2.2437430251 4.2504702933 1.8673501958 5.4294669812 8.6689127328 6.2110879672 3.3708608424 1.5390925083 7.5562419337 1.9854397054 2.1572682988 0.4519128693 5.1592550473 6.3939559272 4.2092382884 2.2775724586 6.6315094914 6.9316251927 1.2146526146 6.9111565692 2.7792791696 4.2222735588 6.6014280536 8.8974984776 -0.3943380580 2.2909790610 5.1785258622 2.3779416687 2.8827043019 2.2528106629 3.3638519458
4.4596914865 4.0538567115 2.5813801507 2.8312443450 6.1901155276 4.9704703462 2.0830906299 2.1108436459 2.5388978790 6.8895932865 1.4735611120 -0.1627054418 7.7499990033 5.0221565997 2.8680570589 1.2322952143 5.3660087882 2.2594026993 3.6838064005 1.9050186101 4.7984448720 8.4839505585 1.8050668487 2.7082842368 5.9052180961 5.6357767727 0.2593509010 1.5155846763 5.6299741178 3.7765001083 3.4479882770 1.9939360573 1.1490543156 8.2892880074 1.7187020575 1.1717610774 6.1381481445 5.2231294462 3.9621494037 4.4318869481 5.5443330017 0.5862984732 0.4515598972 1.4759732825 3.1605587963 5.1603452883 2.2578828576 4.6153234867 9.2391213832 5.7107900928 1.9504964860 1.9321525931 6.5021060063 1.4790313029 3.1327105658 0.5697657122 4.1696818807 7.9950151528 3.1068726127 3.4920178760 6.6520922730 4.6561219607 1.2076838333 7.5649565417 0.6824595832 3.3890061986 6.5086913842 7.0447737575 0.4199136464 1.8358937844 4.0042440215 1.9186629331 2.9511187514 3.0924231255 4.1200257981
4.5008238477 3.9628031514 2.6006091099 2.7925146581 5.8476383076 4.8757773858 2.0946018083 1.9115042179 2.5846291569 6.9918245969 1.6113847784 -0.2315942427 7.6214793172 4.9288704668 2.7233415468 1.2163030554 5.2379022673 2.1904780129 3.6747760452 1.9362957601 4.9333740325 8.4425437182 1.7308304866 2.6037368881 5.9875528797 5.6195367402 0.1582397165 1.4322144098 5.5360266906 3.7038018586 3.4850832736 1.8494348538 1.2288730451 8.4524737168 1.6893960008 1.0448799931 6.0720764836 5.1815896178 3.8523494278 4.4479330513 5.5474788275 0.5337446839 0.4351357534 1.3118212310 3.0420016906 5.1683659424 2.2461255752 4.4996994074 9.2211284064 5.4439908955 1.8139371454 1.9893219184 6.3222027045 1.3778684527 3.1266945581 0.6170172883 4.1592219582 7.8387888279 2.9901064759 3.3068878816 6.4950124317 4.5134028691 1.1901548198 7.6838651332 0.5870276402 3.2684644658 6.5801595872 6.9768862602 0.5734455750 1.7208192869 3.8040436764 1.7690606165 2.8252612592 2.9821350010 4.0634204844
4.5995423545 4.0056559438 1.0173153077 2.7459466774 8.2008863151 5.7577191244 1.6569761786 3.5744401746 2.3398372504 6.2177354006 1.5256153252 0.1050955847 7.1396907332 6.3342168728 2.8944970661 1.7494681043 6.5157329461 3.1020453196 2.8403748399 1.9791135244 4.9082106986 7.4212832152 3.0741955025 2.7744469078 6.1307057686 7.8284993760 0.2826778332 2.4146021339 6.7010903530 4.5261329196 2.2289090128 3.0759267639 0.5011902293 6.6097180908 2.0014512440 1.9643933320 6.0915381394 6.9479602270 4.2767135121 4.7027394972 7.9200914967 0.9366818259 -0.0288702532 2.8039710272 2.3565787331 4.4005617777 2.0664223774 5.2299290944 9.1711813116 6.2111140635 3.3374282535 2.0724036128 7.8529448469 2.3379461993 2.3833471104 0.5497828778 5.2358086759 6.8657406401 4.4731636447 2.3051716445 7.1730168058 7.3195698183 1.3193858638 7.2206004856 2.7603229578 4.2560048841 6.6476703509 9.1852766821 -0.2825595423 2.5244858429 5.2563496972 2.5008702478 2.4682837243 2.3997485127 3.4777372921
4.7991685992 3.5919985359 2.6792075636 2.6752317827 5.2741707997 4.9973105979 2.2750743569 1.6629098259 2.7508594980 7.2688609813 1.6212298042 -0.2946185560 7.6512168660 4.6486060769 2.7019790558 1.0869439353 4.6120013866 2.2415322797 3.9430113446 1.8130382572 5.1332448869 8.7332120654 1.5832499718 2.6502514944 6.0422323490 5.2912874760 0.3121229024 1.3928070874 4.9145005097 3.7164789534 3.7610550626 1.7370530519 1.4706356021 8.6421859761 1.7608929878 1.1167819070 6.4533860043 5.0111348671 4.0647647965 4.5135914748 5.2006093148 0.6439957755 0.4235929928 1.2895863897 3.1013453171 5.4017097363 2.0673750988 4.7286026637 9.3611742979 4.8327361644 1.8588715937 1.6480733630 5.6916537617 1.2463739407 3.2526301589 0.6138754188 4.2685216572 7.9429841220 2.8016077101 3.4419290164 6.6600165364 4.0974241556 1.1253443662 7.9473456234 0.3779862017 3.4192872225 6.7075225035 6.5302929268 0.8804860587 1.7803923583 3.2949474486 1.9498218637 3.2090762208 3.0135212314 4.5657134438
4.5986523082 4.4138892884 2.4886235152 2.7605259512 7.1520902916 5.3507174574 1.8993237485 2.9456460494 2.2682971634 6.8976171084 1.0412251188 -0.0012749456 7.6970573770 5.1942049689 2.7917170039 1.1674163154 6.1136271488 2.6466747448 3.7484319115 2.1118196973 4.8744007999 8.5603711825 2.1324547576 2.6604404290 5.8702881276 6.0504881496 0.2020756728 1.8851580983 6.1772546467 3.9943022954 3.2709340675 2.4511667035 1.1048011391 7.7418946828 2.0698811473 1.3412487676 6.2882660534 5.8547807331 3.9122857215 4.3011287898 5.8763913176 0.2551729805 0.3154260477 1.9026111360 2.3830345945 5.2877724099 2.3179972190 4.9335689671 9.3421351966 6.3006085022 2.5380813212 1.8490596633 7.1994750431 1.6937393831 3.5139825448 0.6329263445 4.4702955537 8.4148443331 3.5505006983 3.3133452794 6.3287555389 5.0505601424 1.3015194969 7.9671292596 1.0358986336 3.5983800555 6.1949504627 7.5057272981 0.6274181112 1.5417689673 4.7778305952 1.9403851682 3.1752405514 3.0144861609 3.7796161391
4.7188936313 4.3708197871 0.8700574865 2.8835767027 8.3054906886 5.8024580707 1.5831613792 3.5769208133 2.3947135952 6.2393858596 1.4284963234 0.1322399679 7.4499194903 6.4332857599 2.9774346808 1.7864719517 6.5209687360 3.2287008815 2.9398854202 2.0502667754 4.9422328696 7.3691915981 3.1384630341 2.7653640260 6.1616748030 7.7974327511 0.3674485931 2.1920046599 6.8715014193 4.6955524286 2.4746526636 3.0361927918 0.6666367110 6.5094096506 2.2725723570 1.7940839663 6.1625596893 6.8600311954 4.4979211779 4.7366699058 7.8020308616 1.0471853242 -0.1856114535 2.9110202230 2.4080322251 4.5152289505 2.0719352757 4.8978761937 9.3339239997 6.2466626362 3.1615887311 2.1472111737 7.6642037465 2.2558647003 2.4193898515 0.6393914277 5.3503901917 6.8563842513 4.6043533954 2.6261098084 7.2944709039 7.4240616858 1.3633313991 7.0579450731 2.8041123852 4.2150787372 6.4850418843 9.2143946039 -0.1407276160 2.5503985469 5.2716007289 2.5615586239 2.5143503975 2.2221249470 3.4611899549
4.5125512240 4.2525839435 2.4592610944 2.7037212194 6.7819151024 5.1787011638 1.9518580978 2.5141055649 2.4467966271 6.9489193058 1.2154763175 -0.0518384757 7.8091588990 5.0909148198 2.9011153359 1.2213998039 5.7551918771 2.4869852962 3.7351741454 2.0253393342 4.8730996826 8.5199642297 1.9589508554 2.7262658499 5.9471796277 5.7081136752 0.2450376403 1.5795675748 5.8734395256 4.0048740241 3.3821551400 1.9906069586 1.1573523001 8.0394271860 2.0381117742 1.2466041165 6.2670334749 5.2654030316 4.0403223589 4.4254988450 5.4590902528 0.5339084776 0.3908335476 1.5835186413 2.9222047781 5.2931883699 2.2824090581 4.6602266452 9.3539506643 5.9054271096 2.2991450290 1.8136699552 6.8849285222 1.6136857337 3.3292535037 0.6039818308 4.2328509400 8.1550669092 3.2937239193 3.3926507167 6.7953835397 4.8557829702 1.2534452389 7.8329857034 0.8326170895 3.5318305586 6.2338381072 7.2198349544 0.5682812507 1.7223382327 4.4011673750 1.8359124577 3.0488576071 3.1598326146 4.0264950312
4.8583234674 4.7150747364 0.5680811996 3.0200323065 7.7885395274 5.8321130424 1.4394023951 3.0584627932 2.3609301171 6.2968138644 1.3719914300 -0.0672855048 7.6809996804 6.0657952096 2.9101835499 1.7842049764 6.0610999353 3.1168859050 2.9649879956 1.8789673171 4.9141410687 7.4091903468 3.0526503812 2.5043518764 6.2348889897 7.2175132965 0.3439468115 2.2083317667 6.6440341164 4.4739337516 2.6890327981 2.9280415443 0.7000557044 6.5013143785 2.0957519506 1.6619071101 6.8361115090 6.1769024344 4.6929456881 4.7442393453 6.9093167951 0.5493018639 -0.4358090549 3.2540058210 1.9355274971 4.4759248296 2.0226283952 4.5781199523 9.4978872928 5.7414009392 3.2223172395 2.1504650311 7.1186287731 2.0239369184 2.8037185545 0.5300464728 5.6951357606 6.7837089400 4.5110319902 2.4082487999 7.1009802132 7.3909736708 1.6309434111 7.3421868273 2.5522302331 4.0092072375 6.2802125988 8.6021585048 -0.3456744353 2.4932293449 4.7242195036 2.8059622560 1.9100532436 1.9155576334 3.7638743909
4.5239613008 3.8893091183 1.0695984918 2.7054972959 8.0512032350 5.6911806423 1.6761894035 3.5338582452 2.2489343324 6.1865281215 1.5307202657 0.0808661607 7.0697142100 6.2489538029 2.8202025198 1.6963683400 6.4770543691 3.0398875159 2.8118631637 1.9465323281 4.8715979882 7.3752617697 3.0172312750 2.7051598336 6.0703285325 7.8272806667 0.1728870191 2.4446042230 6.6754815897 4.4169127166 2.1407049779 3.0065747388 0.5259328767 6.5738834052 1.9263978759 1.9551754179 6.0464323219 6.8932502830 4.2348360112 4.6454339043 7.8873987270 0.7799081876 0.0455425507 2.7313483210 2.2692623457 4.3363462232 2.0814955055 5.2637967890 9.0481593745 6.2680376441 3.3125250342 1.9664921995 7.7475066077 2.2222327028 2.2931713088 0.5006215404 5.1855715581 6.7158835639 4.3383077477 2.1589219159 6.9966591724 7.1900892429 1.2354708285 7.2172515816 2.7631920452 4.2439874631 6.6536891793 9.1641000182 -0.3429864606 2.5494553835 5.2514771675 2.4432898411 2.5420930970 2.4017571629 3.4114200522
4.2562968406 4.0619074962 0.8764264361 2.7373513103 7.2135209130 6.0633515920 1.3978874929 2.6875944507 2.4134873992 5.9539794896 1.4965239727 -0.8297149116 7.0409281538 5.7751234395 3.0280115207 1.3853097936 5.8710513949 3.3465076185 2.7550244873 1.7029802800 5.0501470300 7.2582226988 2.7572304070 1.9135185949 6.1289350965 7.0351609073 0.3357536450 2.0852148615 6.1930902437 4.6382881087 2.3276305075 2.4643623941 0.7470192873 6.1946909629 2.0314094662 1.0246394699 6.6448802288 6.1444259981 4.7880122649 4.6855276048 6.4599275418 0.6424805227 -0.3861125969 2.8007176741 1.6894733340 4.0203336155 2.4426975795 4.4666520711 8.9070613248 5.6356145270 3.1819341315 1.9473324023 6.8265827232 2.2107611156 3.1694330480 0.3658576760 5.6665044715 6.7439655799 4.2423302377 1.9752521272 6.7913209237 7.1596946586 1.7094549844 7.1330611416 2.1692928359 3.4016678092 5.9345892455 8.3598541688 -0.3789712063 2.0270141537 4.5486628315 2.7841284603 1.8453040448 1.5007756755 3.8206079315
4.4914170252 4.1997076264 2.4893209584 2.7163380160 6.6392241707 5.1524016966 1.9969421278 2.4220583811 2.4679682479 6.9273723147 1.2843867496 -0.0816425315 7.8289024342 5.0632795512 2.9297508889 1.2391552727 5.6437222063 2.4438797101 3.7403858271 2.0250203205 4.8882498347 8.5278109828 1.9350837296 2.7742711828 5.9622678052 5.6450668256 0.2633793289 1.5310605036 5.8019640903 3.9600083535 3.4059817356 1.9713201961 1.1844651105 8.0745889193 1.9869947320 1.2865096080 6.2116155463 5.2174042586 4.0196515586 4.4785064030 5.4789061093 0.5866944537 0.4040436359 1.5193768863 3.0523753173 5.2423234909 2.1876845281 4.6539621164 9.3402135065 5.8951377747 2.2285080532 1.8132576505 6.7627263062 1.5491005985 3.3518738227 0.6864010390 4.1472353191 8.1002706712 3.3048217213 3.3887541519 6.8035066765 4.7994678473 1.2785309187 7.7512345191 0.7496542929 3.5105178133 6.2420188282 7.1681177261 0.5416399146 1.7929043080 4.3223893858 1.8557843403 3.0146189196 3.1220675942 4.0267626565
4.7598600960 4.5504271891 2.6200704801 2.9651169006 7.7248978709 5.3799001665 1.8060415786 3.0569898425 2.0157318014 6.5210719148 1.1993593250 0.3867939590 7.4023718917 5.7154357722 2.7959001319 1.3906524232 6.3482507443 2.8098216871 3.4440946386 1.9741713972 4.7478381379 7.8226113512 2.4074262749 2.9477606894 5.9011620573 6.9178235033 0.0570978820 2.2161322684 6.6604386478 4.1069494987 3.0130503007 3.1694217648 0.5652756313 6.8546152417 1.4374298262 2.1586302477 5.9052122564 6.1052115077 3.9258645204 4.5541099886 7.2007789691 0.6894656608 0.0245130057 2.3618406677 2.3017954987 4.9459181420 1.8538006048 4.9138691088 9.0964300720 6.5676629415 3.2404690734 1.9708886351 7.2874465809 1.7574378241 2.5852549848 0.7898459017 5.3371595590 7.1038104607 3.8081099216 2.8216801411 6.5822269667 6.0513167712 1.1433050176 7.9389924948 1.9625446140 4.4640957630 6.6029257375 8.2504869887 -0.2763133364 1.6031781363 4.8672855664 2.5390604856 3.0771779100 2.3535741551 3.3073903326
4.1791409860 3.9555016965 1.6678787075 2.8225412724 7.3276517627 6.1034351771 1.3175063069 2.5768388166 2.2529924110 6.0793915378 1.3654798160 -0.6477392415 7.4437543732 6.1067574729 3.1433176457 1.6471859559 5.8816038444 3.4584149034 2.8513103052 1.7357120007 4.7921549713 7.2057423303 2.9970454441 1.8803054051 6.1290104961 6.9354808732 0.4852843357 2.2556331036 6.1376504977 4.8114192916 2.6156543251 2.3663355156 0.7607596750 6.2216974788 2.6583917454 0.6972827619 6.4266415339 6.0960104970 4.7159700367 4.7512379556 6.5355294821 1.1055259897 -0.4849546191 3.0682877586 1.6844942382 4.1379508353 2.2810180475 4.0775879305 9.2716840530 5.6802622232 3.3011449964 2.1118196916 7.0340211157 2.4757561080 3.3146041732 0.3354601499 5.2583637278 6.8266500642 4.4084610206 2.4366835376 7.1764433554 7.1569726534 1.5882298407 6.8236846450 1.9172566582 3.0128880906 5.9468403897 8.2550845677 -0.2721354717 2.0675146493 4.5363248482 2.8900923590 1.6213550792 1.6556140482 3.8252420149
4.1920653533 4.1827370326 1.2555382040 2.7186719589 7.3377998466 6.2727213795 1.3254071323 2.6968524490 2.4448282626 6.0608039970 1.4912942782 -0.8230644204 7.1374831621 5.8904870555 3.0724733885 1.4637306129 5.8483292407 3.4195367531 2.7676063218 1.6894407276 4.9754985238 7.1708668004 2.8376700732 1.8564201318 6.0551136349 6.9111921796 0.4231493967 2.0363971566 6.1348963555 4.8018755787 2.4134906207 2.2990096565 0.7386893119 6.1076191339 2.5247232005 0.7631534630 6.5006473666 6.0424009080 4.8812203033 4.6925310248 6.1706060092 0.9490651975 -0.4438352404 2.8207603962 1.8585098644 4.0107522809 2.4500727674 4.2896372827 8.9766806033 5.6363732275 3.0778204445 1.8227131936 7.0132488014 2.3793361284 3.2594944613 0.3667097498 5.6019883611 6.8094950778 4.3231233414 2.0767499691 6.9172651095 7.1327065790 1.6772470240 7.0585970513 2.0979626594 3.2726391980 5.9645797158 8.2228376552 -0.3582929186 1.7737815760 4.4154194979 2.8686168161 1.7132106359 1.4055208672 3.8918598813
4.2332510514 4.1137631271 0.9789967352 2.7248751924 7.2349174498 6.1501990750 1.3796598214 2.6845586880 2.4496858358 5.9705929967 1.5122752025 -0.8293566033 7.0357025945 5.7934358837 3.0450712684 1.3866629776 5.8791791705 3.3582060651 2.7668241744 1.7134804524 5.0182115526 7.2235113738 2.7513822989 1.8970925363 6.0824198894 6.9435965227 0.3654011882 2.0499888779 6.1803890232 4.7145883546 2.3464505577 2.3801227045 0.7494680269 6.1641282247 2.1708771749 0.9125699026 6.5984052059 6.1466652298 4.8340855155 4.6935682389 6.3849799952 0.7176584007 -0.4065169094 2.7877158399 1.7327469674 3.9877772776 2.4440366823 4.4310543778 8.9288481376 5.6327645355 3.1591447191 1.9213645957 6.7930814077 2.2430689947 3.2028407992 0.3777567937 5.7035364198 6.7605955744 4.2676888963 1.9925053065 6.8241380251 7.1569621006 1.7160971456 7.1430254425 2.1772195734 3.3528858921 5.9441102850 8.3025917515 -0.3815433616 1.9552955544 4.5580853909 2.7745385227 1.7946168311 1.4946136334 3.7787757098
4.1711353183 4.1730589069 2.2178230828 2.6527302166 7.8246567751 5.6416890030 1.7105178252 2.8660641760 2.1064410191 6.3626060117 1.2609402074 0.2114930278 7.1949660407 5.8650272829 2.7458303098 1.5548091791 6.1489043665 2.9133847941 3.1438855333 1.9535582401 4.7549616390 7.2611336037 2.7436109664 2.8098280747 6.0503086465 7.1591542404 -0.0191350316 2.3661380332 6.6213808572 4.1877848807 2.4879074113 3.1004661860 0.4157302265 6.5717946501 1.5081440916 2.1482175153 5.8276134778 6.2600395107 3.9995207592 4.6822874405 7.6017609926 0.4953008553 -0.0956019323 2.6043287261 2.2621180024 4.5940847854 1.8087193690 5.2343423753 8.9113599811 5.9949864589 3.3833132860 1.6936986684 7.2571626394 1.8519431102 2.1832971455 0.7008047905 4.9381788601 6.4730577024 4.0164128646 2.3783597878 6.9275017918 6.4558156697 1.0753315116 7.2116196377 2.4555616304 4.3691415456 6.9510212361 8.3657718873 -0.4594596368 2.2469934906 4.8409161949 2.4457826097 3.1596647555 2.4856766796 3.2758875588
5.2008542235 3.1084153976 2.4722807609 2.8366221902 4.6977296096 4.9043365902 2.2272366397 1.5319018668 2.4575251218 7.5575153794 1.5042776707 -0.0020782791 8.1838553889 4.6993336569 2.5297205143 1.1459296869 4.6189178437 2.1698647061 4.1004638640 1.5731404339 4.6753618430 9.2585240454 1.5642349704 2.7496080311 6.3011685335 4.6835642576 0.2963827748 1.4212959515 4.6452154060 3.6922399376 3.8855118409 1.6141873942 1.3097663494 9.0690824547 1.5866920803 1.2272420421 6.4752980373 4.6033989224 3.6895357204 4.8224668175 4.6948202057 0.6105238053 0.3738344274 1.4949404776 3.0149075103 5.5721359906 1.5740394415 4.2972174111 10.0180754727 4.5964888607 1.8876727212 1.8448707317 5.8325042061 1.4551823035 3.3711863719 0.3690356044 4.0694133938 8.4984542187 2.7414868235 3.4528806665 6.9994478932 3.4510601290 1.0401208858 8.5893059284 0.3513530580 3.4167002279 7.0001074740 5.9860541737 0.8623603617 1.9289309476 3.4089100565 1.5932568904 3.3411583747 2.7681403064 3.9264134727
4.7154728414 4.3505382595 0.8801153122 2.8743787589 8.3108646847 5.8054230818 1.5856700977 3.5831646871 2.3972104875 6.2407994296 1.4336822583 0.1331271892 7.4296585269 6.4307020043 2.9774713358 1.7899347626 6.5282061688 3.2350165810 2.9353454181 2.0585815263 4.9591727094 7.3712987700 3.1331847593 2.7659956554 6.1641132544 7.7995794529 0.3627077339 2.2055674049 6.8682242550 4.7046110769 2.4593643757 3.0470487731 0.6548909882 6.5215570649 2.2553267137 1.8058096753 6.1517511438 6.8800941950 4.5055720989 4.7403023351 7.8168904683 1.0528426932 -0.1810449180 2.9115444847 2.4166767303 4.5146375814 2.0644412800 4.9151416207 9.3393016540 6.2394673329 3.1702696093 2.1446679260 7.6719075343 2.2749070601 2.4199643488 0.6270886209 5.3409796194 6.8773900270 4.5985047649 2.6255445625 7.3011972963 7.4323584661 1.3548712364 7.0708474174 2.8123589427 4.2159530426 6.4949031648 9.2186060381 -0.1364085062 2.5399551575 5.2771798038 2.5483248423 2.5132615111 2.2193667822 3.4611215771
4.4627359410 3.6919971125 2.1539022628 3.1904594286 7.1804938706 5.8763445442 1.3136369653 2.7785853302 2.0290009008 5.9485984254 1.4971351641 -0.5067817644 7.8437259835 6.0081319044 3.1512113027 1.8729037050 5.7283668038 3.3946103940 2.9143532589 1.7243359932 4.6485068746 7.3690501676 2.9827666786 2.1150564776 6.3003485411 7.0259888005 0.6078511624 2.7050876014 5.6207902675 4.7446271541 2.8395326493 2.4976530460 0.8737112834 6.5365984758 2.7957811970 0.8041703807 6.6821138811 6.0768127080 4.6339462799 4.9767453890 6.6932499771 1.3535939427 -0.4167267065 3.2222802110 1.6721082828 4.2496357128 2.1193928653 3.9372269137 9.6002702018 5.6917987709 3.6175400573 2.3894085908 6.8890903981 2.5435215907 2.9980782873 0.2388695794 5.0830627309 6.9343376644 4.3441297588 2.7018133980 7.4154076728 7.1903315496 1.7059141605 7.1521467402 1.7891573667 2.9925682532 6.0497812046 8.3845571897 -0.1235317974 2.1591126988 4.3845443165 2.5929642145 1.7670794522 1.9083010165 3.6570779276
4.4053250159 3.8651894536 1.3300785155 2.6494208447 7.8813284304 5.7305241355 1.6867120162 3.4882714889 2.2035080436 6.1326522413 1.5798898762 0.0305952297 7.0104731481 6.0471534984 2.7299743919 1.6398707802 6.4123260603 3.0418634413 2.7757632302 1.8451940367 4.8893818069 7.1614453329 2.8790948428 2.6186616008 5.9092985182 7.6972598094 0.0345767875 2.3318696742 6.6825363206 4.3712633238 2.0153927916 2.9434670187 0.4137516214 6.4353625880 1.7024281723 1.9161433551 5.8503002538 6.6778480275 4.1086842227 4.4587683496 7.9694592183 0.5411819235 -0.0182394193 2.6875817029 2.2143214907 4.3165055827 1.9647842916 5.2826937695 8.8212560848 6.3248842396 3.2670173281 1.6690677124 7.5368862264 2.0164950502 2.1564309110 0.4305236640 5.1375788992 6.5012609602 4.2528212782 2.1945066759 6.7326694537 7.0353043991 1.1501286891 7.0877711477 2.8498933710 4.1474089388 6.6095028007 8.9988214367 -0.3661251426 2.3769813331 5.1992140402 2.3420698624 2.8245440586 2.2938043370 3.3572792942
4.5589440004 4.3318347182 2.4259261167 2.7072638737 6.9665271233 5.2419815752 1.8963907515 2.7143732298 2.3759948418 6.9374083183 1.1067659497 -0.0180494632 7.7345291215 5.1295071423 2.8073425790 1.1919002852 5.8988088490 2.5094218024 3.7908710294 2.0563218018 4.8313472537 8.5298392163 2.0248493370 2.6327789525 5.8784776266 5.8349943366 0.2496072270 1.7159623516 5.9935541387 3.9658424879 3.3117911826 2.1059875784 1.0955741652 7.9689529768 2.0555120249 1.1852492205 6.2979601961 5.5145426054 4.0332033777 4.3581840595 5.5866554240 0.3335175181 0.3441419880 1.7477530657 2.5956420594 5.2858701034 2.3178290135 4.7462226291 9.3468267901 6.0105456304 2.4112774030 1.8532615671 7.0933165691 1.7356724262 3.3747329495 0.6669217197 4.3528049161 8.2743488518 3.3677299487 3.4069385189 6.6890677814 4.9628230591 1.2486943785 7.8892769370 0.9209054066 3.5730599010 6.2387434305 7.3135423512 0.5293725515 1.6045526075 4.5386399250 1.9166118162 3.0429631369 3.0818171203 3.9126961681
4.2238519564 4.0360868574 1.9080036027 2.6145465949 7.8739804349 5.8124667388 1.6671996717 3.0975092919 2.2739458683 6.2484638982 1.4581704683 0.0472897367 7.0386945424 5.8409411635 2.6870939779 1.5259581955 6.3089258064 3.0463963717 2.9169172616 1.9043747568 4.8328979632 7.0374952077 2.7957014600 2.6613717872 5.9078388845 7.4330315797 -0.1071308211 2.2820782033 6.7503704450 4.3523976346 2.1916941358 3.0417435513 0.2684801208 6.3392832181 1.6586283248 1.9095145094 5.7972249618 6.4219848905 4.1229020685 4.5323200172 7.8611120676 0.4589471287 -0.1154582175 2.7180209828 2.3194918301 4.3398605258 1.7653884224 5.4611960239 8.7699538046 5.9381802348 3.4424655030 1.4376277582 7.4866350451 2.0524351812 2.1337097067 0.5152359735 4.9177419710 6.3367490612 4.1282433269 2.2729428032 6.6019945930 6.6578838941 1.0665893630 6.9784887987 2.7040845510 4.2314794594 6.7818351614 8.6520120674 -0.5382397379 2.2019619800 5.0417797516 2.3332669875 2.9734119421 2.1336453207 3.2465731204
4.5617698050 4.4516320079 2.5969340517 2.8150545202 7.3237804613 5.3657413067 1.8781794741 3.1171950058 2.1913018867 6.8606808229 1.0235070053 0.0110535234 7.6983104141 5.2985238497 2.7551650976 1.1221309744 6.3079861758 2.6617433718 3.7757360687 2.1129830222 4.8670967440 8.5228771662 2.1614244409 2.6357234938 5.8309181909 6.2559661488 0.2227864834 1.8503961653 6.3562954985 4.0460221238 3.2274512473 2.6744356496 0.9597474174 7.4687198744 2.0561272028 1.5132423356 6.2777868809 6.0621465838 3.9393140593 4.2668844171 6.0631822650 0.2299627768 0.3385976088 2.0167414536 2.3899233324 5.3450277629 2.2956467845 5.0298867359 9.3091165007 6.4450211183 2.7220824589 1.6954577761 7.3902368359 1.7141238450 3.4520813589 0.5676242380 4.7883241949 8.5082820679 3.6113318035 3.2156545169 6.3289237802 5.1865437798 1.2501738852 8.1030216849 1.2079597731 3.7866479360 6.2576982974 7.6674037929 0.7180826367 1.4593720735 4.9100540208 1.9716158114 3.2562376470 2.9935704504 3.6703391934
4.7927571557 4.6800853095 0.6740240873 3.0187049548 8.0279806767 5.6311693630 1.5921917345 3.3145424343 2.2241264977 6.1961305188 1.3681301482 0.1428384900 7.6735307008 6.2868351734 2.9842836509 1.8754181888 6.3294135682 3.0690543175 3.0244214055 1.8697593503 4.9212703705 7.2863545984 3.2201905105 2.6483924537 6.2083669085 7.5301696052 0.2621835479 2.2240940128 6.9076897005 4.4622137097 2.5873525811 2.9686526708 0.7448445979 6.3347644498 2.3847005740 1.7046782420 6.4830775524 6.4505911446 4.3488918209 4.7505293022 7.2788002526 0.7809115320 -0.3484837044 3.0970694974 2.1789176122 4.5404744313 1.9888221043 4.6689055707 9.4792617159 6.0319302326 3.0730590760 2.0760596160 7.5156260093 2.0432793234 2.6425335101 0.4888031679 5.4322587312 6.7683937983 4.6969828151 2.5055740996 7.0825174458 7.3570213535 1.5250424428 7.2763108423 2.6549683631 4.1309538993 6.4079493340 8.8980516808 -0.4230571799 2.5497183893 4.9291963474 2.8839701018 2.3633173985 2.1414023459 3.5889399618
4.1953247313 3.9013355742 1.7471074788 2.8657208771 7.2930724855 6.0474621062 1.3190771239 2.5774413571 2.2076512998 6.0568942715 1.3580131623 -0.6006416475 7.5059474624 6.1316817417 3.1534583588 1.7370296940 5.8340870535 3.4257241207 2.9165445116 1.7442527749 4.7467487036 7.2337006099 2.9696079534 1.9022245838 6.1288971523 6.9627143086 0.5101432883 2.2945334498 6.1335832617 4.8344015398 2.6653330995 2.3650453872 0.7716837712 6.2630017288 2.6854218617 0.6818029208 6.4324391275 6.1402972938 4.7265817170 4.8202465463 6.5416739225 1.1348777510 -0.4804171300 3.1430185658 1.6645705820 4.1484468925 2.2726081078 4.0459377974 9.3816983447 5.7064642376 3.4160736060 2.1693096646 6.9971439942 2.5061780436 3.2489085217 0.3054715927 5.2544249016 6.8288166297 4.3586083866 2.4882940516 7.2614303794 7.1501275254 1.5719870495 6.8558743882 1.9094559504 2.9707149451 5.9919103032 8.2775517117 -0.3135518394 2.1625448304 4.5119474634 2.8287748283 1.6274908865 1.7120990847 3.8171474679
4.5319678850 4.4877567811 2.6632737269 2.7340244634 7.4505574035 5.3422578153 1.8285304837 3.2060366226 2.1524955207 6.8283798304 0.9882986548 0.0284042491 7.6751660974 5.3957600800 2.6935355405 1.0434303346 6.4485358260 2.6341420097 3.7762977487 2.1750523392 4.8489609514 8.4844148924 2.2224176200 2.6946652513 5.8771981372 6.3716177207 0.2520081524 1.7323786364 6.5321974601 4.0244464618 3.1162380025 2.8334245824 0.8676574872 7.3863559224 1.9406135833 1.6205198111 6.2964620957 6.1414763018 3.9544545116 4.3553243531 6.1374051566 0.2657732646 0.2440754004 2.0582634756 2.3087084505 5.2947505747 2.2345525789 4.8824698345 9.1997675006 6.4147364047 2.8392711878 1.5936679555 7.5647419973 1.7096764839 3.3498299490 0.7041683972 4.9628050865 8.3967943683 3.7503588611 3.0551101277 6.5393692663 5.3389386750 1.2394782910 8.2057299448 1.3122573111 3.9643585865 6.2975990822 7.8109005028 0.6729409527 1.3580740717 5.0569120298 2.0564446804 3.2564331974 2.7773702943 3.5055941854
4.7553096513 4.5893813912 2.7055685095 2.9443328461 7.7626015577 5.3738159593 1.8609424831 3.1315092103 2.0427079000 6.5952551560 1.1792119216 0.3683760945 7.5105191696 5.6794098220 2.8283105037 1.3429813162 6.4176200534 2.8460588687 3.4330183973 1.9567985684 4.8089098204 7.9770593450 2.3142889809 2.9695929238 5.9028707664 6.8510011310 0.0646353610 2.1235432348 6.7424871935 4.1066345567 3.0092736667 3.1210548632 0.5625356143 6.9230737430 1.4511004946 2.2116208250 5.8433910993 6.0544493209 3.8834002422 4.4651251608 7.0279058495 0.6902632799 0.0992859518 2.3671524149 2.2426559659 5.0336263424 1.9126297783 4.8016114553 9.1549880271 6.6232204741 3.1290726401 1.8772371373 7.3863325326 1.7470151812 2.7526607897 0.7108070495 5.3640889380 7.3609862263 3.7521485417 2.8940637544 6.5585027865 5.9711289007 1.1477237218 8.0632328015 1.8852676061 4.4399065201 6.6272596262 8.1953575473 -0.0807319010 1.4671707136 4.8939707792 2.4799942139 3.0498420882 2.3190516653 3.3484424502