-28926.8267256066
-28926.7178070644
-28926.6359988019
-28926.6940055513
-28926.3957994137
-28926.7134614086
-28925.9889140579
-28927.5237263433
-28926.8717721247
-28927.4792557539
-28926.9505075433
-28926.6928120606
-28927.0712150033
-28927.1763879005
-28926.992736324
-28927.3562523345
-28926.5126386415
-28927.0722974716
-28926.6622003579
-28927.2908608275
-28926.7832667359
-28927.3082776009
-28926.9349782866
-28927.6742114776
-28926.6484429695
-28927.2028653797
-28926.7378512316
-28927.2093322979
-28927.1891410532
-28926.955896483
-28926.1897637644
-28926.983562691
-28926.8250447603
-28926.9463793064
-28926.7095376652
-28926.2752850183
-28925.873574993
-28927.6061105345
-28926.7132351461
-28927.0886939547
-28926.7726617848
-28927.0962452459
-28926.6454948897
-28926.6388912345
-28927.3355486997
-28926.7842784546
-28927.2530193359
-28927.2296808242
-28926.9307398436
-28926.7889309186
-28927.2649889373
-28926.4794204977
-28927.1286723551
-28927.1476811297
-28927.2801747865
-28927.2941189809
-28926.3321427676
-28925.9897363855
-28927.0225478764
-28927.1445120936
-28927.0995204064
-28927.2616960894
-28926.8998118087
-28927.1450130549
-28926.5498062435
-28926.5805775408
-28926.9416718754
-28926.9702556508
-28927.0813407623
-28926.1842121007
-28926.9638627476
-28926.0936853152
-28926.9945196212
-28926.1234487035
-28926.8948752581
-28925.99868362
-28926.5853968105
-28926.614031199
-28926.7842768219
-28926.837582535
-28927.6659043906
-28926.3338242942
-28927.3302113256
-28925.9935697873
-28926.9183766298
-28926.9528346596
-28926.7654427444
-28927.7793408365
-28927.2416885215
-28926.6669902393
-28926.9398619112
-28926.6419389079
-28926.8591355727
-28927.4798867855
-28926.2590633683
-28926.9658665929
-28926.7853173847
-28926.1316566051
-28926.7348109053
-28926.8984053891
-28926.725926393
-28926.6890185235
-28926.651876092
-28926.6861482682
-28926.6382923122
-28926.5656620366
-28926.4764562271
-28926.0468723711
-28926.9149171123
-28926.8943635483
-28927.6607131415
-28926.6296660358
-28926.5745864135
-28926.6544419881
-28925.8762806195
-28926.4331862033
-28926.9082485579
-28927.2280909999
-28926.9796333691
-28926.0569118699
-28926.9965372082
-28926.7202804419
-28925.9932168558
-28927.1655160058
-28926.0135448376
-28927.0058187344
-28926.9995999839
-28926.8029270867
-28926.9690221594
-28927.0919930612
-28926.7386541031
-28927.1375632621
-28927.0575076839
-28927.1181527116
-28926.9410601638
-28926.6907420917
-28926.2780732313
-28927.2102720425
-28926.8805613972
-28926.6140446686
-28927.0118214265
-28926.0147911183
-28927.0042276856
-28926.8209196527
-28926.6371193661
-28927.1566270036
-28926.8423064289
-28925.8049198904
-28926.9531790195
-28927.2784008773
-28926.1502623792
-28926.9770765888
-28926.6016761486
-28927.2755376969
-28925.8010410456
-28926.632839834
-28927.1928443846
-28926.6480844597
-28926.9381923575
-28927.2468766413
-28926.749976618
-28927.1073571449
-28927.0679878709
-28927.3896085759
-28925.8343948381
-28926.0471919686
-28926.5734156443
-28927.2976833982
-28926.4601428748
-28927.3451325442
-28927.2543833058
-28926.9138936927
-28926.8325202678
-28926.6433051908
-28926.6278193362
-28927.333306755
-28926.5688869921
-28926.6269059866
-28927.1143463852
-28926.8147521957
-28927.4867890856
-28925.8853745233
-28926.6219906608
-28926.623154219
-28926.7291838661
-28926.7948364662
-28927.6939817623
-28927.1191130009
-28926.1434749112
-28926.8309923494
-28926.7623098993
-28926.6238011693
-28926.6532980222
-28927.0207120613
-28926.1210550553
-28927.1221851646
-28926.3175803309
-28926.7102686986
-28926.2826628371
-28926.3474435848
-28926.9424124329
-28925.8980996483
-28926.7149636123
-28926.9316296554
-28926.8063276916
-28926.3347052623
-28926.8436631878
-28927.1448372694
-28926.8880582657
-28925.7382074074
-28926.9212294698
-28927.3830228802
-28925.9660595005
-28926.9832549304
-28926.5609381428
-28927.0226112789
-28926.2226978214
-28926.879572536
-28926.9937156612
-28927.7030046444
-28925.9761117887
-28926.9775522436
-28927.0873435905
-28927.4540831958
-28926.7724630057
-28926.9032667003
-28926.6239644375
-28926.9454957532
-28926.9200053664
-28926.723762817
-28927.7087923668
-28926.9043601892
-28926.8407375573
-28926.1380456987
-28927.0947891655
-28926.6313830733
-28926.861835893
-28926.8568465523
-28926.6959636814
-28926.0792329485
-28926.8063557193
-28926.6340501957
-28927.1508022738
-28926.5166844279
-28926.7873532034
-28927.1451363224
-28927.0113669966
-28927.1134790228
-28926.9048385651
-28926.7688600843
-28927.1097043976
-28926.5810219025
-28926.405670066
-28926.554864565
-28927.1881298787
-28926.7076902853
-28927.0064693582
-28926.8913659437
-28926.4191541162
-28927.3630882388
-28926.5646512703
-28926.6435367595
-28927.7113216636
-28926.9416173166
-28926.8918538436
-28926.9777904791
-28926.6538105483
-28926.8415484561
-28926.8284672703
-28926.5722218815
-28926.791995327
-28926.9928214956
-28927.2333195286
-28927.3198485556
-28926.9511774872
-28926.5128593257
-28926.9938070914
-28926.5620381624
-28926.9247857238
-28927.1245686084
-28926.0359036039
-28926.7279275171
-28926.7658341799
-28926.4445069495
-28927.0174653367
-28926.793156028
-28926.0366196711
-28926.7698927558
-28926.9074417408
-28926.7906113567
-28926.9048053672
-28927.5191602754
-28926.7296953038
-28926.1505055128
-28927.1404691643
-28927.1586176514
-28927.584706343
-28927.6861652963
-28926.9801317454
-28927.1088456068
-28926.9865539008
-28925.900101997
-28926.2556359602
-28927.1966206424
-28927.3122402566
-28926.109035249
-28925.9925860963
-28926.7224645625
-28926.201870375
-28927.127090014
-28927.0482691517
-28927.3469619646
-28926.4020675528
-28926.3852682054
-28927.061696194
-28926.9914425595
-28926.8137056464
-28926.685080494
-28926.55323474
-28926.7568915714
-28926.8636181017
-28927.0498128527
-28927.0712204456
-28927.0958231975
-28926.9858175611
-28926.987176769
-28927.1616922641
-28927.0542478978
-28927.4995245509
-28926.3591466508
-28927.1860569165
-28926.2611308882
-28927.0851318503
-28927.1108215604
-28927.186180184
-28926.6376771992
-28927.7102560663
-28926.2037868718
-28926.7310817231
-28926.7136750179
-28927.3016271421
-28927.0373607938
-28927.446944429
-28927.3850762502
-28927.2331257837
-28926.7676531239
-28926.8266287341
-28927.7111466945
-28926.807836426
-28926.2431781869
-28926.5830160878
-28926.9195778757
-28926.6418927846
-28927.1311655969
-28926.6652311603
-28926.4863622542
-28927.1240072379
-28927.7096949679
-28925.733496439
-28927.214930493
-28926.5101195489
-28927.0467015047
-28927.4887810939
-28926.0069502981
-28926.7008489387
-28927.1381628646
-28927.0877514889
-28926.7727009691
-28926.6305886373
-28927.0928227358
-28927.2021158425
-28925.9385464925
-28927.3901574293
-28926.496451686
-28926.8197043929
-28927.2778124314
-28927.3202473383
-28926.5772449644
-28926.8010888226
-28926.5950318124
-28926.9213030766
-28926.9969361269
-28925.9359346092
-28927.6412296646
-28926.8514757081
-28926.1166930727
-28927.7012198507
-28926.8923013346
-28926.6864436476
-28926.894561647
-28927.454578987
-28927.2061224447
-28925.9800311783
-28926.8923043278
-28927.1051630921
-28926.6108112776
-28926.7054082037
-28927.0867540561
-28926.9280611564
-28927.3357770031
-28926.9350784244
-28926.8332733425
-28926.6002312249
-28926.1238683028
-28926.7341887173
-28926.8501284732
-28926.1600700372
-28926.5378743299
-28926.4337904318
-28925.9712250348
-28926.7810598938
-28926.7043189326
-28925.7761820987
-28927.0742983237
-28927.0401692793
-28926.9953741942
-28926.745309596
-28925.9509084818
-28926.9256162148
-28927.2573060791
-28927.5646772781
-28927.0087949779
-28926.6528762459
-28926.9032692854
-28926.7486657103
-28926.6075297225
-28926.7330424383
-28926.7144761206
-28927.2657435085
-28926.6669054758
-28927.3234000476
-28926.3022240024
-28927.3755664206
-28926.6464335459
-28926.997970295
-28927.4656687087
-28927.0076828492
-28926.5442621989
-28927.6941761876
-28927.4860445825
-28926.3129972559
-28926.8128348826
-28927.6445844183
-28926.7507066991
-28927.5404859621
-28926.616649341
-28927.150359817
-28926.898333279
-28927.0389666728
-28927.1867128466
-28926.7525128538
-28926.5509310254
-28926.8767667717
-28926.067851793
-28925.9304575046
-28926.6572477525
-28927.2886445975
-28926.7797146997
-28926.9898776336
-28926.2248462952
-28927.102927406
-28926.5851309554
-28927.1436481326
-28926.9157145415
-28927.169319475
-28926.9434248319
-28926.7628797054
-28926.3078809741
-28927.1324842599
-28926.8174447607
-28926.9614973993
-28926.5745073645
-28925.7352404157
-28927.1945821027
-28927.2803758785
-28925.994447354
-28926.9551831369
-28927.0806674169
-28927.1135571194
-28927.1196203569
-28925.7342666568
-28927.0766678898
-28927.1296730533
-28927.2108844344
-28927.7062172188
-28926.2898176586
-28926.1557601644
-28927.5452336659
-28927.0795023621
-28927.3440858589
-28927.2820171323
-28926.2321790791
-28926.4208495206
-28926.6106484176
-28926.7437126967
-28926.6006896004
-28926.5836536502
-28927.1199096137
-28927.3247089145
-28926.7263651763
-28925.8852123435
-28926.6191038065
-28926.4365847673
-28926.5196484264
-28926.5494617475
-28927.3493323471
-28927.0161368777
-28926.6178535802
-28926.5813711604
-28926.0826561389
-28926.8522247011
-28926.5581711546
-28926.7703735806
-28926.9012640795
-28927.0000458422
-28926.76206731
-28927.2357648784
-28926.7098851543
-28926.2884191302
-28926.5910637144
-28926.5957892409
-28927.0195358499
-28926.6641092355
-28927.3120214772
-28926.6409772581
-28927.0344267278
-28926.049921133
-28926.8721260086
-28927.01088209
-28927.0342807388
-28926.8029529375
-28926.8919669068
-28927.2837004276
-28927.1761112969
-28927.035827297
-28925.9539535702
-28926.9164458471
-28926.5623207525
-28926.9001153516
-28926.6715492322
-28926.7192951182
-28927.001608047
-28926.1020480495
-28925.9317572557
-28927.2373453147
-28926.0196771919
-28927.5000501385
-28927.1516290913
-28926.7668973281
-28926.7404949523
-28926.8628891091
-28926.6513530895
-28927.2025196593
-28927.3257969611
-28926.8921537129
-28926.4563687938
-28926.7354895568
-28926.6734064082
-28926.6351314395
-28926.9313248881
-28926.2895767019
-28926.6489222978
-28927.05824035
-28926.6074193804
-28927.0621457259
-28926.634807216
-28927.0767376869
-28927.131153896
-28927.6851153456
-28927.1501456635
-28927.3126836659
-28925.9939597262
-28927.0011472224
-28927.1362235103
-28926.2727663339
-28925.9136513544
-28926.8942458591
-28926.8924935829
-28927.1483829109
-28926.6047247745
-28927.0834172619
-28926.9951171828
-28927.0089605591
-28926.9677339731
-28927.0565595037
-28926.5817372894
-28926.3247880785
-28926.5953897779
-28926.2504272959
-28926.7070342191
-28926.6475558789
-28925.9674822469
-28927.0009383752
-28926.5547751757
-28926.9589508232
-28926.5746766192
-28925.943559235
-28925.7585039601
-28927.4743264142
-28925.9200627613
-28926.6089185908
-28926.5805606698
-28927.7093231245
-28926.8316794365
-28926.7227592616
-28927.168539325
-28926.7685227993
-28927.2049028311
-28927.1643467332
-28925.9323942739
-28927.2664161736
-28927.3533648
-28927.4219128259
-28926.0721286041
-28926.520319867
-28926.8994229583
-28927.0631265597
-28927.33157652
-28925.7394727361
-28926.9275431879
-28926.8345567668
-28927.1475929649
-28926.351787744
-28926.0297160105
-28926.6429356604
-28927.0266861815
-28926.8950654655
-28927.3937229351
-28926.7054604495
-28926.8329024515
-28927.2653214602
-28927.7107273673
-28926.7927950692
-28927.3491999637
-28927.1151167391
-28927.2229974397
-28927.1699736363
-28927.1182378832
-28926.7423617883
-28926.8006987476
-28925.9930056956
-28926.9514534105
-28926.8077317983
-28926.8949653277
-28927.2733874545
-28927.4689449576
-28926.0567198937
-28925.974549856
-28926.6502742947
-28926.9050008809
-28926.6382883666
-28927.0380252954
-28927.1645418387
-28926.8709097964
-28926.8971386998
-28926.9155510012
-28926.9804732481
-28927.2915783913
-28926.7527112247
-28927.1233405593
-28926.6071155654
-28926.919047254
-28926.6728084383
-28926.9236198526
-28927.2280841971
-28927.2295585091
-28926.9525349264
-28925.8768403574
-28925.8349955291
-28926.1550061374
-28926.3467988114
-28927.4747309112
-28926.3214852985
-28927.5985012831
-28927.1629763686
-28927.3513096612
-28926.5735997293
-28926.5944556116
-28927.6539928855
-28927.4595174425
-28927.6135569259
-28927.0456092403
-28926.7196211104
-28927.0488880743
-28926.6099368402
-28927.0795824996
-28926.5194401234
-28926.922168126
-28925.9251231237
-28927.2083283344
-28927.4575235293
-28926.7294582927
-28926.9353699943
-28927.1933777274
-28926.7563484324
-28925.7794931782
-28926.7546381978
-28926.4946037618
-28926.2132262239
-28927.357833179
-28926.9344385491
-28926.9917013396
-28927.4719353511
-28927.0447986136
-28926.9737438763
-28927.0648918973
-28927.2977085687
-28926.8126785532
-28927.263650546
-28926.5638429565
-28926.6915633308
-28927.196147981
-28926.572043511
-28925.9503745947
-28926.9671551873
-28926.4415607745
-28926.530024802
-28927.1101739298
-28927.0114128478
-28926.5206854517
-28926.9000563029
-28926.5844659095
-28926.8183925328
-28926.8931485606
-28925.975215174
-28927.3031847209
-28927.234794793
-28926.8089052886
-28926.9373877173
-28926.7526923128
-28926.5218951332
-28926.7491515693
-28926.7714925122
-28927.1142809419
-28925.9685157348
-28927.1895326248
-28926.4189173772
-28927.0877312164
-28926.9608903136
-28926.942575429
-28927.1634314788
-28926.6329584755
-28926.2960924644
-28927.0935238368
-28926.840088158
-28927.173292335
-28927.4185572558
-28927.0143390224
-28926.9899229405
-28926.9827200909
-28927.0149247472
-28927.0847582382
-28926.9155641987
-28926.728736239
-28927.1101486232
-28925.7599290195
-28926.6353736207
-28926.8320187623
-28927.1537212375
-28927.1097116086
-28926.7510015343
-28927.2129127699
-28926.2674027008
-28927.2246094412
-28926.7952853177
-28927.1598125027
-28926.8442504091
-28926.5926093202
-28926.1733855129
-28927.1476585443
-28925.92836427
-28926.5602895598
-28927.7043567774
-28927.4639315348
-28926.6107066499
-28927.0669692133
-28926.6246459463
-28926.8274607218
-28925.9437995114
-28926.9649490255
-28926.6218375968
-28927.207054162
-28926.632256014
-28927.1414836042
-28926.8757587265
-28926.9483558042
-28926.0403299414
-28926.7108295249
-28927.0952721673
-28926.0996212035
-28927.0278149092
-28926.7239731608
-28926.3725033517
-28926.6179866438
-28927.0476019289
-28926.5583221777
-28927.6277514649
-28927.0286024062
-28926.7438151476
-28927.3542996466
-28927.1937322916
-28926.6215717417
-28926.1112686222
-28925.8996554584
-28926.6296590969
-28926.1486633031
-28927.1829178129
-28927.5626028193
-28926.3380681795
-28925.9648983913
-28926.877617263
-28927.1506560127
-28927.1242847939
-28926.9562696869
-28927.0973312517
-28927.3837015318
-28927.6391454097
-28927.2698566432
-28926.4147173023
-28925.9837415847
-28926.9153282761
-28927.1887045828
-28926.6113092457
-28926.9442557311
-28926.905805113
-28926.9303206525
-28927.0689587726
-28926.647281044
-28926.9878878021
-28926.9073916719
-28926.8289599322
-28926.8527399484
-28927.0702930821
-28926.6843781686
-28927.2544686135
-28927.0204123281
-28926.5969642278
-28927.2034890643
-28926.8638268129
-28926.2414865921
-28927.4463830584
-28927.1448893792
-28927.0125124592
-28926.979704799
-28926.6317788627
-28926.5907505115
-28926.0985557423
-28927.0981162997
-28927.3898947035
-28927.2056203949
-28927.1864091677
-28926.5865696206
-28927.1723958564
-28926.6550641761
-28926.9885973386
-28926.9194528395
-28927.7108722678
-28926.989486198
-28927.6262361997
-28927.2432138548
-28927.1741911266
-28926.6576185074
-28926.8478799977
-28927.3495218742
-28927.0050272917
-28926.9913413332
-28927.3627766686
-28926.8509835905
-28927.5823200419
-28927.1401555532
-28926.9120678097
-28926.8390069142
-28927.158710034
-28927.5615798079
-28926.4709355844
-28927.3540035869
-28927.0662185876
-28927.7877155438
-28926.0470901981
-28926.9191038537
-28927.2056978112
-28927.3355976802
-28926.6325626862
-28927.2025661907
-28926.9403662739
-28926.7410795885
-28926.6566910079
-28927.1355285319
-28925.9609656681
-28927.1037249712
-28926.8995794236
-28926.7056185476
-28925.7463923154
-28926.82081761
-28926.5719522169
-28926.82529769
-28927.0061685365
-28926.9348963804
-28926.3291314213
-28926.1430287808
-28926.6817698227
-28926.9776421771
-28926.9149460924
-28926.827260174
-28927.2606215124
-28926.8063876927
-28926.6508424681
-28926.707701578
-28927.0664720616
-28926.9113607223
-28927.3019134057
-28926.5509601416
-28926.2013672367
-28926.8010463729
-28925.7468185815
-28926.7363260343
-28927.0153104683
-28926.7865369983
-28927.1793572052
-28926.6743910516
-28927.1166224803
-28926.3755261268
-28926.9940900897
-28926.8313749413
-28926.4889595795
-28927.0011737535
-28926.9509600684
-28926.9263117374
-28926.8302184581
-28927.0272143542
-28927.700035884
-28926.7859776686
-28926.9871050671
-28925.9468127625
-28927.4825024785
-28926.7299778938
-28926.8909928759
-28926.152690858
-28927.2621057566
-28926.580740537
-28927.113491404
-28926.9883151567
-28926.7768022668
-28926.658493353
-28927.1413325811
-28926.1942194902
-28926.825173198
-28926.7796449026
-28927.7504668519
-28927.1981472003
-28926.6771145016
-28927.1294950909
-28927.1096801795
-28925.8760000703
-28926.8730788147
-28927.0523441904
-28926.9326347074
-28926.7375380287
-28927.142392736
-28927.3431793121
-28926.6416703317
-28926.897998307
-28926.6586498183
-28926.8889659009
-28926.7478518182
-28927.0198102765
-28926.0434453711
-28926.8290404779
-28927.3327698746
-28926.7874899405
-28926.6710666385
-28926.8956034343
-28926.708780917
-28926.8423691511
-28925.8675244089
-28926.7261209543
-28927.2820257038
-28926.0457054115
-28927.6767233591
-28926.7000081074
-28927.1714068592
-28926.9138438959
-28927.707155875
-28926.6735804249
-28926.6359699578
-28926.3280311296
-28927.1202924777
-28926.6859743875
-28926.8980335457
-28926.5394772156
-28927.0377383515
-28926.9261850685
-28926.9459636527
-28926.1280396698
-28927.1088812537
-28926.8103185111
-28926.7760498724
-28927.3716258061
-28927.0959426555
-28927.249625806