0.0291210706812116 -0.171102198944705 0.112965729867582 -0.0142135651483604 0.461796885619113 -0.156477257503204 -1.09202870914228 -0.427162087058907 1.07450253639341 0.716915750462757 0.132634915993531 -1.11752581179111 0.361753256449615 -0.0509067878353671 -1.27721206149099 -0.756858845865572 0.159288757356634 0.749329117040007 0.776874102298125 0.715352777659008 0.079293037612957 0.480537132653115 -1.54313855288598 0.455667893071691 -0.249253924454381 0.231721838171295 0.695898535646225 0.168956614465795 -0.644480355656448 -0.769602254986322 0.189259062972997 0.0760465073295312 -0.215050813891788 0.360310868321792 0.281273398230948 0.777193947366042 -1.02038881324283 0.34868537427765 1.83251169321868 0.436537866999939 -0.274982683378285 -0.504267117012725 1.07165735510598 0.481164481500154 -0.764654169510395 -0.256299257694773 -0.153244868279855 0.281993306743944 0.116631863970011 -0.182001099611088 0.0228948904845347 0.196628612154421 -1.2019674808229 0.959960721102737 0.0243619611899459 -0.197959671572912 0.10686321966903 -0.0697663339943796 -0.678375191109368 -0.278395049729883 0.39017832986487 0.355237827296824 -0.466005522208121 -0.725099053374049 0.119633882469201 -0.12291589395791 -0.0507751474215622 0.702631737124197 0.484580447394317 0.109453090544531 1.50926402913753 -0.617589972924789 -1.19449380201728 -0.0494104065690696 -1.34395915060391
0.266817378179819 0.0413528305373691 -0.174659318329451 -1.34848531826918 -0.750194292806517 0.575751461251331 -0.0714928288746524 0.609646810924618 -0.319776676607772 0.426736826815873 0.50981529765627 0.265038947042537 -0.770709628545419 -0.645365586017249 -0.452389995345913 -0.104220898316154 0.0615529491916523 1.18239676789712 -0.563033763148902 1.05889312006039 0.868272915777465 -0.550325578123251 0.297975275732441 0.546618563501691 2.47375914543141 -0.317400464294521 0.514002851210254 -0.156070252083179 -0.050568173724076 0.128980866069713 -0.40650791182107 -0.672361641034208 1.34226145206415 0.04110960430405 0.674062682006343 0.482217090590227 0.0958861575069503 -0.580966427097433 -1.57264168929945 -1.27437279373778 -0.203637435748797 0.384085332743097 -0.386672375406583 -0.594132525359385 -0.624218530558193 1.41519795461755 -0.503553893364493 -0.583100184507914 0.10948342954615 -0.303176100518466 0.347874962980164 0.440399661951792 0.429003253080893 -0.863401963356502 0.955215495561364 1.57352537699915 -0.472938498298449 -0.311017703996267 0.107117244530044 -0.95280303071228 -0.240326030452506 0.129559621092125 0.404040939613145 1.07970644650164 0.314267833822258 -0.518442629853969 -0.639208825570039 0.0631534600821509 1.01365124089175 -0.179781467399413 -0.35891013204365 -0.711363970276647 -0.30208723889256 -0.889659340817092 -0.809456904486111
-0.471035368722309 -0.098335646222417 -0.270345187003679 0.317698197886681 -0.0811082355064382 -1.43296221139607 0.166544920947261 -1.06013701912677 -1.04042129605766 -0.785932351162889 -2.23882394419032 1.41077180281354 -1.86045031416729 0.782521784582573 0.156859580345641 -0.152025651791061 0.464386242274248 0.62786769538853 -0.741265627474092 1.88534423632631 1.78335196907824 -0.543383088956144 -0.166243844922719 0.808101676710398 0.540023687302288 0.865192221562212 -0.517848705330748 0.0037489235814233 0.701285765315079 -0.108505382409209 0.471638806322309 -0.363250666156645 0.560964540394406 0.0471084990987669 0.620360849369271 -0.489750418958356 0.72601153741427 0.657605573399269 1.24618888967438 -0.757162492991946 -0.823917552520539 0.340952271297164 0.190228368363709 -0.124804111143424 0.325399419204449 0.726084556706303 0.146005416851137 0.0261851294991067 1.84011341289554 0.00392967204022177 -0.0302117320783996 -0.0563577808296579 -0.656048514129733 1.33109181437485 -0.25621338289358 0.110673849694424 -0.595632506168247 -0.00586185506706466 -0.273360318122213 -0.282613199395669 -0.175229074495451 -0.11790353093618 -1.13045459735396 0.981532522584459 0.594053335422955 -1.33137849222913 0.180592135807083 -0.480204689186221 -0.245217294577943 0.00989617095185397 -0.284933104578797 -0.181516961136099 -0.39630475131046 -0.0622872558749075 -0.960876290465157
0.26452138424373 0.0282124432937382 -0.183393608363367 -1.38141599053506 -0.742284040909798 0.617915217306553 -0.0230987788598223 0.671701124973535 -0.373367694755879 0.373001826965167 0.492454446755204 0.173206131573934 -0.719121498724539 -0.613179504841959 -0.491748936412468 -0.224910732307809 0.176385813209724 1.03405730480278 -0.493694746279021 1.16759107799683 1.20616171924165 -0.679351181364843 0.223824184673553 0.68001838229028 2.67028002841906 -0.293351406197545 0.281805102089832 -0.180968288005123 -0.0410358136814679 0.148447706481474 -0.348946341113611 -0.678862414906556 1.13379522996444 0.0004093194116745 0.711272439051423 0.474182911585198 0.015782708596507 -0.501794745490952 -1.35724660487234 -1.44054979001286 -0.193160967113432 0.389296699046634 -0.358925044434276 -0.598529109492321 -0.562430839769268 1.54149767569672 -0.604283235392619 -0.537427902892573 0.171539286256166 -0.260109630609984 0.392465839164913 0.356650133533211 0.351618230137556 -0.782914391832339 0.924585445214878 1.4553809338213 -0.559630395653716 -0.283090138785529 0.0355215715821067 -1.02059167317739 -0.115435273177339 0.0143593466222419 0.505905937320522 1.11824829140594 0.432834451920944 -0.532020618629428 -0.672872004747885 0.0796105686892246 0.959629048966392 -0.06555512630354 -0.526170333520608 -0.706073928257047 -0.448581165091801 -0.788005173459949 -0.890040378108613
0.0647953657121467 -0.0892316317450411 -0.294190613835551 -0.243983937029072 0.94182673988075 0.353488706720428 -0.261094362611689 0.658212353431651 -0.0201486966176406 0.256730688582204 -0.491095876547108 -0.167753081698177 0.706943989117039 0.0313144776541986 -0.793234794586494 -0.0813517188499405 -1.97443445747058 -0.196547365336525 -0.0952436391591019 -0.873671972514747 -3.49958481060846 1.5028427023118 0.15063622836098 -1.12997045887897 -1.00718029180065 -0.335831921998484 2.42943694938812 -0.237702478143004 -0.300140914805641 -0.411702051742332 0.512218763648941 0.415471287028229 0.687884154125304 -1.17977604379964 0.765042405887046 0.0323426612768658 0.40069285080735 -0.0253770321932694 -0.0685386328695393 0.548690357358019 -0.101264902539758 -0.551816560075701 -0.270032541020892 0.149676950267413 0.481274010438203 -0.661567384212392 -0.367276497405389 0.9919526840897 -0.691283150747375 0.508041751612469 0.312565507299208 -0.527203916457123 -0.0383664957593545 0.0280268097414587 0.510526721533219 0.276887355615524 0.562637042136204 -0.0823742460485771 0.687002780417251 -0.141511387958764 0.534240507951286 0.28431629724927 -0.95694379021292 -1.00112097611288 -0.878803891771671 1.14683380157552 -0.192523333859065 -0.135727180167029 -0.69170532566821 0.568394767579068 0.545312957991338 0.435896377092823 0.926361562360511 0.197481189521954 1.46130886620545
-0.0263093137175984 0.503421995840505 0.294243321423109 0.758239013329057 -0.970416878033628 0.266579551260347 -0.260745206982886 0.233172196714798 -1.20177233419384 0.221988160855232 -0.423248355850044 0.426652237565596 1.66630230106051 -0.570637025486865 0.150374490194469 0.567413120899562 0.0590998609336206 1.03096118397654 0.795477309604474 0.619233678326067 0.999221703189488 -1.53451739133268 -0.311883136872961 -1.52061775771802 -1.09421928790326 0.0965662139415477 -0.602264149123851 -0.359848841322559 0.898205940417262 0.460482024142164 -0.11001487629485 -0.123081472915899 0.871759586972012 -0.296678154858133 0.092012792596852 -0.596127957491298 -0.11907595337163 -0.00938914967055867 1.1888006112304 0.452316461833514 -0.0841413643377975 -0.718624761850572 1.04061798534782 0.114711508011596 -0.280087863176155 -0.350861554868362 0.0144243954985947 -0.663226773334847 -0.147112276189867 0.572001252118992 -0.533652754072462 -0.565616177829089 -1.04510327249396 -0.772080540042309 -0.349299353395162 0.0258439442859835 -0.104235553596597 -0.401953204925459 0.0991892520306829 0.62805898536484 -0.350933031499295 0.051662434663829 -0.559484099959468 -0.295721704976582 0.381312399417149 1.04228071690266 -0.16796056961603 0.454874193936113 0.389213909567639 -0.243218777123831 0.447456050930063 -0.324137779535425 1.17173106616692 -1.12528693978157 0.127683745195405
0.0130761096978277 -0.0402122897646379 -0.0715792178962118 1.37975403031077 -0.306936594058133 0.109722284906355 -0.326806326126988 -0.247366478599417 0.41075357227646 -0.0059176479768218 -0.822257649177718 1.02111309262894 1.25749942374408 0.70295055375138 -0.542884809421078 -1.02390248100662 0.713063982808049 -0.583336211656103 -0.642801169049886 -0.639684736519166 1.14275166319665 -1.04601961318693 -0.369118177647741 0.578367300255336 -0.0718669241912268 -0.997135768273084 0.286948334194818 -0.447154460685154 0.768640662901107 -0.030298121099959 0.612768128548819 -0.658038804057982 -1.55378085758952 -0.432342085920092 -0.128089979284881 0.603779042323339 -1.94305904470296 -0.122629216103628 0.425053783556563 0.126556574152201 0.142681753512747 -0.815764331500684 0.328799444267253 -0.0337585670558178 0.275424912893411 0.520257056416901 -0.584417102866329 -0.20691739035604 0.0767425045954878 -0.387442677515488 0.732675062032592 0.554655570718735 0.485069985183154 0.826991047650663 0.219836919952291 0.0913047111522845 0.746589865148059 0.969923483592043 -0.779283224714827 -0.735824661776947 0.0678737459357515 -0.691675500886957 0.766082416578141 0.827117545860804 1.40512746296147 -0.906749454695235 0.139976954385351 1.20073412327403 -0.416890535239563 0.311467903927073 -0.296533144714801 -0.826729566594336 -1.46643564325871 1.59500718991675 -1.23549799114621
-0.370575221056007 -0.135988404113173 0.220250610237081 0.231402250213562 0.413600810445357 -0.852907754118496 -0.37655380414625 -0.231727494595326 0.474951413922821 0.140528969948708 0.812588506517641 -0.28406818592247 0.451799670365257 0.767767516718917 -0.555771171803695 -0.299442089327669 0.525672311095725 -1.51291242263732 0.743680149204642 -0.140104995256591 0.833848176236944 -0.642338627830286 -0.239931366321274 -0.425123717526397 -0.779242858416063 -0.150696906364218 -0.36534302882763 -0.441303918466151 0.102472291960125 0.461038410578636 0.324229567870831 -0.60957893383625 -1.22694547801183 -0.253331177739767 -0.00406156956420985 -0.312181898905854 -0.393501736093076 0.0388305796400532 1.56067526715236 0.789507211150277 -0.229015753492982 -0.0585146781566287 0.465871053582301 0.0111580677310615 0.618077710942343 0.39757718960718 -0.0126932726350241 -0.156800187893319 0.272087879825494 -0.32956588972341 0.210357267497242 -0.840546667840182 0.0141539155858551 0.980279881771847 -0.871738246826805 -0.478690567317282 0.654355443573278 0.0518742934547962 -0.591823418803952 0.000428345565232235 1.45727635009194 0.185609126812111 -0.320637995721534 0.200212213888038 0.377100934616126 0.617547806854742 0.47177893137216 -0.166030443470652 -0.0766172919362632 -0.0291748067095031 -0.667655239130501 0.0923796888282965 -0.700076319013247 0.738610707722239 -0.576366468809575
-0.067118613327656 0.0292845927577349 0.12491106897964 0.142581480541295 -0.184395566747347 0.704673191978905 0.847017359821094 -0.507171690752478 -0.284974242208111 -0.370710975232743 1.49326020578346 0.10967549085301 -0.441058378241183 -0.346756276573006 0.44778155242201 1.23775361878354 -0.255519699619273 -1.40094942248427 0.478351696095808 -0.540724569661725 -0.357941340873305 -1.0497127438586 0.744774667254578 -0.594573983543961 -0.945204910577981 -1.20206389714161 0.416928844656861 0.0487930850191761 -0.169092882862898 -0.745047975379333 -0.115446843135584 -0.0572584378014518 -0.276342282027113 0.161458510192765 -0.0238549399086506 0.307697125980076 0.701274966687384 0.2656858362635 -0.698839361921811 0.465277643279446 -0.0112524271683006 -0.550292925129983 0.973800448044706 -0.0282330121083952 -0.364005541654558 -0.563212197616051 0.279873690393539 0.543041903743021 -0.836472499876995 -0.0760089692427822 0.598256315587932 -0.183576670813815 0.869027791275378 0.142508975469629 0.15251698935118 -0.301525196032057 0.406628496496997 -0.191591052334736 0.89208414695497 -0.690772272813331 -0.303236264301337 -0.0114270049827019 0.543049102828151 0.415185380504496 -0.683381897707067 1.09687266499401 0.449958504343271 -0.864114672784368 -0.876026330462425 -0.473084022662148 -0.331547695015612 1.2528171901976 -0.533545024905696 1.02033816253674 0.144924011420545
0.123479993699879 -0.152741960761491 0.293292785075772 0.64338815159816 -1.15788336880927 0.754283887380697 0.325498920845352 0.595608337811025 -0.148077467817648 -0.697454052254661 -0.0466125335553498 -0.192304275982967 -0.594834179049372 -0.245039117220976 -0.580662265750692 0.0594492736726066 -1.26281774788384 -0.271909445358345 1.08246318188604 0.0815309246476397 -0.939857275877341 0.679446569242815 -0.207836559261025 -0.415277940170453 -0.234617155944453 0.178777966354334 1.53981797486979 0.145818240637758 -0.0957946262817266 -0.81857634557448 -0.234029916285995 0.325940636140111 0.226676307935931 0.187866040000351 -0.542715373810341 0.0941838309838995 -0.0679629631693262 0.681037052836168 -0.581184199422614 -0.16004311863418 0.732767621698549 -0.623466483272296 -0.254350105395838 0.439313114317536 -0.451027311374886 -0.75165185043515 -0.665121675385124 0.599429252243748 -0.366210518585789 0.278820824193283 0.0890609105833879 0.434105604666747 0.435178011240927 0.0354860903768234 0.407250703140372 1.42226000001985 0.31533561241314 0.185716084648327 0.522943343611107 0.480530704898535 -0.435467003086858 0.186692332013985 0.0778938439959139 -0.508666272247493 -0.380403000699126 0.274564622220381 0.28947829839763 -0.0805773029781041 -0.563516101852608 -0.0402971361250981 0.0373812495372837 0.943008418282795 -0.218376791221827 -1.08070763355507 -0.137704871696301
-0.314666097496055 -1.07689288976674 0.0643896458430372 -1.05668814312916 0.466154131894018 -1.21279953284165 0.682005844006513 0.545444341294959 -1.04795128199341 -0.403300719395676 -0.21639627148054 -0.915097822344149 0.154591097199156 0.865374512682109 0.579121661532882 -0.960959337054334 0.462253256194316 0.501256356767305 -0.0135072834750753 0.293905221532185 2.17014698604221 -0.0725698634321301 -0.333385261495033 0.630900567109706 2.39168391852591 1.29361620540033 -1.29385763186236 0.668398030449802 0.428344536791502 0.627150100867184 -0.616054768020826 -0.18011493930704 -0.0173708781982114 0.320402225683528 0.259752761675685 -0.0316296947388172 -0.733615313972601 0.749470784750957 0.643226943513286 -0.0442039253590139 -0.831104553471882 0.780972695728717 -0.256265576260772 -0.696284458031227 0.725213210295395 0.110596202419094 0.206941044492896 -0.640144706636933 0.92046962540201 0.346327159677224 -0.715225251008134 -0.806132469817172 -0.459543057753071 0.918859601434733 -0.120629670208784 -0.887926161072055 -0.360802977212461 -0.33922011999286 -1.16961967734237 -0.319859208976583 -0.403608223174798 -0.92601420650299 0.469534616582897 0.377898747514635 0.341744684881825 -1.23276670966994 0.160848901948368 0.990077579523531 -0.29358871889665 -0.451537675088563 -0.337977763587577 -0.104940292608783 0.806064592728804 -0.134146723870821 0.0752615499401831
0.183124414001544 1.14288767448357 0.662975576685848 0.889267504897876 0.292855440654128 -0.0222189478128687 0.00362653913421409 0.774877641725479 0.0888526513349857 0.148437679184329 0.3297283833592 0.360901964632998 1.04706990828536 -0.539949382459339 -0.0703579445259518 1.65227668345608 -0.86799240856758 0.997065577193067 0.286733647191835 -1.21941806317791 0.0607816186420144 -0.367062581732956 -0.453671689609228 -0.334428871728693 -0.80654924542416 0.219377206944707 1.41990101408887 -0.690972047425687 0.526182674809402 0.423907329249618 -0.190981958310705 0.55290567881179 -0.0240642275977857 -0.43453883532546 -0.805196588750278 -0.682803656905022 -0.0551874152756741 -1.7374881403764 -2.02631569290032 -0.518589439768584 0.621849517330072 -0.068902186668602 -1.38944734132807 0.260635678044837 0.350156044525626 0.1470076323453 -0.805834222004645 -0.9320637520038 -0.47124748462346 -0.161599920793532 -0.394568229133042 -0.3202142781396 0.324705993040324 -0.986739260904698 0.366053167153663 0.671821709649461 -0.413032596940457 0.318847994626008 0.926932089857059 1.12037896349422 0.462474113841695 0.341383702184595 0.117078207248068 -0.14708450829008 0.527346355498623 -0.453423321172245 -0.0448467008170455 0.155629051008786 0.272888520936018 -1.20461545859981 0.0420308300905008 -0.298683357177008 1.13641801094339 -1.11999869753325 0.832714577439159
0.117944925675677 -0.0265545968323832 0.00219674940536868 -0.3812396372353 1.00851700764317 -0.205468574473637 -0.0765941520197741 0.670860374674429 -0.0473406695942079 0.351118665051574 -0.387085037250639 0.80359607785978 0.64367945743574 0.587941055037442 -0.621941562775662 0.416957383887198 -0.329073009502191 -2.49784574161513 0.0718923780993648 0.166231503633925 -0.439567910509099 -0.960767275747475 -1.07032809545877 0.549864579564751 -0.852208414420157 -0.86330734680908 -0.332291514775647 0.622722663512262 0.365570571339773 1.64979582729826 0.38252493104118 0.135303719695278 -0.125771616762853 0.227198755828219 0.328642092835127 0.0572892910234373 -0.643448572491215 0.616396981674682 0.948988544034138 0.457329853295977 -0.913308078358806 0.0553648213020908 -0.519447159339781 0.510446246045874 0.978137382615136 0.231506894058129 0.221191376397456 0.185959567991829 1.45030969256761 -0.228828834389787 -0.484980510839396 -1.17803952162222 0.61523715763821 0.913991734335968 -0.189135650085055 -0.486377647574973 0.104699894587479 0.0307583483279096 -0.546608793314729 -0.0988485810379261 0.646755523667696 0.0505578893167475 0.401348481774543 0.595351998958362 0.662508664593134 -1.47477732604286 0.378915104068875 0.425481357791246 -0.589722057276555 -1.03318158751876 -1.51029246987038 0.421234926005306 -0.790905376326588 -0.00312234606493413 -0.153911554984925
0.181010711185353 -0.0504429610648515 0.214199264964988 1.31504145407762 0.0551833015127427 -0.374921668703216 -0.0139585118466135 0.238038778262646 0.159781894688036 -0.547760904045705 -0.681671343658154 0.519474927239568 -0.893785702147471 0.632322129312689 -0.89164397432131 -0.689481579693604 -0.27991457091267 -0.113437012833411 -0.561714016578471 -0.599945272381456 -1.33480937051392 -0.592114981751715 -0.983613315297199 -0.247221468456085 0.685084995560668 1.10125253696504 1.08950363003295 0.471579928090354 0.057372337612615 -0.30157019031412 -0.278393507068784 0.368279484230101 0.161827977526042 0.281487313903381 -0.420582637470496 -0.182433816049435 0.404079506140627 0.388482173986216 -0.422235341728187 -2.02332498724919 -0.0444204121332789 -0.27251571117036 -0.0312041773856003 0.667199896996031 -0.627536023252186 1.42699057028078 0.623895085947712 0.420915338047573 -0.374682556232828 -0.253659507443729 0.270083705947352 0.629692663468973 0.876019388487478 0.204792374691788 -0.834831879797915 -1.08269149572873 1.06676120588706 0.580299226171996 -1.22345366461362 0.689104141944648 -0.321249146627031 0.123989328972823 -0.247359279514287 0.387945070813485 1.20282622883483 -0.117906359148196 0.78918968007401 0.221368268203506 -0.470399792349408 -0.044832816867152 -0.792651411580785 0.409206283193887 0.0549341617452096 -0.143183118370012 0.398338749969856
-0.324023622614078 -0.280506695664608 -0.10919212370857 -1.76717408213013 1.05901216207522 0.247405816457449 -0.509891659380684 -0.255336380058642 0.120597788546065 0.350513941900658 -0.318372340787065 -1.4194042772149 1.55070890512049 0.326693454756558 0.175923014879941 -0.630732417049885 0.478008454001219 1.41214862784464 -1.96771462572214 0.884313248777551 1.95077852084374 -0.76670976542518 -0.0840251505349854 1.2228795375745 1.70884606596652 0.199416972091362 0.0660474923043922 -0.295317270658388 -0.288594867808111 -0.393016826287537 -0.221310675522466 0.14112212314138 -0.564223926186993 0.713384856316698 0.269906042810752 1.10705885623253 -0.645301565581629 -0.219151207093663 0.12258936402523 -0.839998766039756 -0.0377180638772922 0.413164494464445 0.787187563077333 0.274642783716078 -0.89055794090742 1.17540414224429 -0.542131990804631 -0.313968557568999 -0.153427930730302 -0.108468872763193 -0.492088064744126 -0.468055461698875 0.213779404035802 -0.380631571652002 0.930200474506058 -0.395632408181359 -0.902296563432175 0.568158483320696 -0.407506270662485 0.11118652739975 0.575632676346687 -0.194537535034352 -0.444090221521626 -0.795339241436089 0.337244228234871 -0.679179945982824 0.244503042488978 -0.0629344022060537 0.344258194032912 0.508840335841528 -0.95810824223269 -0.616351730282437 0.271616853969849 -0.0311152172622088 -0.0890367422261659
0.132069530700646 0.0558546162011108 0.0721484598418446 0.095783056323482 0.222689557435036 0.0335269107807432 -0.301735512161925 1.37946452424447 -0.430356423975141 -0.747484094365273 0.609176556399522 -0.546278663839484 0.537504778837353 -0.827313978040778 -0.409774496698787 -1.1224607846477 0.364777643534745 -2.01901916301093 0.427430767200364 0.341200639734147 -0.241690514194815 -0.145537219207507 -1.03945816131135 0.986570853734694 -0.446032946065981 -0.330447263431462 -0.32690248533551 0.795364438234044 -0.0422804840784003 1.59336656983767 -0.110581290028468 0.0965862685358382 0.249987974027453 0.37080996265328 0.609512342298798 0.648505929795008 -0.130541781991997 0.362682966872112 0.558233001807955 0.699781156522918 -0.812369191531361 0.297843121098269 -0.389491331455326 0.0690011740891388 0.515817277773185 -0.52869386996884 0.279496252644583 -0.0980080878490041 -0.651510005175664 0.350812961043734 0.173548859448156 -0.342150147640751 -0.241657861201547 0.648403342831906 -0.781686690707499 0.0266690108639128 0.150346465184499 0.0246787209356639 -0.866394725889097 -0.606236501454485 0.307229185446629 0.0273863482750761 0.54075053779023 1.07987691055311 1.07364584526295 -1.17456287772482 0.257656028131586 0.149862840929876 -0.388443864568918 0.469488593860102 -1.52687016315339 -0.719083960637789 0.500232029797386 -0.33202771972767 0.491307735338075
-0.108406137878489 -1.28441243217186 -0.0738001356588025 -0.150693563931836 -0.885223933046491 -0.528249326462065 0.402301075003345 -1.80862050077419 -0.68836083640498 -1.05504546616861 -0.917159074682964 0.0812784424477249 0.735292186587513 0.0172209829613985 0.729858419975498 -1.86830683003572 1.4856554007844 -0.953438349974999 0.599191168214093 1.24710497325716 0.43255805847399 0.286966589017826 -0.221031196753314 1.49381633510975 -0.0543502645191338 -1.87795257566913 -1.09501298703883 0.953994222191104 0.0961862050907594 0.768786701485172 0.00808740081295315 0.560657807945834 0.215759923777089 0.419343623497594 -0.98738769278676 0.53071141357651 -0.49996103566428 0.877916861639588 0.143912282849603 0.609603873524021 2.48722117751424 -0.780008789651853 -0.766136666826799 0.245081540401206 -0.608238104230796 -0.545601692727086 -0.994808406894643 0.622522888899906 0.208712276545048 -0.108594342532601 0.433414749604455 0.71763540186557 -1.40931913027839 0.450327971676548 0.301096850466825 -0.362313242428652 -0.0671165564461903 -0.187657009421399 0.184867363933542 0.544771483945492 0.119703045108485 0.322099667113098 0.459057376616983 -0.246100725167461 0.431666914578975 -1.56860428809246 -0.589844698833948 0.662818225253722 -0.040060080536176 1.25303239142095 1.58631146641031 0.355247340373603 -0.542855755970375 0.652013941134761 -0.859133934315173
0.0235803462329796 -0.304359064471427 -0.0561698332857295 -0.305968831328521 0.778157853442906 -0.960941082231326 -0.2093103148312 0.991246659526599 -1.17660458968971 0.426008947887198 -1.3722978349976 -0.00101044302002562 1.05405224953086 0.598932258259598 -0.228718534121188 0.66872918836578 -0.487110154486946 -0.117666989567625 -1.28282297701924 -1.19226234273718 0.406987165202579 -0.144036209957912 0.340720357911906 0.286842404799334 0.70070881006395 2.30228130850903 -0.289301663701763 0.463496126819966 0.225056256671508 0.528257296877745 0.0505578893167475 0.588777948683799 -0.0606690043817673 0.108266012828638 0.0727986914951893 0.832096484558716 0.0245288256988509 -0.689996314280395 -0.221119128435973 -0.916436337957954 -1.03979420432081 0.344265136007859 -0.326741534360819 0.437557308876377 0.516862687778128 1.00528976062349 0.569998106681582 -0.358758694145738 -0.310172325713864 -0.053511313991311 -0.174361327627108 -0.458933449508674 1.85458460244748 0.139683591666305 -0.442412320465981 0.0463739353053285 -0.777820524882531 -0.0652617635844944 -0.844517477509718 -0.0683329447229692 0.0899078315268903 -0.267136709027369 0.0126709040490846 -0.279985276213053 -0.00901633990490036 -0.595582626792704 0.0295509589075432 0.134791556210318 0.0258087201908834 -0.317809526596012 -2.29605692808364 0.382621861580251 0.41521366262465 -0.385218160210332 1.61096113389527
1.43776117296574 0.0539193478520694 -0.277352982157322 1.28824440234246 -1.13377723225162 -1.0471472984505 -0.502197637148046 1.01474370206022 0.382494592039561 -0.381271004677652 0.59422097126241 0.714743683634977 -0.387487157577183 -0.829087266974395 0.369387114899381 1.39011711335534 -0.709202959186745 1.77286418759481 -0.634901715780861 0.307912327203425 0.228451653751014 -0.648047759448523 -1.47881215614801 0.596202776554613 0.124859132722631 0.920459340994682 0.90649054474074 -0.817152212269665 -0.119555978083688 -0.517151422513876 0.178115907632562 0.121587405641251 -0.544881269993724 0.104147621913938 0.1039445048692 -0.785446155806434 0.177007762742915 -1.17473205622537 -0.925499214806015 -0.986271063261068 0.378208822395589 0.8438806155859 -0.0444327534220732 0.183152696121697 0.116876889974612 -0.145598925651478 -0.543527584879109 -0.108814171739248 0.496753843238885 0.517334742074506 -0.108782547186712 -0.688930335460796 0.26507442824782 0.1049400354986 1.04271060512899 0.935880038453225 -0.394395708200107 0.589591702413667 0.140086226213216 0.613495236146944 -0.690441372007537 0.301114333959284 -1.33551668062794 0.611954374818951 1.06302488070462 -1.17147524153462 -0.12496866166068 -0.0772286999519429 -0.0458905681608887 -1.3498068646109 0.450340827185708 -0.173474554605208 -0.0397556620792523 -1.28508066153803 0.786000999581807
-0.0559978265731603 0.03612526629229 0.040999561145635 0.799313136427824 0.156722283507806 0.180128309036567 0.0978859605119781 -0.0421053920436325 -0.0622142365828751 -0.111396843529618 0.222628879431797 0.251184821930308 -0.2152037944508 -0.247372906353997 0.187142274834608 -0.798765748847764 0.301981309497077 0.709012954761351 -0.959782029525404 0.553419127847665 1.99243217029546 1.11130194558609 0.582412671878004 -0.976528387088592 1.13323884352797 0.26453578241399 -1.35120580111776 -0.603708594133139 0.287773914993113 0.031968051739925 0.132950390188333 -0.00873480425428254 -1.44440798542215 -0.551113106614431 0.0237351265632736 -0.574342497447326 0.760327005126927 0.0838683133232257 0.205740339937293 -1.84066722823018 -0.347296722178119 0.593494892105017 0.593509547385461 0.35001386259431 0.33703442632537 1.27539377827531 0.430368765263935 -0.0802425455195613 0.379508771481912 -0.00356946067354088 0.113279404291101 0.154578498800179 0.150334123895705 -0.0199566353107808 -1.0676351233998 -1.31293135080399 -0.872044465055011 0.00804189231052451 0.279978334238106 0.220822937504912 0.112591120330641 0.939056120546451 -0.217066557728175 -1.12520749273496 -1.39010168674434 0.760451703565785 0.375832867192522 -0.95494064477551 0.472975779275015 0.0446975769107822 -0.280921671500314 -1.00241141212242 0.350306453982806 -0.074979757179382 0.503753153756483
-0.0718286147739281 0.0589954741992363 0.127663176380748 0.274891666373428 -0.351657053775222 0.875119502846234 0.74248432974252 -0.499514435276039 -0.189961745103717 -0.239755245845774 1.41683883180681 -0.0170985985141893 -0.108412565633069 -0.229097000310877 0.365632534893927 1.07543970301122 -0.493590102434454 -1.2919778993129 0.452146769112594 -1.05682723973828 -1.08433314424855 -0.821201183434898 0.718456611790751 -0.515024349968158 -1.0779089892108 -0.716062658874858 0.868914919904947 0.0249707981037934 -0.20586812369835 -0.78543304318709 -0.10852466567295 -0.0178848414544535 -0.115085346217987 0.0241814698413307 -0.0506800166537735 0.167070968382114 0.719398663502042 -0.190078216016713 -1.13684224274569 0.433159696302708 -0.0284289300680033 -0.599837028994323 1.23387022657629 -0.0946713118912706 -0.472067151887542 -0.730698656054237 0.396016530795079 0.576760361610257 -1.1735722321889 -0.00999207305019228 0.627194838039063 -0.0474028902585454 1.13040368953768 -0.163725450678151 0.170691336871931 0.17170923608727 0.423454558216981 -0.458174717358014 1.09601391698208 -0.787762461446996 -0.268543615949908 -0.18481517056635 0.715570549984189 0.182705067292724 -0.882121641575847 1.48478688258551 0.436970326328102 -0.67916606203293 -0.903480812936053 -0.281430492552891 -0.349109863190134 1.28843466387804 -0.383456441234959 1.05113044940883 0.542026575629514