2.28988726484355 -0.239447346203593 -2.58162770964333 -0.239447346203593 -5.37793235036575 2.21007148277569 -2.58162770964333 2.21007148277569 6.05499036376901
6.90493349033895 -2.24255221188158 -3.8424758254967 -2.24255221188158 2.75665509049475 -1.0415015213284 -3.8424758254967 -1.0415015213284 3.62087975712896
8.84585947236161 1.75186306775498 1.25882376126107 1.75186306775498 -4.44522140695314 -3.08674076459224 1.25882376126107 -3.08674076459224 -8.52853098254372
7.43155798532047 -2.6180860919101 -3.23996452963346 -2.6180860919101 2.81062496764651 -1.03130018497896 -3.23996452963346 -1.03130018497896 3.06070419705128
4.31467845021247 -2.59831838534839 0.983556460344026 -2.59831838534839 -4.17633204699925 3.39381020382444 0.983556460344026 3.39381020382444 -0.421524197290297
-6.62736249296792 -1.1022467154203 -1.84910909942046 -1.1022467154203 -9.93410263922883 -2.37663271637224 -1.84910909942046 -2.37663271637224 -3.32895166697467
4.28338975547733 -3.27260919422349 0.942428597070688 -3.27260919422349 6.28838070484969 -0.136703928366298 0.942428597070688 -0.136703928366298 -4.85920327192931
-2.62378631077576 -2.04384522747868 2.89715060995103 -2.04384522747868 -0.219713361953958 -1.47156856378465 2.89715060995103 -1.47156856378465 -2.4040729488218
-3.7808629528468 -0.0422285512231586 0.869908155197068 -0.0422285512231586 -6.016160930926 -5.70648488862284 0.869908155197068 -5.70648488862284 -4.3664321964746
-4.54399928864572 1.98619842056554 -1.6931921239404 1.98619842056554 -2.61784314197877 -0.480338191188765 -1.6931921239404 -0.480338191188765 -3.01892553162139
-9.13438506179955 0.412916612445429 1.03508150822469 0.412916612445429 -3.96455747489834 -0.719814094668382 1.03508150822469 -0.719814094668382 -6.25791866023714
-3.65919603924357 -0.639681677971468 -1.17907427931182 -0.639681677971468 -2.61835805474762 4.41271937176928 -1.17907427931182 4.41271937176928 3.25532921713446
2.67353649678222 1.83176956017158 6.09619262583113 1.83176956017158 1.23353268069358 0.174706345334283 6.09619262583113 0.174706345334283 -0.232941793779045
1.15064071567808 1.08462034674573 -3.20198789321892 1.08462034674573 -1.20487173301537 1.69295088905095 -3.20198789321892 1.69295088905095 -2.58894161027568
5.35887138848207 -3.64138618792658 -1.1114696213148 -3.64138618792658 0.920931971946548 1.43961779522679 -1.1114696213148 1.43961779522679 3.72871594388703
-0.769754426565154 0.0965454704505447 3.9348802551195 0.0965454704505447 1.63605432358085 -2.17357775365686 3.9348802551195 -2.17357775365686 3.56435439555254
-2.13673521118453 2.06720440331119 6.48775922695077 2.06720440331119 -2.05650735594606 1.12318997333855 6.48775922695077 1.12318997333855 -8.53089527369042
5.38335961917439 2.48993654969703 1.02464339891584 2.48993654969703 1.13082406201592 -1.1016243796634 1.02464339891584 -1.1016243796634 -2.48462751654203
2.23559792441081 -3.18826749447223 -2.33213510751036 -3.18826749447223 6.34604956270249 0.861213291335527 -2.33213510751036 0.861213291335527 2.48710269090702
-4.21884451055398 1.99167777745169 -1.27922390315284 1.99167777745169 -2.17727500521021 0.401129492252294 -1.27922390315284 0.401129492252294 -1.31315027811945
-4.08735850341526 -0.298800000939322 0.560954718744576 -0.298800000939322 -5.44041511144238 -5.15852831810339 0.560954718744576 -5.15852831810339 -4.44817359888915
4.12647714332445 0.680497780610231 -6.02470779450036 0.680497780610231 0.168845313985997 -2.0542846534963 -6.02470779450036 -2.0542846534963 1.752409698188
6.07347639808976 0.0551179794122234 0.275589897061117 0.0551179794122234 -0.265091234315931 3.04986152747636 0.275589897061117 3.04986152747636 5.30444935200493
-0.85574305348146 1.30211046754528 3.38351432096992 1.30211046754528 3.07771565056156 0.808886805596309 3.38351432096992 0.808886805596309 -0.688047008418811
3.09663815810937 -0.744433881081383 3.65237872905554 -0.744433881081383 0.201617509459541 0.739264201351652 3.65237872905554 0.739264201351652 -7.60718372230039
-6.11912908010398 -1.33116049635968 -1.20488440184335 -1.33116049635968 -4.03820427255357 -1.48374411056691 -1.20488440184335 -1.48374411056691 -2.52289113835757
0.568131886948578 0.159959463315619 -2.76619554664769 0.159959463315619 -5.9874481872105 3.80868997998051 -2.76619554664769 3.80868997998051 3.77283699682357
-0.790828776023044 1.59726601473075 -0.572310298437729 1.59726601473075 6.38906405892301 -0.850661216314261 -0.572310298437729 -0.850661216314261 3.88390579803422
0.867323548202907 0.730800397096894 -0.837877378356512 0.730800397096894 -6.76994214013936 1.00652362384041 -0.837877378356512 1.00652362384041 2.08532421003106
-4.89193123070692 -2.33588373804337 1.14914740216387 -2.33588373804337 1.37199608062088 0.708819892923506 1.14914740216387 0.708819892923506 1.50355734862562
-8.91038137541396 0.367049778323666 2.27372457275092 0.367049778323666 -0.331336826919201 0.382922201170095 2.27372457275092 0.382922201170095 6.73387539259742
4.56482324230155 -3.73027923688949 -0.466284904611186 -3.73027923688949 1.01734888278804 0.633193705693599 -0.466284904611186 0.633193705693599 4.22040825594102
4.82000919302142 -0.487535101535792 -0.672007842657443 -0.487535101535792 -1.02777670053491 5.1125302539429 -0.672007842657443 5.1125302539429 6.43282801539929
-2.37393568694121 0.60259288393431 1.58636080142707 0.60259288393431 -7.33201388080073 -6.45475075209636 1.58636080142707 -6.45475075209636 -3.38012566523153
-1.43972580266976 1.04440220564726 3.51250358165256 1.04440220564726 0.0106844215411485 -1.62136096886928 3.51250358165256 -1.62136096886928 -7.54587271343611
7.36298511584173 -1.92550696773967 3.17719311398905 -1.92550696773967 -2.69315094158937 3.84461690236393 3.17719311398905 3.84461690236393 -3.0641788622834
0.910772654560009 -0.303590884853336 -3.99180987786887 -0.303590884853336 1.51590313450416 -1.4010309078029 -3.99180987786887 -1.4010309078029 -9.20823974396369
-2.54365494034302 1.1539747316228 4.17149589154709 1.1539747316228 2.94140793294492 -0.120308003935143 4.17149589154709 -0.120308003935143 -2.05260186305672
0.906428567953299 -0.957081929103631 -1.49027520437028 -0.957081929103631 -2.09011763904525 5.98509451486811 -1.49027520437028 5.98509451486811 6.09439913629777
4.57499382604897 2.54195775155328 3.55449983819911 2.54195775155328 1.04965095893128 -0.238557036120746 3.55449983819911 -0.238557036120746 -1.21133961674645
-6.04300505643728 -1.16716026480668 -1.63140153867361 -1.16716026480668 -1.87794775191367 2.18744193449162 -1.63140153867361 2.18744193449162 -5.44499934772734
-3.75275856103667 4.27786983221469 -2.07295234800121 4.27786983221469 -5.41881840571668 -3.07093869060656 -2.07295234800121 -3.07093869060656 -3.69227454027271
5.01106643610312 -0.208035970362351 3.68483712504314 -0.208035970362351 0.55129532146023 -1.37823830365057 3.68483712504314 -1.37823830365057 -7.00821175158169
-0.723247021618255 -0.974114992216469 -1.09421136111987 -0.974114992216469 -1.3610921809052 2.94369544223223 -1.09421136111987 2.94369544223223 -2.37257048789162
-0.625317006248504 0.474198729738449 2.30064548548929 0.474198729738449 3.83788312585019 -1.08648829835677 2.30064548548929 -1.08648829835677 4.34074221837503
4.57085214247061 -0.543332683986697 -0.836099324387296 -0.543332683986697 -1.08402783067249 5.36738840734431 -0.836099324387296 5.36738840734431 6.57538049115939
-7.21207705491941 -1.96428638262651 0.539319545162595 -1.96428638262651 -4.37800571955519 -1.6470395913544 0.539319545162595 -1.6470395913544 -2.17842796673519
-5.63703718975151 -3.07332931655271 1.38325820338921 -3.07332931655271 -7.02289550254558 2.5715082014134 1.38325820338921 2.5715082014134 -6.26366355632444
6.51680069035495 1.33482959814514 1.05422691248398 1.33482959814514 -3.14432355240869 -0.697573031643628 1.05422691248398 -0.697573031643628 -4.17757082484323
-2.5776806871254 -0.736095007934346 -1.18638023256818 -0.736095007934346 -2.51296903807623 5.13109450585737 -1.18638023256818 5.13109450585737 3.85843207455696
0.936571506736094 2.73662946043408 1.07191421002166 2.73662946043408 3.21032892193355 -0.389786985462421 1.07191421002166 -0.389786985462421 -0.768746554661996
9.09290154148279 1.04807517048997 2.5587670621189 1.04807517048997 -2.02819534239455 -4.05900433858085 2.5587670621189 -4.05900433858085 -8.84983173885045
4.58253262073814 0.010189066416316 -2.83765499694402 0.010189066416316 1.98941521778571 -1.37042943299451 -2.83765499694402 -1.37042943299451 2.62623186880546
-0.828736288597827 -0.182426227049836 -2.52008802224559 -0.182426227049836 -3.2002772402457 -0.0443035122835316 -2.52008802224559 -0.0443035122835316 -1.49850115076651
-3.9133954123418 -2.76636572251748 -1.02246537961715 -2.76636572251748 -6.3320191021976 3.50077613478056 -1.02246537961715 3.50077613478056 -5.15125324502551
1.24081488638085 -0.613958301369317 0.389528165994819 -0.613958301369317 -1.02412372119168 0.366311255438836 0.389528165994819 0.366311255438836 -2.11015920386597
6.04330868138954 -1.83795783971035 0.055956561864718 -1.83795783971035 -4.71111207391799 3.4865242392632 0.055956561864718 3.4865242392632 0.0387391582140355
4.45173379495365 -1.83943890544879 -1.56862683556392 -1.83943890544879 -0.0874931302704976 -1.07074926092942 -1.56862683556392 -1.07074926092942 2.33939964985164
-6.23267423314033 -0.0781363255303844 3.18014844908664 -0.0781363255303844 1.40124477117823 -2.31804432406807 3.18014844908664 -2.31804432406807 -2.00549902194653
-7.84712399942667 2.4985594259896 2.1526050439295 2.4985594259896 4.24755102418232 -1.92196878922277 2.1526050439295 -1.92196878922277 0.917053679429149
-9.34180382093365 2.07349892444517 1.36297995966863 2.07349892444517 2.98583845120105 -0.599932355472803 1.36297995966863 -0.599932355472803 1.37680328583159
0.693183845265108 -1.78132127678592 -4.70720192598631 -1.78132127678592 0.0134337954508742 0.72811171343738 -4.70720192598631 0.72811171343738 1.48846453595686
6.18843068815301 0.542798793410031 0.589998688489164 0.542798793410031 -0.22813282621581 2.0164844064363 0.589998688489164 2.0164844064363 3.56359207847455
-6.75163092780538 -3.05945481688057 3.35628702890133 -3.05945481688057 -6.78287642380757 1.2862729187566 3.35628702890133 1.2862729187566 -6.70476268380211
1.2071164281091 -3.13799658460227 -0.480822057318089 -3.13799658460227 9.54558315896754 2.88746298631547 -0.480822057318089 2.88746298631547 6.72391687523244
-7.34377492983575 -0.332399478987579 -0.949310376430628 -0.332399478987579 -12.3720212857072 -3.72681788729294 -0.949310376430628 -3.72681788729294 -8.36632586943313
5.95766011716853 -0.0498878546611732 0.178546006155778 -0.0498878546611732 -0.385974454483814 3.32935787949303 0.178546006155778 3.32935787949303 5.532300514268
1.05791003188754 0.402005812117265 4.76852946873309 0.402005812117265 2.483443799856 0.859551900908627 4.76852946873309 0.859551900908627 0.0396716261957828
3.44542981855749 2.19808358908741 5.31247672254138 2.19808358908741 1.09374520758205 0.0953385653098153 5.31247672254138 0.0953385653098153 -0.468747946106592
1.21964360609899 -0.71233950650842 4.14298347998962 -0.71233950650842 -2.80074138315625 3.07341733668618 4.14298347998962 3.07341733668618 -0.843393065569316
-6.21752688491109 4.78547756237488 -1.73615246052653 4.78547756237488 -11.1550560162811 -0.892957396098836 -1.73615246052653 -0.892957396098836 -3.17649550500793
-2.20606243850641 -0.441610334849794 -0.328223897523496 -0.441610334849794 7.6207621297728 -0.767844996630723 -0.328223897523496 -0.767844996630723 -1.35466954068788
-5.47525383819407 -1.66555869843336 -1.52766341658254 -1.66555869843336 0.465058597614508 2.73086734645729 -1.52766341658254 2.73086734645729 -1.33298772455786
-10.1279969122865 0.92090742059591 2.27448255173042 0.92090742059591 -3.98530625119954 0.527933995427828 2.27448255173042 0.527933995427828 8.58587392564204
-0.51686813716362 -3.01328795428894 1.79305286758307 -3.01328795428894 1.55060441149086 -0.921836986900065 1.79305286758307 -0.921836986900065 5.06211062170556
1.05040862471185 -0.780482902425336 -0.554498576790118 -0.780482902425336 -2.89803973152571 -0.163210901847657 -0.554498576790118 -0.163210901847657 4.50713182794684
-7.35652152377232 -0.385556024773071 -1.03283986198334 -0.385556024773071 -12.3940783438 -3.78238903135042 -1.03283986198334 -3.78238903135042 -8.00943391608876
-5.45117548628257 -0.925464049812204 -1.59278679196166 -0.925464049812204 -5.7010782415731 0.785408659484541 -1.59278679196166 0.785408659484541 0.565713929558795
-3.87883523634051 -1.41119172483683 -0.937342026405383 -1.41119172483683 1.55101622601333 -1.43449580836625 -0.937342026405383 -1.43449580836625 0.170896612549048
-8.52762184775727 -2.89295020319647 -0.756143809160744 -2.89295020319647 -6.27599361603417 0.0952181093017233 -0.756143809160744 0.0952181093017233 -7.80228389748826
-5.37199849664664 -1.63912883136985 2.23012443466807 -1.63912883136985 0.0681918003805639 -2.19224010112331 2.23012443466807 -2.19224010112331 -1.34868227419337
10.5772668120311 1.77029768876777 1.82791092715962 1.77029768876777 -3.17920324580485 -4.45978840824189 1.82791092715962 -4.45978840824189 -9.6711676991411
-1.17520978770732 1.77233055028736 -3.34244889013924 1.77233055028736 -2.69774878392733 1.01106105217735 -3.34244889013924 1.01106105217735 -2.11965975880005
2.61982166791583 -1.23789183193154 -1.33809218257693 -1.23789183193154 -1.78273123856583 -0.716015005653489 -1.33809218257693 -0.716015005653489 3.9829639381541
5.7754736189944 2.83996175198714 -2.1658026071229 2.83996175198714 -3.55127927491476 -5.24463964666036 -2.1658026071229 -5.24463964666036 -6.1948324571383
1.12934310506698 0.359697101379648 4.20528228818854 0.359697101379648 2.63689713290816 1.03941882972207 4.20528228818854 1.03941882972207 0.193072708828782
4.73116843273812 -1.03425542483112 -1.61739944095931 -1.03425542483112 -2.29406655401372 0.382344425668953 -1.61739944095931 0.382344425668953 8.80767518699272
-8.73547378903308 0.543469549546432 -0.739278431368308 0.543469549546432 -4.69941316372503 -0.317689920506921 -0.739278431368308 -0.317689920506921 -2.28177288816921
-2.94710563105228 -0.894514446281452 1.36839412318055 -0.894514446281452 -4.72814778748768 -0.165059213301935 1.36839412318055 -0.165059213301935 0.207655139315337
-1.81957137524847 1.11151496637792 4.09069570558797 1.11151496637792 -0.10420452809793 -1.30389255671256 4.09069570558797 -1.30389255671256 -7.94091942325763
-2.7483935029593 5.32294283856273 -2.44209663666564 5.32294283856273 -11.0763569486733 0.226273360685404 -2.44209663666564 0.226273360685404 -1.83502176653407
-3.98874925200756 -2.48392823015534 -2.50061755756959 -2.48392823015534 -1.6522434140115 6.02484719654698 -2.50061755756959 6.02484719654698 0.689825533122646
-5.2688491976527 1.90833933132374 -0.396408691997311 1.90833933132374 -3.0358132995171 0.649393133623736 -0.396408691997311 0.649393133623736 1.17528205165032
-5.80379733025749 1.82349853697229 0.0700416656585381 1.82349853697229 -1.56506894299078 -1.59163647134402 0.0700416656585381 -1.59163647134402 -3.68322552169899
6.21169672256898 -1.83072624448572 3.91051640827937 -1.83072624448572 -2.28627905416007 3.872198882232 3.91051640827937 3.872198882232 -3.11862086996695
3.32965289578141 1.6001345399235 0.800067269961751 1.6001345399235 -3.74949017605837 -7.00256897669493 0.800067269961751 -7.00256897669493 -4.19045134465115
-1.23439663837591 6.31945535664129 2.79104726641633 6.31945535664129 -9.51195462713121 -0.202091485043844 2.79104726641633 -0.202091485043844 1.66042733657645
-0.0949594997360731 1.10854894257111 -0.485119183434286 1.10854894257111 3.57749593570901 0.50163387904056 -0.485119183434286 0.50163387904056 -3.52382317498862
-2.11553977008326 -1.67179240367555 -1.34414173196753 -1.67179240367555 2.71408272942388 -1.9659040302481 -1.34414173196753 -1.9659040302481 0.678520682355971
-10.1606046810691 4.40911012174969 0.628291272841921 4.40911012174969 -10.5564005049299 -3.38225522208294 0.628291272841921 -3.38225522208294 -4.12402641645138
2.20674237602756 -2.86646373525712 -2.81276548508727 -2.86646373525712 3.98645581022824 -1.49843688569195 -2.81276548508727 -1.49843688569195 -0.171322988637134
-3.1181039227782 -1.8492049978364 -2.51280859315607 -1.8492049978364 -2.54057443396443 6.58605743974166 -2.51280859315607 6.58605743974166 0.927379082999037
1.28935948457949 -3.05654042520903 1.17812062708636 -3.05654042520903 9.86233597910706 2.49528982603913 1.17812062708636 2.49528982603913 8.10526766188598
2.41289116425235 -3.201085327496 -2.55018950236576 -3.201085327496 5.81992399891846 0.447490879777042 -2.55018950236576 0.447490879777042 1.79759120455891
8.27604559813085 -3.79511709948926 -1.13125803139918 -3.79511709948926 3.00786735834012 -0.844584456190812 -1.13125803139918 -0.844584456190812 1.23049119204823
4.54694682422868 -4.69277996794497 3.70895040138137 -4.69277996794497 -1.41479915545651 2.40080533610543 3.70895040138137 2.40080533610543 -2.68594178128204
-8.84655188821989 1.33592873458062 1.27032509136461 1.33592873458062 -5.10316824653044 0.632180561899758 1.27032509136461 0.632180561899758 5.14889199786281
0.733195698370286 2.65474509887443 -3.83692018557259 2.65474509887443 2.75772202280284 -0.821755852948719 -3.83692018557259 -0.821755852948719 -2.35817155796061
1.41515254907906 0.351804278556104 2.93346575126856 0.351804278556104 2.94140118612321 1.42573312888526 2.93346575126856 1.42573312888526 0.576641599437824
-10.2367370860215 4.45556818288582 0.852369565421635 4.45556818288582 -10.3391321312183 -3.63640782131178 0.852369565421635 -3.63640782131178 -4.01001136459724
-1.20213122360898 1.28588626787682 3.65566134392566 1.28588626787682 3.12849724176926 0.638016366628535 3.65566134392566 0.638016366628535 -1.0617183552776
-4.2327141931542 -0.650140547663146 -1.24043552190123 -0.650140547663146 -3.00860019127799 3.65874073894113 -1.24043552190123 3.65874073894113 2.79370017761527
5.34614117058024 -5.29595290652989 4.10452715994344 -5.29595290652989 0.240030828066868 1.64530222147653 4.10452715994344 1.64530222147653 -2.681798979038
8.12225453471053 -3.40211857515328 -1.87657416539928 -3.40211857515328 2.94511757252075 -0.936079348387406 -1.87657416539928 -0.936079348387406 1.84787361934023
1.67667913750898 -0.213432840025623 -4.32611948821167 -0.213432840025623 1.51455226864337 -1.29496271207854 -4.32611948821167 -1.29496271207854 -8.91287330991617
5.29789702084261 -0.751366002955971 2.30010000904889 -0.751366002955971 1.25483233827001 1.11938200440379 2.30010000904889 1.11938200440379 -2.08797967488105
5.86803125669477 3.01108669104854 -2.01713574448883 3.01108669104854 -3.53463839284603 -4.07413583175411 -2.01713574448883 -4.07413583175411 -6.76896540344274
-0.138258943067958 3.00103235247508 1.81363201789144 3.00103235247508 3.06880634417506 -0.872929013095733 1.81363201789144 -0.872929013095733 -1.53711413175553
-5.49008438758015 -2.20948984421731 0.390226586372118 -2.20948984421731 1.15453245209406 1.4909346817252 0.390226586372118 1.4909346817252 0.320254922608842
-0.0377971508345705 -0.42206818431937 1.14231389188924 -0.42206818431937 -3.5844298041451 0.902931936603628 1.14231389188924 0.902931936603628 3.26945354719034
4.29907514401299 -2.46642271775684 -1.72702404433937 -2.46642271775684 1.18831929656379 3.52534724647257 -1.72702404433937 3.52534724647257 2.98400178914906
1.8660267162725 -2.73632724238039 -2.70561075322364 -2.73632724238039 3.88307617089902 -1.7073248556293 -2.70561075322364 -1.7073248556293 -0.117746541767538
2.04103955384592 -1.06961335882202 -1.13437510515695 -1.06961335882202 -2.21861208411911 -0.553608476734053 -1.13437510515695 -0.553608476734053 4.30143340979402
-1.30991233098388 0.858309491068065 0.823977111425342 0.858309491068065 0.0105638091208377 -0.287863798542828 0.823977111425342 -0.287863798542828 0.0581009501646075
2.64528666201843 1.49337334107728 -5.08693150479905 1.49337334107728 1.92122686028399 -0.997639215457961 -5.08693150479905 -0.997639215457961 -5.04579174333687
3.74116099947025 -2.18344399898511 -1.63956314796826 -2.18344399898511 1.25409419530584 3.68835703335211 -1.63956314796826 3.68835703335211 2.88045635174456
-0.293118722307597 -0.403601933023538 -5.21525849767287 -0.403601933023538 3.45654616382728 -0.658389745490911 -5.21525849767287 -0.658389745490911 2.36298785367971
-5.8804261130684 1.810127780826 -0.123463060958429 1.810127780826 -3.44501766867874 0.663116117728336 -0.123463060958429 0.663116117728336 1.72450017403225
-5.23634089543195 -2.27947488671781 0.795665762344895 -2.27947488671781 1.27145238374708 1.09941654324007 0.795665762344895 1.09941654324007 0.892435922630085
-9.40333219690682 1.96929873107533 1.351642448333 1.96929873107533 1.852968848227 -0.445931217585272 1.351642448333 -0.445931217585272 0.240969043042973
3.64348884549645 0.978491545842934 -2.38391300735176 0.978491545842934 3.23777283868353 3.13170329441871 -2.38391300735176 3.13170329441871 0.745138548460337
-6.80959487597087 2.78574335835172 2.65700202320665 2.78574335835172 3.82389157154277 -2.32008320995468 2.65700202320665 -2.32008320995468 -0.542357114015379
1.99781343732363 1.41566912446111 6.47767853585197 1.41566912446111 1.45536078215628 0.209042730527903 6.47767853585197 0.209042730527903 -0.179935514884777
-0.991187116565869 0.988543950921694 0.695152564418196 0.988543950921694 -1.20264036809992 -1.59911521472627 0.695152564418196 -1.59911521472627 -1.74184615951175
-4.45445532574083 -2.39215782694811 1.45353087691242 -2.39215782694811 1.45621266819824 0.332542119441218 1.45353087691242 0.332542119441218 2.14006944608138
3.46273495442083 1.01173467609995 -2.54394178399935 1.01173467609995 2.5147315965004 3.43618023851269 -2.54394178399935 3.43618023851269 -0.138084522722303
-7.22063165309671 -0.0793912221341034 1.8041655229975 -0.0793912221341034 2.33608671129599 0.162752005374912 1.8041655229975 0.162752005374912 3.96162198449176
-0.126219722828701 -2.26389843286371 -4.6432744844856 -2.26389843286371 -1.0097577826296 0.760003862989835 -4.6432744844856 0.760003862989835 0.714349920690092
4.0642000957102 -0.647394705511359 0.478629419031902 -0.647394705511359 -4.16656592521413 -2.91050953076047 0.478629419031902 -2.91050953076047 3.97843413045015
4.00055918354342 -0.864429508469832 3.02035786590352 -0.864429508469832 -0.812975371060913 0.740939578688427 3.02035786590352 0.740939578688427 -6.84340027538617
4.26692110822742 1.80359882255498 -0.486812071574575 1.80359882255498 0.955002916367609 -2.30371177040209 -0.486812071574575 -2.30371177040209 -3.73222588207174
3.77470549419217 -2.98166533825382 1.05186527210621 -2.98166533825382 6.19937918245274 0.134589060407291 1.05186527210621 0.134589060407291 -5.08539588246624
-9.19756606374767 0.988835842710607 1.20331572972108 0.988835842710607 -2.61554044029651 -0.5710178810019 1.20331572972108 -0.5710178810019 -4.76869566963538
-7.60188774170134 -3.35188130826581 -1.62278059999513 -3.35188130826581 -4.77321328205465 1.45490674482322 -1.62278059999513 1.45490674482322 -5.50066665446626
4.24334289499576 -0.353179090403564 3.82783808275628 -0.353179090403564 0.921901302156362 -0.597288167594263 3.82783808275628 -0.597288167594263 -7.01164370654135
-2.98458371419272 -0.483915851994437 -2.50328362356041 -0.483915851994437 -3.63329253200148 -0.646093056446627 -2.50328362356041 -0.646093056446627 -1.84149599894099
-9.04627525376258 -1.27033992119029 0.391734777459561 -1.27033992119029 -6.23138106716031 -0.859018404857752 0.391734777459561 -0.859018404857752 -8.46147119312652
-9.88699897736019 1.5959806277308 0.892941060072171 1.5959806277308 3.54954172521901 -2.60407472043671 0.892941060072171 -2.60407472043671 0.292933153191097
-3.63333739166243 5.17943840939113 -2.34123868398917 5.17943840939113 -11.1236446436231 -0.0248480520706397 -2.34123868398917 -0.0248480520706397 -2.18110679286726
-6.18849730065915 -1.80641520006382 1.45627304674748 -1.80641520006382 -4.52266948033599 -1.20162420797197 1.45627304674748 -1.20162420797197 -1.18305606347792
-2.77975755293208 -0.505048940232295 -0.0298257248168678 -0.505048940232295 7.03290591181743 -0.608444786264104 -0.0298257248168678 -0.608444786264104 -0.872899546306999
3.20567400754822 1.48568612642185 -0.306189793079772 1.48568612642185 0.77213078254899 -2.59329442138868 -0.306189793079772 -2.59329442138868 -4.24405678407962
-7.32298879192333 -0.25992089847876 -0.661103154826412 -0.25992089847876 -11.6540620241835 -3.39592304316815 -0.661103154826412 -3.39592304316815 -9.34302620944848
-6.60235766735762 -1.90834906483239 1.29608707319867 -1.90834906483239 -4.49787272641745 -1.35704822388081 1.29608707319867 -1.35704822388081 -1.4630676163715
-2.23996786896567 0.762627206724499 -0.938310961153179 0.762627206724499 9.3531635170269 -1.75284473168615 -0.938310961153179 -1.75284473168615 -2.03633442633243
3.90814751851358 -0.420398338644888 3.86662669494372 -0.420398338644888 1.001689868623 -0.241339786999843 3.86662669494372 -0.241339786999843 -7.06892021276959
-5.62107604160591 -1.14839187946787 -1.54520463415815 -1.14839187946787 -3.96812754690272 -1.35862380248259 -1.54520463415815 -1.35862380248259 -2.44131820600836
3.47233082356559 -0.858415860614211 3.2918830450581 -0.858415860614211 -0.598055494481973 0.763036320545965 3.2918830450581 0.763036320545965 -7.47311585561741
6.08817747841649 1.09073291602983 0.909818081399881 1.09073291602983 -1.79079466742397 0.490305421388408 0.909818081399881 0.490305421388408 -0.975366934526673
0.414459833253859 2.8822566181837 1.46009052368516 2.8822566181837 3.13689207129392 -0.625753081579356 1.46009052368516 -0.625753081579356 -1.17023952918737
-2.73542746336647 -1.56014937476237 -1.1752780886041 -1.56014937476237 2.36347132103901 -1.82620133767714 -1.1752780886041 -1.82620133767714 0.599262673749783
-1.28286188508587 -2.7965315570282 -4.07670963063899 -2.7965315570282 -2.42616557346784 0.896393032675065 -4.07670963063899 0.896393032675065 -0.654849999918311
-4.48199058666479 4.49574746384915 -1.50500236396908 4.49574746384915 -5.69809852976229 -3.43921929609023 -1.50500236396908 -3.43921929609023 -3.54377156269137
0.100228217797747 -1.20016865927045 1.69616983965417 -1.20016865927045 -0.442032140031087 -0.19531652699048 1.69616983965417 -0.19531652699048 -2.3566480953983
-1.78149154852528 0.500732786875528 -1.00545547643532 0.500732786875528 9.31243286507954 -1.6039408790754 -1.00545547643532 -1.6039408790754 -2.1744969629256
1.0871631842501 2.52230094830753 -4.1756949576879 2.52230094830753 2.60054375323463 -0.899792256661545 -4.1756949576879 -0.899792256661545 -2.73643915126589
5.6717142095499 -5.42274408252306 4.06651207477163 -5.42274408252306 0.788405402251642 1.36933569864759 4.06651207477163 1.36933569864759 -2.56613946716255
1.82990758817594 2.35428287932236 0.202722406371042 2.35428287932236 3.3219444990668 0.0351385504376472 0.202722406371042 0.0351385504376472 0.0702771008752945
4.39541706667999 -1.21007433414672 2.02102751186269 -1.21007433414672 4.86063472035405 1.63970156622822 2.02102751186269 1.63970156622822 3.05823408398845
-0.705361817997138 -0.0365743164887405 4.68151251055879 -0.0365743164887405 0.164584424199332 -3.06963013387644 4.68151251055879 -3.06963013387644 2.64902549425592
4.28102652638582 0.533851159913268 -4.99112519842357 0.533851159913268 0.86335737823294 -2.30143490469787 -4.99112519842357 -2.30143490469787 2.09708996310427
-3.54291666792995 5.33748689113315 3.72781178183573 5.33748689113315 -9.72330775481005 -1.1855039656312 3.72781178183573 -1.1855039656312 1.60967510929741
-9.01025733410827 -1.59827801732706 0.226725953421177 -1.59827801732706 -6.44909378620238 -0.797739465741179 0.226725953421177 -0.797739465741179 -8.60438988662591
-4.72654423581513 -0.581641644311778 0.211762734579531 -0.581641644311778 -4.89595442347875 -4.26631322599561 0.211762734579531 -4.26631322599561 -4.68136818577149
-7.33755373594826 -0.614267686610347 -1.32390113278577 -0.614267686610347 -12.1899879726419 -3.78938650507114 -1.32390113278577 -3.78938650507114 -6.81584693362166
2.13047604046027 -0.532619010115068 -3.96505263085661 -0.532619010115068 1.88837649040797 0.731678640158073 -3.96505263085661 0.731678640158073 2.25690580548758
-6.49056008170158 -0.633777444769465 -0.113174543708833 -0.633777444769465 -6.47924262733069 -3.10381186121475 -0.113174543708833 -3.10381186121475 -6.76217898660277
-2.13007904521534 1.20000688996448 4.63699767057542 1.20000688996448 -0.245881144491607 -0.972834093423316 4.63699767057542 -0.972834093423316 -8.28245289977708
-1.52475575157263 1.84992767708722 -4.68630127947502 1.84992767708722 -3.42113656087622 0.48639161967729 -4.68630127947502 0.48639161967729 -3.34735805676787
-4.83586089711589 -1.33940108583564 -0.856593717685585 -1.33940108583564 0.680083497071586 -0.903317011377526 -0.856593717685585 -0.903317011377526 -0.594424125303027
-4.9618869003534 1.96984264245731 -1.28196108477381 1.96984264245731 -2.41720617297875 -0.774468047461849 -1.28196108477381 -0.774468047461849 -3.22775192451491
-0.983571950521374 -0.358593940294251 -3.23144367910876 -0.358593940294251 1.5040454410056 -1.66182677473507 -3.23144367910876 -1.66182677473507 -9.48942021430101
0.948481629722705 -0.0159856454447647 -1.5372862369382 -0.0159856454447647 0.109235243872559 3.35964981764138 -1.5372862369382 3.35964981764138 -1.75842099892412
6.78057265913389 0.213766612091111 3.23517519030571 0.213766612091111 -0.654334385791082 -2.85195943448384 3.23517519030571 -2.85195943448384 -7.52875580145277
-0.696464616892755 -0.0939674483109272 -2.76651222821289 -0.0939674483109272 -5.49985947466897 5.28428709324979 -2.76651222821289 5.28428709324979 2.09492134763773
-0.483134098045628 0.984952940214567 2.32491601877206 0.984952940214567 0.197524437875008 -2.16743031830414 2.32491601877206 -2.16743031830414 -6.63842266209656
-4.92520639507262 -1.05899483775566 1.6274813777385 -1.05899483775566 0.367252366537591 -1.67275906676368 1.6274813777385 -1.67275906676368 -0.332036386184671