10.045093177 -0.023705587 0.076751896 -0.014166220 6.065051925 0.025025976 0.036485971 0.019907859 5.195872469
10.007153517 -0.276223860 -0.151028897 -0.165068595 7.176152983 0.175130175 -0.071795436 0.139313918 5.148442965
8.817965468 0.104236244 -0.183534139 0.062290529 9.182872587 -0.073503646 -0.087247632 -0.058471254 5.349161866
9.104138918 0.088690489 0.120125836 0.053000543 8.704044023 0.133614019 0.057104878 0.106288323 5.270992641
9.841894715 0.002233647 0.035754079 0.001334805 6.199085737 -0.024631528 0.016996613 -0.019594080 5.200665959
8.847082366 -0.049401740 -0.034788184 -0.029521982 9.250095024 -0.007732317 -0.016537450 -0.006150964 5.177664373
9.974558531 -0.200621168 -0.215885222 -0.119889188 6.851890655 0.191518872 -0.102626544 0.152350927 5.100025958
9.519188260 -0.223331420 -0.030127655 -0.133460606 8.013102041 0.026874033 -0.014321949 0.021377965 5.267165590
9.210704853 -0.303734444 -0.007049282 -0.181508643 9.055353108 0.137631906 -0.003351056 0.109484502 5.152063603
9.627753509 0.093979395 -0.096389847 0.056161139 6.649320194 -0.012934900 -0.045821371 -0.010289555 5.213290783
8.849934512 -0.030198572 -0.060088305 -0.018046362 9.238174170 -0.023711773 -0.028564508 -0.018862426 5.206573201
9.937773206 -0.299677560 -0.098523992 -0.179084289 7.362787566 0.128440107 -0.046835891 0.102172538 5.167279472
8.957707664 0.255285414 0.032064152 0.152555991 9.137936201 0.252755995 0.015242512 0.201064311 5.431185946
9.050970923 0.183050318 0.063012700 0.109389025 8.846233396 0.245456023 0.029954693 0.195257273 5.237127420
8.844883767 0.177821625 -0.187069041 0.106264411 9.162399762 0.071052468 -0.088928038 0.056521371 5.425756302
8.857158593 0.205942074 -0.156476685 0.123068908 9.150661356 0.126303754 -0.074385182 0.100473096 5.452177407
9.024225620 0.288897173 0.173867095 0.172642039 9.074514735 0.357929472 0.082652156 0.284728530 5.280864094
9.135305224 0.055925007 0.119924769 0.033420220 8.642073073 0.107312855 0.057009296 0.085366067 5.280328754
9.294277145 -0.089291407 -0.007911621 -0.053359645 8.329014955 0.030428632 -0.003760991 0.024205606 5.327339297
8.887418633 0.225701375 -0.105908092 0.134876867 9.149655067 0.171424313 -0.050346112 0.136365950 5.457341011
9.406456211 -0.163492128 -0.043873749 -0.097701248 8.176872908 0.026236762 -0.020856505 0.020871024 5.322959637
8.861907008 0.211064418 -0.147287633 0.126129969 9.150110971 0.136344245 -0.070016931 0.108460184 5.454098545
10.002365548 -0.221388788 -0.211193461 -0.132299709 6.910831909 0.197080125 -0.100396196 0.156774836 5.104776158
9.039450384 0.290223486 0.152271785 0.173434630 9.043902742 0.371446269 0.072386275 0.295480976 5.255479239
8.942867777 0.249445981 -0.000204303 0.149066404 9.142469536 0.234195149 -0.000097121 0.186299385 5.445138568
9.588403935 0.118952190 -0.099822229 0.071084630 6.621275512 -0.032185598 -0.047453042 -0.025603251 5.205693939
10.393786922 0.002309919 -0.002680216 0.001380384 6.202854173 0.002649941 -0.001274109 0.002107995 4.950057374
9.041281523 0.232500298 0.047404651 0.138939835 8.911261781 0.312423385 0.022535010 0.248528993 5.230013544
8.937933588 0.247247661 -0.010823450 0.147752710 9.143661718 0.228150948 -0.005145203 0.181491297 5.448757716
9.072378074 0.131489771 0.098679552 0.078576962 8.776622451 0.176772608 0.046909841 0.140620454 5.257843322
9.960674218 -0.294224645 -0.112982933 -0.175825683 7.310867082 0.140931703 -0.053709318 0.112109451 5.163398581
8.895277906 0.228785028 -0.093214379 0.136719627 9.149384399 0.180106232 -0.044311831 0.143272311 5.458008094
9.204586012 -0.302175200 -0.001351365 -0.180576854 9.086684084 0.129381578 -0.000642406 0.102921467 5.147294066
8.853576141 0.200545967 -0.164469553 0.119844249 9.151635355 0.116306803 -0.078184795 0.092520643 5.449341169
9.055440382 0.170628577 0.070814346 0.101965918 8.830634952 0.228721389 0.033663405 0.181945076 5.241600000
9.613228146 0.071127409 -0.076228329 0.042505023 6.452724506 -0.085793364 -0.036237079 -0.068247574 5.180480055
9.189221811 -0.286741283 0.001669325 -0.171353701 9.185884363 0.116829387 0.000793556 0.092936352 5.122228265
8.845141455 -0.064374986 -0.013705544 -0.038469843 9.260510664 0.002840550 -0.006515280 0.002259623 5.160840135
9.731760616 0.028931914 -0.010824300 0.017289420 6.305538941 -0.057271057 -0.005145607 -0.045558427 5.180908832
8.953266255 -0.141842809 0.065538187 -0.084763833 9.327337623 0.049283982 0.031155248 0.039204807 5.138804330
9.948024621 -0.183255367 -0.208759144 -0.109511560 6.819658954 0.181207608 -0.099238981 0.144148442 5.105118852
9.038889493 0.290288493 0.155097043 0.173473477 9.046332945 0.370972583 0.073729333 0.295104165 5.256831667
9.576688102 -0.246647341 -0.016390194 -0.147393965 7.927442820 0.032153035 -0.007791497 0.025577347 5.227421856
10.373279989 0.006194972 -0.004229245 0.003702053 6.175803892 0.009031452 -0.002010479 0.007184410 4.961093410
8.977019411 0.261638365 0.077065059 0.156352450 9.128048640 0.279199928 0.036634840 0.222100137 5.405077180
9.919166708 -0.163356480 -0.193990152 -0.097620186 6.799062254 0.169418867 -0.092218164 0.134770642 5.119070703
8.895713284 -0.115424709 0.061419920 -0.068976643 9.310721442 0.036956132 0.029197525 0.029398152 5.131973349
8.858608889 0.207690212 -0.153540850 0.124113577 9.150435738 0.129651736 -0.072989557 0.103136375 5.452911099
9.069323190 0.137393939 0.094443480 0.082105233 8.785495954 0.184148599 0.044896116 0.146487964 5.255513878
9.211519636 -0.303844641 -0.008198360 -0.181574495 9.050940209 0.138920909 -0.003897300 0.110509889 5.152602792
9.767059433 0.019630848 0.007541439 0.011731197 6.266777875 -0.047072956 0.003585015 -0.037445963 5.187774692
9.053139958 0.176891588 0.066779593 0.105708630 8.838538896 0.237184830 0.031745382 0.188677640 5.239240940
9.079119944 -0.205196732 0.045609171 -0.122623499 9.324156228 0.072169024 0.021681482 0.057409578 5.163874358
9.007649966 0.282747976 0.161284502 0.168967341 9.092070059 0.337845971 0.076670700 0.268752349 5.314656934
9.206397952 -0.302783504 -0.002495876 -0.180940371 9.077632061 0.131522927 -0.001186478 0.104624884 5.148879310
9.042809903 0.283382211 0.103550907 0.169346353 9.004550288 0.370960014 0.049225564 0.295094167 5.237927695
9.551021732 -0.236887645 -0.021934430 -0.141561669 7.965703629 0.029290049 -0.010427091 0.023299877 5.245079664
9.775235786 -0.036225825 -0.118120717 -0.021648188 6.744132764 0.071649194 -0.056151694 0.056996060 5.218137482
8.983506359 0.264381891 0.095130795 0.157991954 9.122386989 0.290079211 0.045222849 0.230754474 5.391711473
9.834461113 0.003922079 0.033419089 0.002343795 6.205102356 -0.026841574 0.015886616 -0.021352145 5.199782641
9.908747292 -0.012754989 0.055261667 -0.007622253 6.148215199 -0.005764850 0.026270042 -0.004585868 5.204117032
8.988950889 0.267704456 0.112446901 0.159977485 9.116035516 0.300835253 0.053454501 0.239310774 5.376533397
9.804552600 0.010732354 0.023171299 0.006413547 6.230710357 -0.035835646 0.011015068 -0.028506819 5.195162657
9.043126206 0.274868015 0.082457156 0.164258356 8.983517435 0.364240438 0.039198111 0.289748826 5.232965799
10.001633208 -0.279271034 -0.145262925 -0.166889555 7.196715845 0.170573300 -0.069054435 0.135688980 5.150878979
9.944459186 -0.180905389 -0.207217250 -0.108107237 6.816460322 0.179735057 -0.098506002 0.142977045 5.106386319
9.752690482 0.023277408 0.000497713 0.013910345 6.281988880 -0.051285959 0.000236601 -0.040797355 5.184838987
9.588660878 0.083337403 -0.085519684 0.049801592 6.484146003 -0.088729648 -0.040653962 -0.070583353 5.183566313
9.937855602 -0.018367741 0.063165156 -0.010976377 6.126989616 0.001681070 0.030027167 0.001337271 5.203903852
9.194199744 -0.294962074 0.000069724 -0.176266363 9.142945810 0.121474632 0.000033145 0.096631588 5.132851458
9.221773215 -0.304559167 -0.023279520 -0.182001489 8.989188652 0.154524769 -0.011066513 0.122922569 5.156077347
9.298506177 -0.092678074 -0.010624090 -0.055383483 8.322304347 0.029741247 -0.005050432 0.023658799 5.327937128
9.619117507 0.100071268 -0.096380035 0.059801581 6.643067079 -0.017165858 -0.045816707 -0.013655231 5.211241404
8.996354412 -0.162009630 0.061716772 -0.096815322 9.330667103 0.054412111 0.029338641 0.043284170 5.150907363
9.889776408 -0.306737801 -0.070395791 -0.183303418 7.459827201 0.108990409 -0.033464434 0.086700541 5.169071657
8.874679437 0.219873859 -0.125923351 0.131394402 9.149793901 0.156022283 -0.059860875 0.124113823 5.456161245
9.164773960 -0.263293424 0.010253755 -0.157341496 9.277713946 0.095681264 0.004874384 0.076113279 5.145384263
8.808860000 0.131748957 -0.199464818 0.078731849 9.181958325 -0.052053712 -0.094820686 -0.041408093 5.366717295
9.944973121 -0.019535970 0.064971723 -0.011674499 6.121909040 0.003420698 0.030885965 0.002721124 5.203776465
9.965134204 -0.194395128 -0.214401040 -0.116168569 6.838454609 0.188105015 -0.101921000 0.149635245 5.100912314
8.977596071 -0.153138656 0.063680549 -0.091514117 9.329918463 0.052152455 0.030272172 0.041486642 5.145586273
10.023713732 -0.249686418 -0.189181836 -0.149210087 7.023887658 0.192896228 -0.089932409 0.153446597 5.126478559
10.315390701 0.007762692 0.007471653 0.004638907 6.106391218 0.022790175 0.003551841 0.018129306 5.012505473
9.119494853 0.072312407 0.121829962 0.043213166 8.673572657 0.120366190 0.057914978 0.095749836 5.275424555
10.370119027 0.006595978 -0.004070457 0.003941690 6.171669065 0.009937240 -0.001934996 0.007904953 4.963319004
10.009637819 -0.274672771 -0.153855159 -0.164141680 7.165954047 0.177205375 -0.073138972 0.140964715 5.147222762
8.915704579 0.237030754 -0.056619261 0.141647190 9.147585437 0.202245233 -0.026915409 0.160883616 5.457785091
9.270441655 -0.069111679 0.011001088 -0.041300443 8.369999614 0.035728392 0.005229648 0.028421500 5.323061601
9.751043887 -0.014142432 -0.110816478 -0.008451375 6.733866440 0.054794276 -0.052679438 0.043588179 5.227096029
9.961834723 -0.192246823 -0.213576646 -0.114884764 6.834326740 0.186819686 -0.101529103 0.148612781 5.101473697
8.810077837 0.138080892 -0.201790549 0.082515749 9.182125359 -0.040816960 -0.095926282 -0.032469393 5.374590147
9.977079153 -0.289272111 -0.124466650 -0.172866098 7.269972145 0.151733167 -0.059168395 0.120701883 5.159270686
9.187936500 -0.284018614 0.002747766 -0.169726661 9.199759832 0.114385969 0.001306221 0.090992643 5.121045246
9.726621024 -0.292003488 -0.009507811 -0.174498341 7.703363863 0.056059940 -0.004519780 0.044594998 5.164807987
9.107100825 0.085456254 0.120762424 0.051067796 8.698111298 0.130940128 0.057407497 0.104161274 5.271846578
8.847544213 -0.046783366 -0.038354323 -0.027957268 9.248356830 -0.009840844 -0.018232705 -0.007828271 5.181244699
8.935941665 -0.133904909 0.066102343 -0.080020224 9.324120732 0.046772195 0.031423434 0.037206711 5.134794029
9.199664139 -0.006281386 0.083857053 -0.003753693 8.509765647 0.061301334 0.039863588 0.048764464 5.303686316
10.320194576 0.008035546 0.006035038 0.004801961 6.111473971 0.021794172 0.002868909 0.017336998 5.007844582
9.704852505 0.036913504 -0.026787899 0.022059138 6.337861110 -0.064649227 -0.012734311 -0.051427672 5.177167798
10.405563078 0.000031083 -0.000126065 0.000018575 6.217824287 0.000031614 -0.000059928 0.000025148 4.947023227
9.789708058 -0.049329683 -0.123707586 -0.029478921 6.749845621 0.082868816 -0.058807555 0.065921132 5.211394586
9.440751837 -0.183032726 -0.044862901 -0.109378512 8.129429015 0.026031283 -0.021326724 0.020707568 5.311903512
9.557429108 -0.239415082 -0.020428908 -0.143072040 7.956170684 0.029938869 -0.009711402 0.023816005 5.240615389
10.012474649 -0.231217145 -0.205123430 -0.138173035 6.945332184 0.196447391 -0.097510652 0.156271503 5.110811262
8.842210664 0.048441800 -0.132153560 0.028948331 9.205098860 -0.062760594 -0.062822564 -0.049925287 5.298226393
8.969158579 0.259038820 0.057816184 0.154798988 9.132943751 0.267795644 0.027484397 0.213028169 5.417267247
10.398252207 0.001264529 -0.001718689 0.000755670 6.208657074 0.001373100 -0.000817023 0.001092284 4.948610225
9.558425487 0.121800535 -0.109062596 0.072786772 6.573692075 -0.062656790 -0.051845685 -0.049842712 5.195113342
9.884157444 -0.135067246 -0.173274052 -0.080714825 6.784571781 0.154323904 -0.082370238 0.122762784 5.145914183
8.849333294 0.004318337 -0.097346616 0.002580594 9.222472739 -0.046340239 -0.046276196 -0.036863095 5.256382450
8.849945257 -0.002273483 -0.091194091 -0.001358610 9.225007195 -0.042978587 -0.043351436 -0.034188941 5.248069553
9.193019364 -0.000375856 0.089442264 -0.000224608 8.523309395 0.064715988 0.042518660 0.051480779 5.301388717
9.923427558 -0.015728356 0.059326882 -0.009399107 6.137441441 -0.001943884 0.028202546 -0.001546336 5.204080590
8.847691868 0.017570391 -0.108593301 0.010499889 9.217620700 -0.052019842 -0.051622594 -0.041381150 5.271154645
9.738659388 0.027018576 -0.006962586 0.016146029 6.297602305 -0.055320328 -0.003309843 -0.044006647 5.182133475
9.827068255 0.005599868 0.031027077 0.003346425 6.211208842 -0.029052826 0.014749512 -0.023111169 5.198794999
10.024228521 -0.254943543 -0.183261565 -0.152351692 7.050330976 0.191409510 -0.087118057 0.152263930 5.131189842
9.021370961 -0.174180383 0.058419585 -0.104088441 9.330326164 0.058165746 0.027771239 0.046270142 5.157188478
8.884803843 0.224621638 -0.110034674 0.134231627 9.149705567 0.168436772 -0.052307788 0.133989397 5.457105464
9.058963054 0.161408866 0.077073630 0.096456312 8.818753569 0.216185718 0.036638915 0.171973102 5.245352985
9.901446477 -0.011197857 0.053203021 -0.006691727 6.153611678 -0.007713482 0.025291412 -0.006135981 5.204062798
8.809010628 0.129025529 -0.198392844 0.077104356 9.181822896 -0.055741155 -0.094311096 -0.044341409 5.364601872
9.711483037 0.034866797 -0.022756503 0.020836046 6.329723856 -0.062866862 -0.010817884 -0.050009822 5.177909775
9.849357454 0.000535850 0.038041279 0.000320219 6.193153771 -0.022429232 0.018083892 -0.017842181 5.201441784
8.814505892 0.111406964 -0.188857332 0.066575679 9.181981630 -0.070638728 -0.089778147 -0.056192246 5.354041859
9.030200477 0.289830641 0.172203456 0.173199870 9.066538730 0.363535882 0.081861303 0.289188360 5.271525349
9.683678337 -0.280449786 -0.007550759 -0.167593966 7.765145347 0.047439624 -0.003589446 0.037737642 5.173581216
8.923169118 0.240387320 -0.041788856 0.143653040 9.146508265 0.210661659 -0.019865398 0.167578780 5.456068044
8.962469439 0.256900355 0.042596029 0.153521063 9.136077171 0.258879450 0.020249108 0.205935445 5.425787822
9.045620155 -0.186564185 0.054185057 -0.111488877 9.328707200 0.063075436 0.025758248 0.050175740 5.161611145
9.056605441 0.167533708 0.072875263 0.100116455 8.826685366 0.224520949 0.034643114 0.178603676 5.242828477
9.867010933 -0.308149407 -0.057695265 -0.184146980 7.500712814 0.101151990 -0.027426915 0.080465174 5.167757059
8.823340549 0.094111282 -0.174739757 0.056239954 9.185118333 -0.075058188 -0.083066998 -0.059707873 5.341050547
8.844094032 0.039513133 -0.125306268 0.023612650 9.209076899 -0.059694650 -0.059567529 -0.047486366 5.290900979
9.469523532 -0.198773982 -0.041657541 -0.118785328 8.087387384 0.025773199 -0.019802974 0.020502265 5.298151812
8.838258752 0.062453633 -0.143932920 0.037321662 9.198321212 -0.067818919 -0.068422183 -0.053949123 5.310474729
9.228342978 -0.307345481 -0.025662598 -0.183666562 8.941594874 0.163515207 -0.012199370 0.130074353 5.150600399
9.986750219 -0.209095618 -0.215619860 -0.124953434 6.873555814 0.195014723 -0.102500397 0.155131833 5.100586068
8.852618994 0.198725436 -0.166854426 0.118756318 9.152068130 0.113001840 -0.079318505 0.089891585 5.448174644
8.867808094 0.215736139 -0.137043526 0.128921742 9.149868991 0.146296912 -0.065147134 0.116377409 5.455326222
8.815081817 0.145559170 -0.204161852 0.086984693 9.181183096 -0.022437536 -0.097053541 -0.017848786 5.389628813
9.232136809 -0.316040905 -0.023720150 -0.188862860 8.881025957 0.172999776 -0.011275978 0.137619212 5.148554933
8.840772192 0.054179365 -0.136783948 0.032377042 9.202380983 -0.064803606 -0.065023737 -0.051550478 5.303066579
10.402799808 0.000363773 -0.000685033 0.000217387 6.214431858 0.000376386 -0.000325648 0.000299411 4.947524394
9.915590195 -0.160703997 -0.191912552 -0.096035089 6.797210637 0.167979023 -0.091230524 0.133625264 5.121372600
9.206398531 -0.012218459 0.077780395 -0.007301628 8.496083700 0.058149526 0.036974894 0.046257238 5.305923150
9.170853595 -0.267550536 0.008631957 -0.159885504 9.268086861 0.097652336 0.004103421 0.077681242 5.140619719
8.947802942 0.251528479 0.010476193 0.150310884 9.141133896 0.240306585 0.004980125 0.191160957 5.440981659
9.812305195 0.008957415 0.025984239 0.005352861 6.223832458 -0.033495699 0.012352271 -0.026645420 5.196509249
10.000023479 -0.219381816 -0.212194737 -0.131100362 6.904302548 0.196990292 -0.100872178 0.156703374 5.103826141
8.849717898 0.191566455 -0.175017197 0.114478183 9.154372955 0.099963132 -0.083198886 0.079519452 5.442447024
9.001955084 0.278846493 0.151005168 0.166635854 9.098490422 0.328384577 0.071784156 0.261225926 5.331032265
9.493997846 -0.211364345 -0.036554194 -0.126309202 8.050800431 0.025963271 -0.017376968 0.020653465 5.283707958
8.810461023 0.122086459 -0.195218576 0.072957637 9.181604176 -0.063153057 -0.092802127 -0.050237486 5.360339011
10.014169604 -0.233145022 -0.203739353 -0.139325115 6.952624009 0.196171321 -0.096852696 0.156051893 5.112239051
9.927862563 -0.301597995 -0.092559230 -0.180231922 7.384018751 0.123830184 -0.044000390 0.098505401 5.168301186
9.191099657 -0.290468915 0.000599806 -0.173581296 9.166927925 0.119274425 0.000285133 0.094881350 5.126048061
9.008907285 -0.168057049 0.060170543 -0.100429199 9.330671534 0.056155249 0.028603601 0.044670816 5.154226561
9.856837392 -0.001168567 0.040288949 -0.000698324 6.187301184 -0.020241056 0.019152379 -0.016101513 5.202109323
9.681264067 0.050410465 -0.100606827 0.030124786 6.690990725 0.014977012 -0.047826020 0.011914030 5.228294554
10.158227680 -0.013457106 0.055251314 -0.008041831 6.041878238 0.039868291 0.026265121 0.031714739 5.146197403
9.861148979 -0.308314205 -0.054524644 -0.184245461 7.510704958 0.099156193 -0.025919679 0.078877542 5.167288303
8.811789600 0.118040945 -0.193030466 0.070540079 9.181627841 -0.066486686 -0.091761953 -0.052889348 5.358031626
9.665206146 -0.275066049 -0.007763568 -0.164376699 7.792950330 0.044488416 -0.003690610 0.035389992 5.179619836
9.652807201 -0.271373160 -0.008177142 -0.162169865 7.811842515 0.042646249 -0.003887213 0.033924571 5.184507457
9.383734668 -0.150141252 -0.040639464 -0.089722899 8.206748153 0.026137437 -0.019319005 0.020792012 5.327402123
9.989610229 -0.211190824 -0.215180710 -0.126205508 6.879439452 0.195629975 -0.102291636 0.155621259 5.101020503
9.968358378 -0.196505810 -0.215062033 -0.117429892 6.842760825 0.189323056 -0.102235220 0.150604182 5.100486087
9.977578300 -0.202665407 -0.216052076 -0.121110805 6.856787333 0.192497251 -0.102705862 0.153129215 5.099983121
9.121283714 -0.232331853 0.028686402 -0.138839174 9.311780175 0.085367556 0.013636813 0.067908849 5.159969904
9.186495011 -0.281387930 0.003899482 -0.168154591 9.213208978 0.111468245 0.001853718 0.088671630 5.121590721
8.813049493 0.143009440 -0.203549722 0.085461000 9.181663550 -0.029058490 -0.096762550 -0.023115674 5.384544695
9.219666900 -0.304314084 -0.021015181 -0.181855030 9.002579179 0.151738582 -0.009990102 0.120706192 5.156320972
8.848136248 0.014313344 -0.105947822 0.008553510 9.218804270 -0.050734167 -0.050364998 -0.040358411 5.267755563
10.137441464 -0.015649430 0.060700912 -0.009351942 6.043757023 0.038637509 0.028855726 0.030735667 5.159528938
9.835356796 -0.090653122 -0.145728046 -0.054173392 6.767159004 0.121175172 -0.069275542 0.096393372 5.184714965
9.568672232 0.126392949 -0.106261119 0.075531153 6.601502058 -0.045421887 -0.050513932 -0.036132557 5.201827866
9.198216000 -0.298729451 0.000058861 -0.178517709 9.119140093 0.123851964 0.000027981 0.098522727 5.139796576
9.176830722 0.014419271 0.101311308 0.008616811 8.556538978 0.074535607 0.048160913 0.059292167 5.295469192
9.232152541 -0.318406632 -0.022931933 -0.190276594 8.869170197 0.173932648 -0.010901279 0.138361300 5.149877777
9.372517664 -0.143377781 -0.038402609 -0.085681117 8.221216524 0.026071266 -0.018255659 0.020739374 5.328873017
9.095734021 0.098220564 0.117360757 0.058695619 8.721241396 0.141807630 0.055790428 0.112806240 5.268466180
9.158123119 0.032604794 0.111886578 0.019484296 8.595304250 0.088497908 0.053188137 0.070399006 5.288393349
9.209797409 -0.015206324 0.074560638 -0.009087146 8.489193783 0.056659894 0.035444300 0.045072255 5.307016867
9.241196054 -0.042994260 0.041362130 -0.025692936 8.426142800 0.044843719 0.019662543 0.035672632 5.316119224
10.016738494 -0.024768468 0.076782777 -0.014801387 6.077368160 0.019384626 0.036500651 0.015420233 5.200145311
9.947257886 -0.297598967 -0.104366706 -0.177842143 7.341824465 0.133275732 -0.049613374 0.106019219 5.165934379
9.216101874 -0.304156879 -0.015658926 -0.181761085 9.024586788 0.146409346 -0.007443870 0.116466849 5.155268758
9.563844725 -0.241883314 -0.018997321 -0.144547031 7.946616498 0.030635596 -0.009030861 0.024370243 5.236173205
9.457950945 -0.192540400 -0.043369580 -0.115060203 8.104487448 0.025846353 -0.020616835 0.020560459 5.304155976
9.886696924 -0.007945549 0.048995817 -0.004748180 6.164590303 -0.011743777 0.023291411 -0.009342031 5.203757934
10.386226548 0.004006687 -0.003836402 0.002394356 6.192889855 0.005051063 -0.001823731 0.004018059 4.953351848
9.862788591 -0.115784667 -0.160919698 -0.069191750 6.777131986 0.141915591 -0.076497281 0.112892122 5.164098470
9.205496635 -0.302497851 -0.001873410 -0.180769667 9.082146274 0.130424240 -0.000890573 0.103750892 5.148113937
9.052036903 0.179985721 0.064860052 0.107557653 8.842411376 0.241346228 0.030832879 0.191987981 5.238150570
9.818013907 -0.074914263 -0.136754746 -0.044768009 6.760660482 0.106533140 -0.065009855 0.084745813 5.195802439
9.049925616 0.186144167 0.061206245 0.111237878 8.850084557 0.249595392 0.029095949 0.198550090 5.236156140
10.023222005 -0.247923137 -0.191008046 -0.148156368 7.015447164 0.193318117 -0.090800544 0.153782204 5.124879635
9.043028312 0.279597300 0.092686641 0.167084529 8.994345590 0.368265706 0.044060958 0.292950877 5.235083131
10.023886094 -0.024631650 0.077059313 -0.014719626 6.073939854 0.020842391 0.036632109 0.016579868 5.199303012
9.221072630 -0.304456912 -0.022613752 -0.181940382 8.993677846 0.153620444 -0.010750023 0.122203189 5.156244706
8.883402713 -0.109395304 0.056524241 -0.065373531 9.304435765 0.032313265 0.026870239 0.025704808 5.133706665
9.908514052 -0.155300907 -0.187736281 -0.092806257 6.793880718 0.165114760 -0.089245227 0.131346777 5.126275209
10.274439697 0.003081834 0.020676482 0.001841673 6.070377821 0.030624202 0.009829093 0.024361179 5.051471289
9.042942255 0.213115262 0.049056343 0.127355533 8.884352828 0.285798166 0.023320183 0.227348956 5.230747689
9.183876627 -0.277935617 0.005318997 -0.166091524 9.230324522 0.107157813 0.002528521 0.085242734 5.124924988
9.231134303 -0.311206032 -0.024951597 -0.185973588 8.909646726 0.169213784 -0.011861378 0.134607501 5.147729337
10.021797879 -0.244377922 -0.194455164 -0.146037783 6.999127496 0.194097712 -0.092439220 0.154402363 5.121676072
9.672194371 0.058396156 -0.099689134 0.034896955 6.683899687 0.010106603 -0.047389771 0.008039679 5.225920798
10.165144331 -0.012690716 0.053372475 -0.007583844 6.041495150 0.040085580 0.025371967 0.031887590 5.141433206
9.043050589 0.269223879 0.073087771 0.160885477 8.972036941 0.358721649 0.034744135 0.285358696 5.231574679
9.955036731 -0.187832267 -0.211457122 -0.112246670 6.826619728 0.184087815 -0.100521534 0.146439612 5.103012721
9.231812226 -0.322405936 -0.021229959 -0.192666538 8.851060036 0.174450546 -0.010092202 0.138773282 5.152814939
9.998606980 -0.280765123 -0.142335136 -0.167782408 7.207067639 0.168113007 -0.067662636 0.133731846 5.152096070
9.891099690 -0.141080085 -0.177366886 -0.084308037 6.787021557 0.157652494 -0.084315871 0.125410636 5.140005139
10.144197679 -0.014953212 0.058967496 -0.008935889 6.043031722 0.039132707 0.028031703 0.031129591 5.155375821
9.980732097 -0.204835202 -0.216062851 -0.122407452 6.862223724 0.193445512 -0.102710984 0.153883545 5.100063587
8.845289851 -0.061963804 -0.017201875 -0.037028945 9.258778374 0.001333502 -0.008177350 0.001060784 5.163109647
9.079486616 0.119602883 0.106643448 0.071473478 8.757829862 0.162947351 0.050695682 0.129622630 5.262118571
10.366738221 0.006975461 -0.003811553 0.004168465 6.167272468 0.010877866 -0.001811919 0.008653210 4.965821101
9.154824200 0.035926992 0.113384630 0.021469609 8.602134400 0.091167703 0.053900274 0.072522796 5.287166111
9.774378160 0.017834336 0.010892884 0.010657619 6.259337057 -0.044901115 0.005178210 -0.035718289 5.189283489
8.824262926 0.155712570 -0.202650375 0.093052262 9.178144128 0.005068954 -0.096335022 0.004032291 5.402495279
9.164313612 0.026451576 0.108777809 0.015807195 8.582462893 0.083618273 0.051710305 0.066517316 5.290725754
9.084290508 -0.208282043 0.043912397 -0.124467250 9.323143122 0.073770709 0.020874878 0.058683699 5.163779771
8.909622162 -0.121898871 0.064484362 -0.072845537 9.316448879 0.041179636 0.030654285 0.032757898 5.131607448
8.900177878 -0.117527323 0.062639250 -0.070233144 9.312705284 0.038423789 0.029777164 0.030565655 5.131677817
9.041384893 0.289325707 0.136279151 0.172898127 9.031122110 0.372940807 0.064783769 0.296669863 5.248917370
8.848457956 -0.041428951 -0.045547905 -0.024757524 9.244898646 -0.014289579 -0.021652358 -0.011367186 5.189029278
8.983821384 -0.156064171 0.063073720 -0.093262375 9.330273763 0.052873023 0.029983701 0.042059845 5.147377316
9.672717280 0.047600657 -0.046341169 0.028445673 6.378207037 -0.072917706 -0.022029456 -0.058005146 5.175555455
10.011932392 -0.273104918 -0.156635865 -0.163204746 7.155819854 0.179134926 -0.074460852 0.142499648 5.145998635
9.708202634 -0.287271204 -0.008164719 -0.171670376 7.729294169 0.051994329 -0.003881307 0.041360855 5.167743595
9.717907318 0.016673091 -0.104690211 0.009963671 6.716544205 0.034975816 -0.049767161 0.027822835 5.232758841
9.125741193 0.065815613 0.121484575 0.039330747 8.661204458 0.115205323 0.057750790 0.091644429 5.277298491
8.831712319 0.078154345 -0.159056532 0.046704249 9.190886781 -0.072942453 -0.075611578 -0.058024831 5.325875533
9.951839810 -0.296506327 -0.107253939 -0.177189193 7.331442689 0.135777525 -0.050985894 0.108009365 5.165152448
8.978773969 0.262293647 0.081697848 0.156744040 9.126698394 0.281969291 0.038837155 0.224303132 5.401857144
8.824752552 0.091508584 -0.172285390 0.054684607 9.185883902 -0.075046044 -0.081900252 -0.059698213 5.338741368
9.040762239 0.289820884 0.142998549 0.173194040 9.036369303 0.372519020 0.067978006 0.296334337 5.251520236
9.067897813 0.140340291 0.092295389 0.083865944 8.789811120 0.187933868 0.043874966 0.149499100 5.254309460
9.307221310 -0.099455390 -0.015669141 -0.059433539 8.308970481 0.028554764 -0.007448726 0.022714967 5.328996427
9.782049057 -0.303081091 -0.020130840 -0.181118206 7.628537903 0.071912033 -0.009569708 0.057205145 5.161842390
10.014033517 -0.271521627 -0.159365595 -0.162258588 7.145758796 0.180914600 -0.075758498 0.143915358 5.144767735
9.794496567 -0.053657819 -0.125736295 -0.032065372 6.751699838 0.086746020 -0.059771953 0.069005401 5.208971408
9.340603758 -0.123144275 -0.029778853 -0.073589778 8.262502422 0.026304130 -0.014156137 0.020924614 5.330725578
9.047941785 0.192351231 0.057776346 0.114947157 8.857815448 0.257883174 0.027465459 0.205142919 5.234407238
9.044683750 0.204372878 0.052089570 0.122131172 8.872982603 0.273971781 0.024762105 0.217941210 5.231866531
9.041972423 0.250963441 0.054540036 0.149973223 8.939780901 0.337216018 0.025926997 0.268251230 5.230263846
9.582509722 0.121854794 -0.101339273 0.072819197 6.616548003 -0.035419962 -0.048174207 -0.028176148 5.204796066
10.088118544 -0.020377910 0.071571051 -0.012177633 6.052224500 0.032608005 0.034023124 0.025939270 5.183632347
9.022591122 0.288550521 0.173653084 0.172434883 9.076410325 0.356283480 0.082550421 0.283419163 5.283577662
9.223165402 -0.304839924 -0.024345555 -0.182169266 8.980106378 0.156290834 -0.011573280 0.124327452 5.155479849
8.813685447 0.143835218 -0.203784732 0.085954477 9.181521556 -0.026931046 -0.096874268 -0.021423319 5.386260143
8.924986361 -0.128913054 0.065907124 -0.077037142 9.321376340 0.044767528 0.031330631 0.035612023 5.132940842
9.128908229 0.062535466 0.121100373 0.037370564 8.654900408 0.112595814 0.057568150 0.089568597 5.278278621
9.060177459 0.158328511 0.079238194 0.094615523 8.814696780 0.211991805 0.037667896 0.168636895 5.246656314
9.803997295 -0.062241761 -0.129994141 -0.037195049 6.755344209 0.094627819 -0.061796029 0.075275276 5.203900637
8.811380959 0.140592810 -0.202725795 0.084016846 9.181979600 -0.035091660 -0.096370875 -0.027914987 5.379419547
9.818908992 -0.307192990 -0.033730941 -0.183575435 7.576946068 0.084533539 -0.016034863 0.067245399 5.163614712
9.871801477 -0.004578747 0.044691622 -0.002736213 6.175814097 -0.015930865 0.021245302 -0.012672809 5.203127741
9.057230658 -0.192784740 0.051639439 -0.115206218 9.327470505 0.065935961 0.024548124 0.052451253 5.162948661
10.395363822 0.001935685 -0.002357504 0.001156746 6.204913968 0.002176947 -0.001120699 0.001731735 4.949502087
9.643971416 0.058295989 -0.062289378 0.034837096 6.414502365 -0.079658510 -0.029610844 -0.063367373 5.176964390
9.090586353 0.104437963 0.114850135 0.062411074 8.732197946 0.147499981 0.054596940 0.117334436 5.266757753
10.396859245 0.001583868 -0.002032709 0.000946504 6.206857397 0.001748776 -0.000966300 0.001391130 4.949020231
9.560248955 0.108063749 -0.102107548 0.064577807 6.539970527 -0.079215471 -0.048539426 -0.063014941 5.188737174
8.950305551 0.252532044 0.015908593 0.150910604 9.140396304 0.243427202 0.007562555 0.193643370 5.438683716
10.263160000 0.001316621 0.024325941 0.000786799 6.062947299 0.032537907 0.011563956 0.025883508 5.061820519