5.8860907113 1.5708708385 2.3811098605 2.6941356758 4.7728454037 5.0997680385 2.3162393094 1.5143833045 2.7552004177 7.4602231757 1.3267148811 -0.0595037411 7.7408151475 4.3705255014 2.7667094155 0.9501812064 4.3892927597 2.2434129294 3.9854602647 1.7457140754 5.0704610457 9.0482340900 1.4369934844 2.8427879133 6.0132165179 4.6625677996 0.4912613108 1.2168004561 4.6438115620 3.7575592747 3.7628305193 1.4276755718 1.4273996317 8.8684804950 1.4903378110 1.3214620858 6.2617899007 4.5532910136 4.1553725491 4.5275596398 4.8155941069 0.6876862946 0.4440056124 1.3715800082 3.2451376788 5.4508744485 1.6982035243 4.6806086250 9.4735934270 4.2616137374 2.0018175560 1.6312582705 5.5769676233 1.4742985097 3.2428549680 0.5363646550 4.3194863399 8.3077860134 2.5812143196 3.6657197967 6.6027711653 3.4699534612 1.3805903530 8.1761817716 0.2280632097 3.4034921709 6.7173921237 5.9279223195 1.0439647802 1.6469122508 3.1293778280 1.6997860568 3.2479821755 2.9419602341 4.3651823668
5.3789722288 2.3949252877 2.3666718580 2.5369814962 5.8184073708 5.2192479020 2.0055197803 2.4055260959 1.9746726040 7.1465061636 0.7731759820 -0.0152861208 7.7376494142 4.6682208436 3.0673900963 0.9327439280 5.4328327196 2.2991090577 3.9063792893 1.7550986557 4.6271964431 8.8029628768 1.6976578291 2.7609752279 5.7730249866 5.2785243587 0.6883169903 1.5204984348 5.1989338492 3.7290086226 3.4452850063 1.9543618858 0.8904294528 8.1252468967 1.6926869792 1.3638493657 6.4131971094 5.2514177046 4.4644635771 4.3018799616 4.8784859585 0.6441805203 0.3586004282 1.9091396558 2.8282231759 5.4993763130 1.9768920873 4.6590143888 9.4014345962 5.3009189202 2.2667627654 1.5761395627 6.6418578377 1.5065290714 3.7015181245 0.2328259160 4.3491639536 8.3175972818 2.9911894708 3.5297872880 6.5258408660 4.2877719901 1.6584836122 8.2628229062 0.5797137251 3.6813834702 6.0998667196 6.7328041486 1.2435172743 1.4239092950 4.1958555987 1.3890233398 3.3416448115 2.6642190965 3.5466129807
4.5282770399 4.0173051774 2.0253730658 2.4917383952 7.8484379665 5.2304482026 1.7034050433 3.0307484185 2.0057928243 6.1667096814 1.3377671997 0.2113638747 7.1482730649 6.0256359897 2.7354948475 1.5585396631 6.1770063282 2.5440961763 2.8279032925 1.7604929217 4.7337943825 7.3235484399 2.8408801730 2.9469609956 5.9183352584 7.3556825506 0.0960349172 1.6666952694 6.6592907267 4.0160559494 2.1402122729 2.8939212308 0.1717248963 6.6082339710 1.7928522258 2.1219129242 6.6364025835 6.4387978773 4.4219087344 4.4767425635 7.5466639603 -0.4327103878 -0.0729791435 3.0182499775 2.6126231083 4.1678837805 1.5688370155 5.4961132805 8.8947343695 5.9376964212 2.0545406320 2.0572370031 7.3016431949 1.6008602463 2.1455347748 0.3886676012 4.6127736155 6.6467589854 4.2406703167 2.7552371271 5.8794437990 6.5817325809 1.4826887479 7.1096609327 2.4515490457 4.4549033941 6.7083603730 8.7190360181 0.1570954729 2.3100335241 4.8369578641 2.2802336343 3.0349448682 2.4434317297 3.3217880913
4.7175969987 3.6174625468 1.9992963675 2.8095179971 7.6256195696 5.3192211547 1.6812258421 3.0638444696 2.1936712038 6.4926317332 1.1637216311 0.2389171523 7.4241557081 5.7635889836 3.3622360071 1.3199350841 6.3243979166 2.7057493838 3.4770123347 2.1460818673 4.7658173441 7.8200846326 2.4169005214 2.8991902949 5.8184032745 6.6505975327 0.7986310189 1.9320891657 6.4143824212 4.1373819668 2.8213575398 2.5464289844 0.8258261344 6.6309312574 2.2783127594 1.8878388794 6.9998718536 6.2555588541 5.1512857372 4.4931187237 6.4528921226 0.0395514398 0.0566803226 2.1012410524 2.0096060935 5.0343410920 2.2553899904 4.9021103302 8.9140571463 6.7385973680 2.8863900192 1.9523324062 7.3594901411 1.7274179219 3.0380738029 0.6775417073 4.5349667761 7.7571527616 3.8602328120 3.4913169057 5.9226951966 5.7558488931 2.1095342905 7.7064125434 1.3767479981 4.0242556391 6.0894027014 8.1620508602 1.1421104947 1.4134956496 4.8882807554 2.1418844867 2.9687032003 3.0545692392 3.6253258509
5.8212874934 1.6122135459 2.4712704884 2.5726179978 4.9372514324 5.0521431636 2.2341178817 1.5840806453 2.6322730150 7.3379089418 1.3790701560 -0.1268375359 7.5391155998 4.3331921548 2.7208182008 0.9311853647 4.5337973565 2.2399191221 3.9219868304 1.6864562944 5.0170681665 8.8320319781 1.4097831724 2.8003516563 5.8825401396 4.7977333619 0.4335954827 1.2171861084 4.6142841479 3.7490620133 3.7322754721 1.5360819632 1.3664023388 8.7018751838 1.5407231534 1.2707940919 6.3643963532 4.6353714165 4.1641485837 4.3795178378 4.8563388189 0.7241557316 0.4237081975 1.3444126558 3.2601313584 5.4375611075 1.7466779735 4.6976210927 9.2798228645 4.6097860875 1.9057920946 1.6138761005 5.7043856376 1.3912351663 3.2121690473 0.4799024870 4.1652753098 8.0324252666 2.6182433100 3.5486314440 6.5182921285 3.5634454197 1.2225935817 7.9667025197 0.2346655230 3.5062729163 6.6432067739 5.9810473367 1.1221169741 1.5924476892 3.2246801176 1.7161368123 3.1748511690 2.8784277104 4.4358260368
4.3828794368 3.9612497445 2.0356268097 2.5327422841 7.6853933303 5.1284132890 1.6881261683 3.2077774731 2.0391919693 6.2170125708 1.3502568238 0.4034953467 7.1315097623 5.9228360850 2.6258532852 1.5116851718 6.2613551946 2.5542162426 2.9758734135 1.6975106546 4.5933491695 7.3462422408 2.7769738699 3.0315502130 5.8688695807 7.3917612264 0.2321300931 1.3679359320 6.6103338778 4.0468489800 1.9467792698 2.5243179840 0.2871609983 6.7189330197 1.6587687714 2.1165985852 6.6497746161 6.6060780328 4.3696395082 4.4387971791 7.6355108762 -0.2979035926 0.0282635707 2.8636635492 2.8785302513 4.3525210781 1.9513040035 5.3482375978 8.9229333786 5.8139890206 1.9952867341 1.9746491364 7.4844085130 1.7173504105 2.4925943577 0.2176898068 4.5862624879 6.5381470263 4.0597597576 2.6679316232 5.7469353281 6.6294791641 1.5500664453 7.2066196108 2.3393636067 4.4916056848 6.5720632176 8.7517072182 0.4010238368 2.4330673564 4.9997841303 2.3395046233 3.0860464658 2.2706795171 3.1635755593
5.3914064280 2.1754353067 2.2003309601 2.5541759680 5.6282033816 5.1693153612 2.0143209973 2.2669347107 2.1194379735 7.2544663023 0.8888447147 -0.0651751022 7.6464957060 4.7451441890 2.8534016219 0.9419652028 5.2455863975 2.3163538434 3.8527366923 1.6492396004 4.6146258662 8.7589312785 1.6114467722 2.8069565304 5.8427473337 4.9787334020 0.5608896354 1.5466128065 5.1085625917 3.7122604755 3.4635682165 1.7744132133 0.9471474960 8.1700170167 1.6904380166 1.3569089367 6.3585450281 5.2033849578 4.2254297369 4.3237496747 4.7599857969 0.5418097183 0.3367910078 1.7761325816 2.9357350877 5.4349732808 1.9054561891 4.6094211077 9.3768809678 5.2236971958 2.0908633360 1.6516697721 6.3789794962 1.4756976563 3.5137546772 0.2531376347 4.0887035643 8.2022678801 2.8838730813 3.5711988205 6.3784897881 3.9381360812 1.5859653549 8.1528992685 0.3565985241 3.5062745462 6.2145961299 6.3673715791 1.2386296137 1.3840461607 3.9859217429 1.4180597390 3.2284463031 2.5616427737 3.5511330932
5.1781214843 3.0447665941 1.9982659161 2.6437555339 6.5430531566 5.2433397047 1.8945121357 2.8614626497 2.0903981705 6.7534289752 0.9179494103 0.0403004053 7.5825642125 5.1038019892 3.2828716271 1.0260610473 5.9480323211 2.3943785074 3.6615250596 1.6774066355 4.6831865317 8.2984892313 1.8628897035 2.8576722808 5.6564008222 5.9443049672 0.6700171238 1.6258462709 5.9151509227 3.8069473076 3.2072990232 2.2797444193 0.7607789020 7.3243400084 1.8939101555 1.6251072355 6.3884489690 5.6629197611 4.6164052342 4.1568712960 5.5044442074 0.4436424141 0.2472110330 1.8382657621 2.5441239420 5.1866730171 1.8023285357 4.5223933859 9.0111940680 5.9076431123 2.3888409487 1.5682628829 7.0623625434 1.4758078996 3.3046954906 0.1999451208 4.5508067202 8.0109630518 3.2064963043 3.5827406601 6.1311995252 5.0868000321 1.8857634931 7.8352698895 0.6771728214 3.7957555420 5.7650624177 7.4473966521 1.0813732195 1.4179442713 4.6200397418 1.6488255996 3.0876647609 2.5605004055 3.5061535537
4.5112998934 3.9828041569 1.8409736177 2.9728405911 7.6733236242 4.9543319877 1.5619521268 2.9378037247 2.3122071547 6.2197188891 1.0558096767 0.6622983442 7.4689410561 5.7075648401 2.6410127693 1.5242534010 6.2711499472 2.5157198085 3.1891773359 1.9460213646 4.8665772281 7.5066869910 2.4949613125 3.2906543853 5.8277846795 6.8424036655 0.0995596541 1.7290165449 6.5641470213 4.0022868500 2.0736607800 2.5381502566 0.5451716709 6.6039983495 1.4507871637 2.5061774662 6.8510308887 6.5699109100 4.2085282356 4.4462264058 6.4397295870 -0.4930928388 -0.2340357781 2.6059566661 2.8001571212 4.5172142522 2.1830464680 5.6507376592 9.1825974285 6.0295471877 2.1135093526 2.2475352891 7.3233571089 1.6388196647 2.9854332817 0.4203580780 4.6612541745 6.8579958471 3.8875500876 2.9829163811 5.9885109077 6.0240016848 1.4112695372 7.5120599817 2.0572791248 4.7818585575 5.7990570773 8.3345494620 0.3934564214 2.0525330200 4.8540618780 2.1525710623 3.1754138149 2.5972884508 3.4463404739
5.3834430956 1.7387247466 2.1686686738 2.6196256607 5.3917584759 5.0581045230 2.0531394215 2.0500234395 2.3978589217 7.1005341583 1.3419643707 -0.0255556806 7.5335257849 4.9749094387 2.8030640090 1.0239380533 5.0165756456 2.2339758466 3.6715341167 1.6380674687 4.7399565853 8.5965460922 1.6325328101 2.9103717762 5.8652043253 4.9762428046 0.3994016064 1.2168706058 5.1146842812 3.7651144059 3.3844466801 1.8396231731 1.0138742193 8.3562104049 1.5322758976 1.3828742899 6.0943230906 4.8474208409 4.0994707691 4.3013144301 4.8215089771 0.6295702962 0.4650544765 1.4937601467 3.3659719569 5.2201150024 1.7896581144 4.5771439877 9.1381873889 5.1680453548 1.8472153216 1.7377959136 6.1377069817 1.4369037718 3.0939105629 0.3519932016 4.0967198216 7.9608037839 2.8665774796 3.5493736991 6.5951202077 3.8798646223 1.2474994678 7.7650511620 0.4430002187 3.5581529596 6.4057498496 6.3661482318 0.8559007504 1.6397995429 3.7038096200 1.7111385390 3.0904043400 2.7980155019 3.8230350877
4.3669286166 3.9715934381 2.0341850504 2.5228906744 7.6776890442 5.1549411450 1.6981663508 3.1921080798 2.0257698459 6.2121351014 1.3368724688 0.3778163879 7.1288777794 5.9391910970 2.6229329090 1.5303915560 6.2334850697 2.5419394699 2.9683420542 1.7067599968 4.6132285461 7.3389894238 2.7824588274 3.0021186212 5.8809425969 7.4003297264 0.1965045279 1.3834311035 6.6120297153 4.0317074916 1.9379364445 2.5395091696 0.2447894651 6.7176086876 1.7044929273 2.0955618574 6.6556543567 6.5657829107 4.3819316072 4.4252272307 7.6434399228 -0.3099840866 0.0262631099 2.8645334816 2.8576741872 4.3304116745 1.8794778900 5.3971348804 8.9118806995 5.8012052226 2.0003969319 1.9905267392 7.4511868951 1.6968920010 2.4290450786 0.2495477103 4.5849741427 6.4953987313 4.0700903101 2.6551023114 5.8019949780 6.6378752780 1.5445052753 7.2383909932 2.3635665681 4.5017277387 6.5935043080 8.7205602275 0.4054045889 2.4624368057 5.0043934569 2.3502254278 3.1338231643 2.2772202905 3.1683795757
5.3425823210 2.4934845826 2.3474438995 2.5272093523 5.9363396357 5.1947646708 1.9587273295 2.4707904365 1.9919123447 7.0585124223 0.7737739515 0.0107867027 7.7280225687 4.7243618333 3.1754896884 0.9198381932 5.5502760553 2.3129929376 3.9268835434 1.7294334974 4.6560556569 8.7666246452 1.7322221908 2.7898181799 5.8015889888 5.3813294476 0.7044606598 1.5454467184 5.3535461736 3.7108697343 3.4265191030 2.0297004813 0.8799174508 8.1100864743 1.6783038201 1.3901438700 6.4264097184 5.2821890679 4.4764573379 4.2752187016 5.0146171109 0.6535129409 0.3216915944 1.9514447048 2.6877385419 5.4620096580 1.9941910035 4.6041564564 9.3183860611 5.3206171088 2.2861670033 1.5223493538 6.7370798997 1.5144437988 3.6401784141 0.2319759273 4.4235693204 8.3471875038 3.0112154652 3.5415337319 6.5600314278 4.4499542406 1.6949430591 8.2493696992 0.5818161887 3.7566402113 5.8889854632 6.8514131460 1.2098125589 1.3866842139 4.3686169719 1.3793644614 3.3231826045 2.5984587469 3.4706709847
4.3198138354 4.3409492240 2.1029116507 2.8996178680 8.0237948245 5.4457912096 1.5772188701 3.3297414470 2.2354817890 6.3118615571 1.3399966453 0.5282026320 7.3824306777 6.2486508174 3.3602878800 1.5905945634 6.5768625729 2.7694610681 3.0303617375 2.1485898285 5.0784524296 7.5713142861 2.8337113973 3.1148591715 6.1523547020 7.3060772517 0.6185453439 2.0353909532 6.8773804774 4.2354047152 2.5447011602 3.0837125552 0.6123508800 6.4456883720 2.2143359012 2.1912801287 6.9626695566 6.5402900621 5.1800197605 4.7636330453 7.5519567920 0.0348599904 -0.0249718017 2.2881196710 2.3324613774 4.5877908544 2.0639718091 5.3384053614 9.0317321642 6.9580828968 2.6720225771 2.2293817324 7.5032457906 1.7203623121 2.3771802287 0.7540216609 5.2463456691 7.3226514562 4.3616300001 3.1530840061 5.9824884462 6.7107648786 2.0404267059 7.4451685848 2.2944549581 4.5322597605 6.9606284303 8.6577373608 0.6620066640 2.1249459533 5.1458064219 2.3661112761 2.8200242741 2.6531920485 3.6109563105
4.5894824898 3.8880175302 1.9897579098 2.9249739882 7.8375044913 5.3358264624 1.5203872893 3.1327360395 2.2974870474 6.4399590784 1.2240265065 0.3008241378 7.3720396147 5.9543164214 3.3413570778 1.3628582865 6.4845425018 2.7883384247 3.3913160053 2.2625398800 4.7584177649 7.7161508479 2.5760659672 2.8414213964 5.9399642254 6.8981786080 0.7600430906 2.0571339404 6.6506776214 4.1826236487 2.7908973560 2.6691251631 0.8355553531 6.5224753792 2.2534946255 1.8744975150 7.0524581558 6.4009004546 5.1608342755 4.6022825507 6.9227120097 0.0104069042 -0.0094771270 2.1530867907 1.9729775960 4.9792887557 2.4174381530 4.7862358268 8.9030994602 7.0030753174 2.9368090000 2.0992233640 7.4439451668 1.7930856450 2.9456552028 0.7783047420 4.5239687217 7.7189485690 4.0797986646 3.2534835104 5.7940925477 6.0991753974 2.0825295863 7.6747037595 1.6039456245 4.0364652797 6.2461107170 8.3486124442 1.2207681924 1.5690561164 5.0255668120 2.3013384140 3.0292233157 3.0999617002 3.5241268669
4.4601542019 4.1634667668 2.0405882502 2.5928150480 8.0466313636 5.3099597153 1.6109609045 3.0595293900 2.1853760864 6.2511958305 1.3810301469 0.2178800135 7.2077726014 6.1518856334 2.9727842994 1.6645699461 6.3919080784 2.6053718099 2.8636044295 1.9276644868 4.8397325541 7.2997478908 2.8151779714 3.0028524919 5.9464501720 7.3286798127 0.2529004589 2.0243130963 6.8104327994 4.0393846729 2.3026122616 2.9568655182 0.3427622233 6.3734553127 2.0088324901 2.0329687169 6.6488281609 6.3949956139 4.7720005408 4.4946833322 7.5002709036 -0.2857779475 -0.0521141135 2.5229646590 2.8188671312 4.3347282425 1.7107187986 5.3069538624 8.9290667753 6.5542619063 2.2465660465 2.2366350725 7.4423807459 1.6108761812 1.9767932137 0.6459270537 5.0315197296 6.7373283176 4.2769029366 2.9257468220 5.9467147580 6.7915234875 1.7042449599 7.2423389045 2.2359956845 4.4329643690 6.6099805807 8.6948723690 0.2491843236 2.2333179582 4.9681158856 2.3301960727 3.0439123228 2.3726400756 3.3699596581
4.3473130040 4.2250974871 2.0490500787 2.6459219926 8.0347583486 5.3405434404 1.6066151381 3.1483541043 2.2272603887 6.2308908285 1.3687471815 0.2679412301 7.2333993185 6.1864212864 3.0588847071 1.6527553927 6.4655286511 2.6121138751 2.9235160785 1.9826250280 4.9187165316 7.3569094407 2.8141841336 3.0405972274 5.9644694941 7.3321759968 0.3630206355 2.0575557520 6.8894208610 4.0453226387 2.3690708616 2.9619002298 0.3640546263 6.3427892578 2.1009065398 2.1114654437 6.6422044328 6.4535845543 4.8787655683 4.5649990743 7.4599690268 -0.2397148229 -0.0327187126 2.4335694446 2.7453496933 4.3897695403 1.7640178191 5.3418767016 8.9824152086 6.6472025044 2.4080638059 2.3186315773 7.5107789897 1.7009133301 2.1054623331 0.7064666745 5.1613876048 6.9130457022 4.2964393443 2.9855559819 5.9592494105 6.8290213976 1.8526922230 7.2756417004 2.2262344140 4.4590873388 6.7312114764 8.7106559191 0.3363170482 2.1634419635 5.0024548507 2.3777469070 2.9202937240 2.4156816423 3.3997602114
4.4809161567 4.3453680959 2.0914278866 3.0757724092 8.0794982595 5.4440313251 1.4845482786 3.3104122739 2.2789382097 6.3954399828 1.3839112749 0.5303399145 7.4657719900 6.2189142740 3.4599155394 1.4993930545 6.6282756488 2.8401863374 3.2427894056 2.3300695878 4.9689440594 7.6371392748 2.8659366297 3.0597856475 6.2681973269 7.2374622944 0.8418265754 2.0579023170 6.9187964926 4.2722547002 2.6078060414 2.9195877181 0.8446147009 6.4164238684 2.3484339449 2.1857278866 7.2207379284 6.5536649136 5.2905653164 4.8941920158 7.4707469866 0.1540368608 -0.0201524928 2.2492581731 2.1801348206 4.8156271508 2.2931106795 5.1114302251 8.9874594846 7.0449456579 2.9412664281 2.1622618147 7.6414984924 1.8736145933 2.6707781579 0.8836175607 5.0692587332 7.5932854065 4.4050771380 3.1795683627 5.9627013233 6.4656392921 2.1541575646 7.7157259285 2.2012760771 4.4476594089 6.9807409141 8.5758962030 1.1671648887 1.8759168163 5.1662542440 2.4240076320 2.9102605833 2.9788815907 3.6257230949
4.7840591306 3.5358063615 1.9970273986 2.7812976460 7.5378396238 5.3109817240 1.7213665501 3.0317523598 2.1637687093 6.5149895610 1.1347668105 0.2233336161 7.4329490151 5.6755140694 3.3561082872 1.2695353480 6.2793083284 2.6647418567 3.4947463427 2.0906561264 4.7578989120 7.8479907438 2.3850229030 2.8802373798 5.8079707044 6.5689814205 0.8102168777 1.8806983040 6.3432537016 4.0820476321 2.8641958493 2.5179645432 0.8213878621 6.6681146110 2.2607783037 1.8470639581 7.0037206824 6.2077970732 5.1067021891 4.4262353830 6.3136409118 0.1200814345 0.0908345450 2.0753177173 2.0535465725 5.0332013281 2.2181108704 4.9229795695 8.8943772196 6.6670730009 2.8768950907 1.9489025474 7.3213087679 1.7308255184 3.0549523349 0.6204550333 4.5307216374 7.7730164799 3.7879434822 3.5808123195 5.9498271279 5.6831262134 2.0859977606 7.7344526187 1.3236721081 4.0266061124 6.0432034181 8.0731386630 1.0879133454 1.4102983116 4.8576599539 2.0739668792 2.9614170137 3.0107607291 3.6601058737
5.0283363511 3.2721538909 1.9499630746 2.6901492803 6.9709855055 5.2763419429 1.7599974493 2.9176379986 2.1308804635 6.6091462495 0.9773618129 0.1001779443 7.4127962290 5.2752086114 3.2569621842 1.1298611539 6.1513085356 2.5048336708 3.5527658641 1.8556111888 4.7368722258 8.0157211191 2.1369594454 2.8731706763 5.7121630277 6.2869654508 0.7024554207 1.6821520866 6.1175005151 3.9418687222 3.0739798362 2.3269366655 0.8059388725 7.0478572821 2.1083841299 1.6585179256 6.6964653576 5.8851595810 4.8923041170 4.2182624528 5.9199323577 0.4171203409 0.1244264068 2.1022805424 2.2989779557 5.0802262704 2.0205240434 4.6931523956 8.8913592605 6.3195021628 2.5935322294 1.8281638878 7.2312000685 1.6403300378 3.0995983285 0.4019313960 4.4898407410 7.8666630733 3.4995621085 3.5793134832 6.0938731477 5.4393598422 1.9427360911 7.6986832825 1.0056279162 3.9080849456 5.8329585476 7.7952038919 0.9426206739 1.3502761111 4.7654209649 1.8251049115 3.0045429088 2.7469803733 3.5595032160
4.2986156135 4.2695551553 2.0673135561 2.7198325979 8.0215327218 5.3709912657 1.6093245531 3.2253715601 2.2344370697 6.2345985794 1.3557021020 0.3593072220 7.2965245215 6.2125103459 3.1618196115 1.6344315049 6.5178094586 2.6543958857 2.9681801856 2.0611379912 4.9706543391 7.4242101189 2.8194277717 3.0541337347 6.0322694971 7.3573986420 0.4410501065 2.0689562689 6.9168965332 4.0772087858 2.4165042985 3.0312119613 0.4522415622 6.3395568263 2.1209194401 2.1087230000 6.7148382894 6.4910763381 4.9797487208 4.5954316106 7.4546026821 -0.1428210934 -0.0111196650 2.3698962228 2.6298021762 4.4527855330 1.8266900015 5.3600831402 8.9701193822 6.7335416976 2.5344602991 2.3534013816 7.5261504946 1.7295290853 2.2119517192 0.7135967086 5.2038370053 7.0678755609 4.3361417107 3.0615697109 5.9101358088 6.8517011771 1.8899141606 7.3484238213 2.2628300125 4.4953216806 6.8372048248 8.6767440856 0.4395497427 2.1499140484 5.0640418625 2.3847559558 2.8496491750 2.4401736112 3.4941212761
5.1160492198 3.1644846336 1.9600580882 2.6687767939 6.7454365043 5.2755580364 1.8165686824 2.9122705073 2.1236744573 6.6731871172 0.9467692259 0.0658003304 7.4932580657 5.1918020531 3.2458971212 1.0561833430 6.0693810636 2.4360802642 3.5952280790 1.7512287495 4.6974380351 8.1187956751 1.9800077652 2.8447762120 5.6850553768 6.1353820096 0.6944259536 1.6358253620 6.0042254191 3.8849949120 3.1423167244 2.2781074060 0.7548294447 7.1589542092 1.9846318344 1.5956112976 6.4541512293 5.7473730480 4.7556948510 4.2183218372 5.7166345257 0.4102260800 0.2061587911 1.9601464498 2.4579105282 5.1735644011 1.9016806594 4.5833467233 8.9322805093 6.0809368483 2.4835400533 1.6887322745 7.1964286700 1.5668859663 3.1729220829 0.2578199503 4.5616173226 7.9512314618 3.3476847160 3.6196871187 6.1106189933 5.2762087316 1.9218202047 7.7828944695 0.8170286324 3.8218934546 5.7576716455 7.6501735748 1.0207790934 1.3684892968 4.6884367979 1.7723858139 3.0566621720 2.6471197573 3.5754283909
4.3331771570 4.2355718226 2.0524451042 2.6595833398 8.0319897057 5.3462499525 1.6074532488 3.1654382929 2.2307422564 6.2284127089 1.3666224198 0.2849607310 7.2455378609 6.1925853080 3.0788701373 1.6458259134 6.4783015678 2.6172548249 2.9350768249 1.9999309053 4.9286524034 7.3702159731 2.8180036362 3.0479562148 5.9741343423 7.3330770692 0.3805690871 2.0620418727 6.9000454945 4.0511583936 2.3781847888 2.9739696504 0.3794494810 6.3351285205 2.1050817107 2.1102586712 6.6465609360 6.4694799714 4.9061165948 4.5809161538 7.4545089238 -0.2201374788 -0.0239295022 2.4194994257 2.7233136582 4.4068752641 1.7744190465 5.3488239700 8.9868117659 6.6649205274 2.4381417517 2.3309193815 7.5187930738 1.7113097927 2.1276134198 0.7105046798 5.1741656575 6.9472014264 4.3018848853 3.0009185863 5.9494457319 6.8391117301 1.8580897049 7.2902381200 2.2347131693 4.4614280305 6.7570353076 8.7087172535 0.3567804614 2.1582671367 5.0106666222 2.3813988644 2.8990988593 2.4207659686 3.4161809810
5.4070658054 2.2476297851 2.2430724958 2.5480250945 5.6658701393 5.1831988155 2.0255450395 2.3029407220 2.0595868133 7.2466598161 0.8597967524 -0.0610251354 7.6705520611 4.7080181831 2.8937909385 0.9475579407 5.2667608462 2.3065787782 3.8890951436 1.6697818256 4.5990621488 8.7802656446 1.6342398557 2.7766721477 5.8360882693 5.0261766036 0.5581437929 1.5486647689 5.1137374997 3.7272957944 3.4743492967 1.8332162026 0.9250655624 8.1368434947 1.6893833758 1.3596003445 6.3766476417 5.2513165701 4.2773648205 4.3258376258 4.7762285000 0.5967446425 0.3492228091 1.8112124213 2.9420854488 5.4262188235 1.9347137522 4.6532252030 9.4203073126 5.2633350344 2.1327708136 1.6438448027 6.4122010343 1.4676374013 3.5599419836 0.2093181485 4.1480620214 8.2436164564 2.8933216240 3.5400846936 6.3395179241 3.9965945938 1.6354643619 8.1799861814 0.3830966930 3.5207787598 6.1947970221 6.4176680146 1.2744846895 1.4093346913 4.0213597293 1.4078741498 3.2526005453 2.6047714600 3.5655334692
4.5179988677 4.3063061610 2.0673580504 3.0671779349 8.0849167512 5.4265228173 1.4725898033 3.2866604126 2.3108333970 6.4101947967 1.3877435169 0.4550433363 7.4345964005 6.1816135688 3.4354362269 1.5226998819 6.6525572536 2.8713787309 3.2781178660 2.3395986675 4.9463755588 7.6405679745 2.8219021514 2.9897264672 6.2348737882 7.2172557615 0.8664321465 2.0736097483 6.9705049894 4.2760699202 2.6786897126 2.8913248154 0.8698788901 6.4127836216 2.4210950638 2.1484928562 7.2497769364 6.5791869466 5.2440366952 4.8485117315 7.3740626114 0.1102949087 -0.0729835914 2.1636513206 2.1347876230 4.8191979120 2.3416781772 5.0007912562 9.0105011619 7.0961357801 2.9730580675 2.1813491300 7.6402611581 1.8873192289 2.8012972217 0.8822999579 4.9235340926 7.6050988104 4.3542256674 3.1804381999 5.8733334329 6.4165246329 2.2011419940 7.7453971939 2.1522396941 4.4079301287 6.9540889219 8.5205013497 1.2701250814 1.7747103971 5.1970377470 2.4070940231 2.9760360932 3.0242212532 3.5755293203
4.3029980234 4.3274909231 2.0963261533 2.8616848966 8.0185319899 5.4321326180 1.5900638160 3.3150952662 2.2315315250 6.2930474485 1.3390354019 0.5011499399 7.3685391929 6.2446650440 3.3276178175 1.5988329411 6.5718081520 2.7473916309 3.0000966956 2.1300555754 5.0859426028 7.5334141779 2.8209390957 3.0892409538 6.1214037518 7.3306080665 0.5584956289 2.0447449227 6.8882720628 4.2021821040 2.5271530980 3.0850595968 0.5772941046 6.4421758893 2.2028585249 2.1837927776 6.9168626143 6.5194392943 5.1261766126 4.7158627004 7.5255476383 0.0102025603 -0.0348075274 2.2937387535 2.3963097986 4.5442113753 2.0085837810 5.3443600135 9.0250645404 6.9111916275 2.6453386613 2.2630569954 7.4925660012 1.7222010639 2.3575404980 0.7419684842 5.2376686181 7.2726353643 4.3498945885 3.1439310069 5.9383486682 6.7495454965 2.0223075251 7.4277349645 2.2991367820 4.5303224134 6.9544671440 8.6721470518 0.6107574707 2.1377002244 5.1482637661 2.3656216633 2.8249458959 2.5926730389 3.5805536446
5.4033142146 1.7228053320 2.1945579816 2.6306981453 5.3513268546 5.0158322675 2.0704399543 1.9989008445 2.4000895023 7.0865296572 1.3920472327 -0.0342249648 7.4902743984 4.9390121315 2.7757564805 1.0381639964 5.0086052663 2.2244773233 3.6608957532 1.6459903159 4.7253781881 8.5699415877 1.6329115868 2.8504514358 5.8102434930 5.0136629966 0.3481382423 1.2249084188 5.1110257473 3.7672154088 3.4104862528 1.8316332251 1.0462239742 8.4002082504 1.4910136721 1.3167659737 6.0669387304 4.8339130684 4.0663835610 4.2949778947 4.8748481985 0.6167276351 0.4903204241 1.4654498949 3.3428355708 5.1612584235 1.8245950867 4.5807730356 9.1095903770 5.1245414016 1.7952553686 1.7973154340 6.1345800589 1.4523552470 3.0298896561 0.3289211600 4.1241712177 7.9051099221 2.8484902889 3.5543950847 6.4808660849 3.8776320729 1.2118178786 7.7044916671 0.4387297197 3.5281421916 6.4202052761 6.3420348388 0.8771044495 1.6043097349 3.6742563018 1.7198693175 3.0720056411 2.8158526627 3.8704142856
5.7981891319 1.5531530075 2.2021447970 2.8289566388 4.6669998727 4.8839262878 2.2032160927 1.5521855661 2.4729931565 7.6351503881 1.5227964062 -0.0291500513 8.1173802537 4.6752192928 2.5590870855 1.1113954601 4.6096812653 2.1620557602 4.0501551156 1.6166410258 4.6742028354 9.2606120728 1.5603322081 2.7542697449 6.2529385476 4.6512563582 0.3570541891 1.4234784723 4.6512035259 3.6784270708 3.8058191679 1.6020196279 1.2859647389 9.1036874569 1.5822092948 1.2271689978 6.4952028621 4.6090975291 3.7652808823 4.7497292254 4.7358403854 0.6021947761 0.3666891501 1.4651022769 3.0678190237 5.5510219285 1.5439584110 4.3809508518 9.9722396526 4.5811989821 1.9216041533 1.7950359590 5.8115364533 1.4212027244 3.3446109402 0.4044136473 4.0170074906 8.4667128807 2.7336531509 3.4434056474 6.9345720368 3.4112603739 1.0933000170 8.5454842350 0.3485607199 3.4127360350 6.9293195412 5.9708381006 0.9533859772 1.8781760652 3.3747484179 1.6038841919 3.3084397887 2.8031462733 3.9342187740
4.5654151068 4.0464649177 1.9953998233 2.9801451784 7.9454930523 5.3674624193 1.4715975982 3.1804418553 2.3453952128 6.4111502670 1.2689935706 0.3198006498 7.3448330194 6.0363130295 3.3180917151 1.3929814299 6.5698246386 2.7983617193 3.3983818086 2.3064739487 4.7778457631 7.6756466746 2.6556752578 2.8061222978 6.0257395342 7.0293509397 0.8214797362 2.0662277395 6.7822637131 4.1840103114 2.7951313408 2.7269055778 0.8038172917 6.4543447926 2.3305365480 1.9275331379 7.0943333597 6.5290468160 5.1691097214 4.7078604675 7.1064252271 0.0075873546 -0.0540987169 2.1157849816 1.9977865998 4.9322565670 2.4186930706 4.8345533253 8.9107816660 7.1260294089 2.9967728769 2.1978400089 7.5019841404 1.8474883453 2.8947581294 0.8639319034 4.5851279695 7.6585321892 4.1521062263 3.1996265461 5.7911188408 6.2095778033 2.1631421273 7.6793333650 1.8223683516 4.1329127864 6.4528326235 8.4578973874 1.1982458396 1.6735166166 5.1130187803 2.3662722914 2.9658903125 3.0892605696 3.4904634618
4.2986906838 4.3225429258 2.0939153310 2.8489991808 8.0170488523 5.4270892823 1.5935027808 3.3090965053 2.2308157806 6.2867884749 1.3389980670 0.4907762387 7.3635392780 6.2426082957 3.3152834145 1.6030725523 6.5686969852 2.7397681198 2.9935157074 2.1242226172 5.0838388117 7.5214456365 2.8170948236 3.0797172100 6.1133010847 7.3398002751 0.5419318164 2.0474780505 6.8913980256 4.1884990892 2.5193828399 3.0837271046 0.5659774152 6.4388465761 2.1981018283 2.1802468505 6.9023651826 6.5107963174 5.1067681933 4.6961696366 7.5172552197 -0.0011298455 -0.0371814742 2.2975272972 2.4191081522 4.5299175953 1.9897966106 5.3459658771 9.0180910898 6.8943380170 2.6371075986 2.2744679804 7.4912875462 1.7240040376 2.3494843740 0.7392235554 5.2346309384 7.2555224615 4.3485215165 3.1397986360 5.9264189721 6.7610705183 2.0159521334 7.4221733769 2.2981036339 4.5312580653 6.9487531953 8.6735938062 0.5944950388 2.1402343617 5.1481194020 2.3669697246 2.8263669708 2.5731755321 3.5720698127
4.6417475010 3.7369500262 1.9947185632 2.8585727457 7.7231234795 5.3226151134 1.6048119297 3.0964110413 2.2400372447 6.4683871712 1.1926475694 0.2640718071 7.3991884817 5.8592979119 3.3628416292 1.3742196288 6.3929535256 2.7663264218 3.4491711261 2.1987996072 4.7780889739 7.7779477481 2.4916027196 2.8821885757 5.8606897158 6.7759776770 0.7752199253 1.9915496261 6.5212277230 4.1599053389 2.7950361925 2.5956659001 0.8327182852 6.5973429885 2.2680859227 1.9035947993 7.0438161768 6.2932117960 5.1415621532 4.5152706966 6.6750910409 -0.0209855088 0.0083197504 2.1419223997 1.9755574710 4.9728520605 2.3321762767 4.8311522852 8.9197202384 6.8603731511 2.8893286550 1.9817120034 7.3927592387 1.7528803234 3.0070071048 0.7427732007 4.5245961290 7.7417095982 3.9635933987 3.3558595651 5.8631060168 5.9037449892 2.1081966075 7.6726493297 1.4317801457 4.0414928862 6.1418350714 8.2442932214 1.2026998620 1.4543820783 4.9542513110 2.2217273587 3.0099425081 3.0949819836 3.5647222432