-28926.4213552439
-28927.0956740792
-28927.1226786427
-28927.8831028241
-28926.5452303795
-28927.194642784
-28926.9456133063
-28927.7754396785
-28927.6280219459
-28926.6129611119
-28927.2653754748
-28927.2099981601
-28927.3344301764
-28927.6569970207
-28927.4755950083
-28927.4123323828
-28927.3286178278
-28927.9433596817
-28928.0869861901
-28927.4430685775
-28928.0088701023
-28927.4119582265
-28926.9307236528
-28927.2750499331
-28927.3592009585
-28926.5516087246
-28926.9160602619
-28927.4719341266
-28927.3624396558
-28927.8422204619
-28927.2100520386
-28927.4443068309
-28927.6319658258
-28927.3986149952
-28927.7179756599
-28926.6897105086
-28927.713371224
-28927.2336296022
-28926.4786513683
-28927.4671407077
-28927.0655957194
-28927.2729481269
-28927.6769942483
-28926.6561621549
-28927.2694272477
-28927.1104723025
-28927.242417242
-28927.4137918646
-28927.827540336
-28927.6353680634
-28926.4332766811
-28927.6883626144
-28927.3145188007
-28927.2493130113
-28927.6191793391
-28927.2890354888
-28927.7235836511
-28926.6827992288
-28927.2005193515
-28926.5268308675
-28926.6153721753
-28927.1364576641
-28926.4621433186
-28927.3128363217
-28927.1133173873
-28927.0769945622
-28926.4445611001
-28926.7048505067
-28926.5793735738
-28927.7412766199
-28927.7703722411
-28928.0929907871
-28926.5974914481
-28927.4587059994
-28927.3454212569
-28927.4130397424
-28927.7418948622
-28927.1999449195
-28926.5686430422
-28926.9931542907
-28927.4955406703
-28927.0327535007
-28926.7078696082
-28927.9067224293
-28926.6268321077
-28927.0922887127
-28927.3785408955
-28928.0905691112
-28926.6103912701
-28927.0092736259
-28927.3061253176
-28927.2059304684
-28927.7000281287
-28927.6997937028
-28927.8857526673
-28927.1983550952
-28927.3852378857
-28928.0948512284
-28926.7105087029
-28926.5318763997
-28927.3840780011
-28926.7372065943
-28927.9452734573
-28927.7111496877
-28926.9833131627
-28927.3200971315
-28927.3106570991
-28927.0235532005
-28926.6207332234
-28927.0080919722
-28927.2566789931
-28927.2517005369
-28928.0917212406
-28926.5998463201
-28927.2862973447
-28926.4657620227
-28926.5085746234
-28927.0632593512
-28927.4018769581
-28927.4382109398
-28927.7574547317
-28926.619653068
-28927.1778412597
-28926.5193666527
-28926.5629924652
-28927.1209699048
-28927.3279997215
-28927.7059370777
-28927.3633932782
-28927.3259640389
-28927.3703370756
-28927.7317029797
-28927.4079362499
-28927.197459705
-28927.3223681924
-28927.8650773324
-28927.3342131657
-28927.8473304851
-28926.9055074206
-28927.3928982945
-28927.4065096939
-28927.3215552528
-28927.8370560161
-28927.3209994605
-28927.2256629294
-28927.1070931946
-28928.0895884134
-28927.7633519798
-28927.352433899
-28926.4756755329
-28926.9206694598
-28927.3871760155
-28927.2143643604
-28927.8108438476
-28927.1544310461
-28926.9916650124
-28927.2262772261
-28927.737632065
-28927.4273161876
-28926.5793709887
-28926.5726290997
-28926.4590798626
-28927.4236781635
-28927.1411743469
-28927.7020117015
-28927.6913930087
-28928.03487941
-28926.9022714445
-28926.9767880122
-28926.9322790548
-28927.4103678579
-28927.6975671324
-28927.3408716519
-28927.7222596819
-28927.2778959703
-28926.4980556601
-28926.7955057298
-28926.5879056988
-28927.7011795778
-28928.039984263
-28927.814085266
-28928.0523870693
-28927.8812391174
-28927.9747982018
-28928.0855381371
-28928.0947920437
-28926.4374642388
-28927.2051569853
-28927.6756442923
-28927.6989034828
-28927.8968958594
-28926.6191062556
-28926.812144258
-28926.8944745706
-28927.6246433822
-28927.6727426078
-28926.7812784011
-28927.6414831385
-28927.0261675328
-28927.2912536236
-28926.4279097826
-28927.7532018667
-28927.2512123649
-28927.0951362465
-28926.4283457087
-28927.5452539383
-28927.7157422867
-28927.8410022089
-28927.0182235816
-28926.5744696768
-28926.4443069459
-28927.339766326
-28927.0394008302
-28927.7548032558
-28927.1267244292
-28927.0400095485
-28926.4870848521
-28926.9211930066
-28927.2247570629
-28927.8693266599
-28926.6019871746
-28927.970146146
-28926.4324602039
-28927.3552951745
-28927.9895941121
-28927.3071936359
-28927.2615862915
-28927.2444129238
-28927.3043599799
-28927.2165837198
-28927.4867890856
-28926.5747913151
-28927.0922876243
-28927.699825404
-28926.5982812581
-28927.9216133072
-28927.3452166273
-28927.2059081551
-28927.2541871119
-28927.2265591359
-28927.2913552581
-28927.8202332669
-28928.1085782761
-28927.6672493125
-28927.0949068547
-28926.751094053
-28928.119752353
-28927.6113206955
-28927.5658153937
-28927.3870305708
-28926.5643169786
-28926.4897880296
-28927.3217594741
-28927.8045486333
-28927.3357405399
-28927.3251686506
-28927.9292618791
-28927.7690641906
-28926.7698850005
-28927.3394989743
-28927.5606727169
-28926.6053336288
-28927.3542499858
-28926.9470085693
-28926.6133090093
-28927.8820003555
-28926.982607844
-28926.7243377932
-28927.3480587189
-28926.3598365951
-28927.4049957893
-28928.0767453271
-28927.2265527412
-28926.7223822481
-28927.3060805549
-28926.7839783132
-28928.1235947345
-28926.6050344398
-28926.4541969183
-28927.7768617447
-28927.1070836706
-28927.3274180785
-28926.5858063416
-28927.4076770616
-28927.2951836257
-28927.3041307241
-28927.8566884752
-28926.9121493078
-28926.7835164002
-28926.576801283
-28926.6637413378
-28926.3877319228
-28927.3777633306
-28927.1082738959
-28926.4712372224
-28927.2923982699
-28927.3434416297
-28926.4912585321
-28927.1706007224
-28926.6138911965
-28927.703573226
-28927.4428287093
-28927.5821248004
-28927.365106234
-28926.4351266461
-28926.8762466263
-28927.7034673738
-28927.3408215829
-28927.1850804365
-28927.72032128
-28928.116605086
-28927.2433334488
-28926.562295582
-28926.6026734453
-28927.2106618454
-28927.2285262458
-28927.3717655365
-28927.4042896542
-28927.4399942369
-28926.7862119585
-28927.024767916
-28927.6698980673
-28927.4779440298
-28927.6577608439
-28927.3041163021
-28927.3542875375
-28926.5060088633
-28927.3079035806
-28927.1410679505
-28927.3806822942
-28926.3784816897
-28927.7234893637
-28927.0752362996
-28927.3319280909
-28927.2471891639
-28927.0871176
-28928.0123545183
-28926.511752095
-28927.9366022822
-28926.9523143782
-28927.2453932134
-28927.3626589794
-28926.6501836809
-28928.1033014472
-28927.6892936515
-28927.3130993196
-28928.0153612386
-28927.2927438543
-28926.5835365052
-28927.3897526602
-28927.1118062038
-28927.2353071831
-28927.2152035591
-28927.5747898395
-28926.9527471751
-28928.1312147345
-28926.5830887421
-28926.5733156426
-28926.4411984551
-28926.5872218771
-28926.589926007
-28926.3463677833
-28927.6819054924
-28927.4333021447
-28927.1991216395
-28927.8383545426
-28927.2702305274
-28927.2059107402
-28927.3772780158
-28927.6681709616
-28927.2757975655
-28927.3800765691
-28927.9588496179
-28927.7012043402
-28927.3342738471
-28926.5141807098
-28926.9715994843
-28926.3968975285
-28927.2321842703
-28927.126783614
-28927.6160210515
-28926.7787982208
-28926.4492852661
-28927.704719641
-28927.1728713751
-28926.7031212241
-28927.0990433911
-28927.6627895051
-28927.7318070631
-28927.5113289792
-28927.1494396645
-28926.5513113043
-28927.9834194441
-28927.6843044468
-28927.4463908137
-28927.3388503913
-28927.4319923255
-28926.6018379202
-28927.2803757424
-28927.1979042028
-28927.1712181483
-28927.2851463037
-28927.4068448019
-28927.7969596543
-28927.363490831
-28927.7644623397
-28926.5861769605
-28927.7370281087
-28926.5877300494
-28926.6097007816
-28927.404827487
-28927.3308637182
-28927.3852891791
-28926.592857896
-28926.8143897402
-28926.6006342253
-28926.6959049049
-28926.35776132
-28927.6023286983
-28927.2847833041
-28927.5174478639
-28927.2778495749
-28926.5482043101
-28927.0770598695
-28928.0816047336
-28927.9626616587
-28927.1600051591
-28926.5868932998
-28927.7878215321
-28927.4251878503
-28927.2726792786
-28927.2425270398
-28926.5686733828
-28927.4767517636
-28927.0214464962
-28926.858643319
-28927.3843245361
-28926.4503700473
-28927.6983187105
-28927.0047127282
-28926.8036862839
-28927.1542026066
-28927.8482417939
-28927.3616725673
-28928.1102674219
-28927.3471825128
-28926.5995943428
-28927.4006229222
-28927.2684794757
-28928.1017958421
-28927.3699309459
-28927.3092861903
-28927.3851075433
-28926.3685645059
-28927.3880946714
-28927.8742667481
-28926.7214660413
-28927.621067264
-28927.6154406329
-28927.0413227693
-28926.6663442413
-28927.0156711551
-28927.0530376722
-28927.396221211
-28926.5959073382
-28927.3615805928
-28927.840925881
-28926.6310691901
-28926.5797647372
-28927.8432263302
-28926.577933276
-28927.312892241
-28926.7206518771
-28926.5167954503
-28926.7095871898
-28927.9135942526
-28928.0828929198
-28927.7079761617
-28927.1817062267
-28927.1175475308
-28927.7008558986
-28927.0868005876
-28927.303024718
-28927.2625773296
-28927.3436185036
-28928.1286938731
-28927.4047253083
-28927.716755366
-28926.5131360653
-28927.3239140704
-28927.1246861616
-28927.0248481896
-28926.5483273055
-28926.6995539496
-28927.0129036227
-28927.3804037858
-28926.5804099188
-28926.7175539987
-28926.5863617257
-28926.5779823925
-28926.6787183397
-28927.3341471781
-28927.9544840978
-28927.3355203999
-28927.7836052664
-28926.6889110386
-28927.1488045511
-28927.1028067235
-28927.1641513556
-28927.2062297935
-28926.6410520893
-28927.2461944522
-28927.5434815258
-28927.7918776589
-28927.8815959945
-28926.4922600465
-28927.3698883601
-28927.3562275721
-28928.0929556844
-28927.009355124
-28927.8418446729
-28927.2763866917
-28927.4119383622
-28927.2735987508
-28926.5530888871
-28927.2063167338
-28927.4186191616
-28928.0860005943
-28927.3142511768
-28927.699140902
-28926.9024368896
-28927.1276848545
-28928.1017091739
-28926.6886215096
-28927.7512154367
-28926.708654248
-28926.7619666279
-28926.6948365865
-28928.0988347009
-28926.69890387
-28926.9988226911
-28927.4863692141
-28927.6873570183
-28926.4495973805
-28927.8128368084
-28927.8804514843
-28927.6539353335
-28927.1068436663
-28927.6540845878
-28927.3065922647
-28928.0784967869
-28927.1200960116
-28926.5996861811
-28927.4156942115
-28926.9607123512
-28927.3628036078
-28927.3823081736
-28926.5058945755
-28926.3257268708
-28926.6387236124
-28927.6449011586
-28927.2358292333
-28927.8450882682
-28927.6997821379
-28926.7228193988
-28927.471432349
-28927.7972283666
-28927.3237978778
-28926.6209570369
-28927.7401842194
-28927.7036196214
-28927.4995527147
-28927.6784503287
-28928.0279361568
-28927.4964379652
-28927.1177446772
-28927.5384655179
-28927.6978056401
-28927.2203929034
-28927.2549989631
-28927.7668621104
-28926.6423590514
-28926.9119686243
-28927.7795849225
-28927.4242063362
-28926.8636458573
-28927.051673158
-28927.6533136897
-28926.6525416821
-28927.3846550182
-28927.2712644234
-28927.8449258163
-28927.6602308199
-28927.1481502537
-28928.0775067012
-28926.7056657593
-28927.4523815328
-28926.6035021676
-28926.6162787221
-28928.094598843
-28926.4194077261
-28926.941618133
-28927.7446972251
-28928.0854522852
-28927.110961835
-28927.2540896951
-28927.730315744
-28927.5516437122
-28926.3240941886
-28927.8633763497
-28927.8052131349
-28927.8502991095
-28927.7584135243
-28927.5986505374
-28927.2967129047
-28927.7550533283
-28927.2545588192
-28927.9139840554
-28927.3600857362
-28927.2223032776
-28927.2528945718
-28926.5964808178
-28927.6969418152
-28927.2407561239
-28927.4062166274
-28927.0660372239
-28927.3548978885
-28927.4761959714
-28926.6821684693
-28927.2388990839
-28928.0000854558
-28926.7021689622
-28926.604831443
-28927.2551589659
-28927.211800097
-28927.7007625636
-28926.6165381825
-28927.2532122645
-28927.3324423858
-28927.6507443922
-28926.6858522085
-28926.6089153254
-28927.3521949832
-28927.3621528479
-28926.7175806658
-28926.3377749769
-28927.8008008113
-28927.2947516452
-28927.657560024
-28927.3564965565
-28926.8273494273
-28926.6085490604
-28927.3927731222
-28927.6261868111
-28926.6898445246
-28926.4769112012
-28927.4090139562
-28927.5852875779
-28927.3026828071
-28927.7459425535
-28927.2942008871
-28926.6166194085
-28927.6640828615
-28927.3868195466
-28927.5734479108
-28927.3312717527
-28926.3195214539
-28926.5894383792
-28927.2200866394
-28927.3031928843
-28927.2426903081
-28927.4607907985
-28927.2824571401
-28927.698317486
-28926.685515876
-28928.0990794671
-28927.2292462586
-28926.5952289587
-28927.7449320593
-28927.6890737836
-28927.8810727199
-28926.584524414
-28927.8439327374
-28927.4012059258
-28926.4177471523
-28927.3165358435
-28927.3215232794
-28927.2166024956
-28927.5307555844
-28927.4398170909
-28927.4459318939
-28927.4423578165
-28927.8389481587
-28927.2791452443
-28927.8223179299
-28926.6657174274
-28927.2586179392
-28927.69743679
-28927.7018051672
-28926.7032434032
-28926.3352390133
-28927.2889924948
-28927.7470779479
-28926.5887352374
-28927.2731127557
-28927.2505629655
-28927.6406447562
-28927.4253226826
-28926.6254527634
-28927.7450210404
-28927.1949997972
-28926.5926446949
-28927.704903862
-28927.2149533505
-28926.5573874672
-28926.5061868257
-28927.2992563515
-28926.6461720447
-28927.6938771346
-28927.0961542239
-28927.6218263251
-28926.6873836644
-28926.4374253266
-28926.7899739304
-28927.851956418
-28928.0429625474
-28926.6661706328
-28927.9811566826
-28927.9493441422
-28927.2004314588
-28927.8817060645
-28926.5863677122
-28927.6843151953
-28927.3080871213
-28927.3290138893
-28927.4739507612
-28927.4154363838
-28927.8944385366
-28927.8514847089
-28928.0810844522
-28928.0870989813
-28928.1267323415
-28926.5936802236
-28926.6843866041
-28927.1651422576
-28927.2565059287
-28927.3748362035
-28927.10189351
-28927.7319965903
-28927.3221077796
-28926.5937085235
-28926.7087923457
-28927.4274858505
-28927.4765185622
-28927.1338331275
-28927.4436447783
-28927.8427333963
-28926.31842538
-28927.8275483634
-28927.9932696879
-28927.3152069762
-28926.6002562593
-28927.1079266788
-28927.1331463125
-28927.3433198588
-28926.5085399289
-28926.6965983866
-28927.6561780946
-28927.3745828657
-28928.0538283195
-28926.4630038782
-28927.1419672863
-28927.7887860391
-28926.5431872138
-28927.1692806988
-28927.6431461613
-28927.0538017674
-28927.4846498637
-28928.0901435254
-28927.4286170271
-28926.69389725
-28928.0813047282
-28928.0830635351
-28926.5726964478
-28928.103339271
-28927.095793265
-28927.7194103794
-28927.6767466249
-28927.2078148558
-28927.7110220664
-28927.3123216186
-28927.6501955388
-28927.8353241484
-28927.6174623017
-28927.7097025871
-28926.4274120867
-28927.45733373
-28927.6226845717
-28926.5615391059
-28926.5803905987
-28927.4097474387
-28927.3283125162
-28927.3338712548
-28927.7029756643
-28927.416159662
-28927.3457365006
-28927.7016043473
-28927.3168573458
-28927.8816983093
-28927.498718278
-28927.2880577843
-28926.6726525172
-28927.2596877542
-28927.7287342192
-28927.6611693401
-28927.3547498587
-28927.8895659326
-28926.6190696563
-28926.5829242494
-28926.5721006549
-28928.0215678799
-28927.309623067
-28928.0948904128
-28927.3206729241
-28926.6346960576
-28927.7257608328
-28926.6003686423
-28927.7092878858
-28927.322020159
-28927.7574754123
-28927.7320002639
-28927.8495531098
-28927.7358531217
-28926.3905775518
-28927.3033040427
-28927.237803146
-28927.3612199061
-28928.0749277437
-28927.680789282
-28927.1228058559
-28927.9720695817
-28927.4496210754
-28927.2509296388
-28927.6526253781
-28927.3446231474
-28927.2735387497
-28927.6704844723
-28927.6383969609
-28926.6142906594
-28927.416006462
-28927.6693651326
-28927.1731604959
-28927.3115971159
-28926.7105550983
-28927.3950696258
-28926.5758879333
-28927.7659729789
-28927.3922838618
-28927.2977620391
-28927.7090072005
-28927.9662769613
-28927.3255644399
-28927.2469284789
-28927.2764973059
-28927.4631361465
-28927.2262392662
-28927.4426967342
-28927.2828717053
-28927.0697204188
-28927.3028138299
-28927.3926299904
-28927.8779990596
-28926.4370295372
-28927.3328599443
-28927.8805128459
-28926.5005925762
-28927.3198856992
-28927.8391555093
-28926.406699064
-28927.2981382363
-28926.9901961427
-28927.1867972019
-28927.3613103839
-28926.5656591794
-28927.701486386
-28927.1218754992
-28927.4135283225
-28927.2584553513
-28926.9739040152
-28926.4917458877
-28927.1875509568
-28927.7480974219
-28926.4216889913
-28926.753367835
-28927.6873634129
-28926.6065113369
-28927.3086588322
-28927.8497395077
-28927.5107480165
-28928.0809372387
-28927.3087712151
-28927.353072958
-28928.0987771488
-28926.9058676991
-28927.2897066572
-28927.8196075414
-28926.5573089624
-28927.2661142635
-28927.3030380516
-28926.9325790601
-28927.4952484202
-28927.3962040678
-28927.2496230848
-28927.1030747555
-28928.0258880931
-28928.1004224843
-28927.2195655417
-28927.7606234957
-28927.735698153
-28928.0766455974
-28926.9131384411
-28926.5715105763
-28926.5327975046
-28926.5885602683
-28927.6991105613
-28926.8890147453
-28928.0782344693
-28927.9001704756
-28927.2873389959
-28927.1027487633
-28927.1578523316
-28926.5740908945
-28927.3543906686
-28927.3213235479
-28927.8348599224
-28927.0865627602
-28927.5582345781
-28927.3475071444
-28928.0665873227
-28927.2233169011
-28927.2570942386
-28927.4370966342
-28927.5975502457
-28926.9636287298
-28926.7108413619
-28926.5196119632
-28927.13101022
-28927.237678654
-28927.313107619
-28927.4401410423
-28927.3199172643
-28927.4697018419
-28927.7663076788
-28926.5572297773
-28927.3622314888
-28926.84222289
-28928.0631351523
-28927.3301815291
-28927.4090679708
-28927.9592863604
-28926.8382772413
-28926.4631404793
-28927.2553778814
-28926.5863029491
-28927.2698920179
-28927.4570254252
-28927.2436193042
-28927.4135480508
-28928.0864177446
-28926.4303322748
-28927.6655903714
-28927.5388913758
-28927.3774459099
-28926.473713321
-28927.2320422269
-28927.2428269091
-28927.6910517781
-28927.2123152082
-28927.7421305127
-28927.3215440961
-28927.3181394095
-28926.545403852
-28927.3104775041
-28927.1034317687
-28928.0016944641
-28927.3192011971
-28926.7752694503
-28927.3103053921
-28926.4773731142
-28927.2625624994
-28927.3667065346
-28927.2599176903
-28927.275626406
-28927.8322185148
-28927.7061332717
-28927.3210390531
-28927.2870564059
-28927.9299746809
-28928.1306371731
-28927.5217593694