-0.377310479415444 -0.184020185879857 0.35435876758042 -0.152957676205206 0.1211624025084 0.0830350192194336 -0.794098684802088 0.145412006548282 -0.566439187525553 0.411583009727504 0.360221651088217 0.00642544058866673 -0.0894216361704352 0.362545927144459 0.776240839916872 -0.123850746584072 0.561217793924871 0.928683781535287 -1.2227049597601 -1.33852924064464 0.739259910934851 -0.0175074037054973 -0.67918046020319 -0.00238932493259493 -0.0802412599686452 -0.69291142953766 -1.22231569494272 0.0959764031812579 -0.235944872930563 0.151900953352203 0.347339402468532 1.11444743156751 -1.16503771676734 -0.20158569648676 0.365805055826863 -0.259876945894177 1.09618926612703 -0.49545209438128 -0.159012363909681 -1.8944541643379 -0.44242106221221 0.726528843102894 0.0405794431062655 -0.124179076288034 0.10495289100776 1.25312006599342 0.242978893322893 -0.170637600843639 0.709442842987682 0.53697307497847 0.0204991377973594 0.307937266891197 0.137514610160723 -0.707172560069915 -0.333224053410159 0.149450950416369 -0.543929705205654 -0.519272067305013 0.281419436815013 -0.0660287232610177 0.130704275627787 0.654150269647074 -0.585634005363475 -0.0299497368017059 0.0541792862472974 0.679859745307238 0.62067529512334 -0.163488909309596 0.745596391400126 0.742244703051766 -0.389468191538837 -0.278645989268699 0.080786333557056 -0.34188275305021 0.409778610461718
0.167642524319396 0.174511222863921 -0.596328246324021 0.0819541280092077 0.578878949519929 -0.202888216674915 -0.488021352976252 0.151704778282411 1.03282086193171 0.371460708526991 0.854263239004393 -0.151991713246877 -0.19704795886324 1.13130408939929 0.393204002500916 0.332207953966102 -0.142412816261107 0.172412946658723 1.14464219437382 -1.65948039656933 0.687326482137916 0.910589909501882 0.622907782844175 -0.150819290811427 1.91814095418673 -0.333704078122217 -0.3214916015298 0.0761102706549679 0.469833635725974 -0.267486121766355 0.214715799323062 0.102696492039886 -0.0267566854363883 0.183071963524168 -0.128750238235371 0.213492469071337 0.22985110447824 0.272149072049099 -0.562308969542425 -0.544145163539186 0.133420901823612 0.153669871412705 -1.01604133715489 -0.016369176924415 -0.117431476639802 -0.715756697756835 0.113241866204352 -0.148382657605121 0.170035705904739 0.0128017731323399 -0.206917904576407 -0.189881526726555 -0.676578762259261 0.217600061358342 -0.623669343206851 0.183856149582967 -0.0691302434011116 0.388401955609054 -0.628028132142855 -0.00674734253804894 -0.546847134454567 0.0436110292765256 0.212520592578793 -0.161273647971036 -0.962208892544748 0.0865314606009421 -0.858285984930937 -1.17428879826951 0.127807929413897 -0.238990085940533 0.663816841205319 0.339204179161501 -0.608865453077835 0.212823468374617 -0.807910386734088
-0.189432869456849 0.0587509624150011 0.0186119490525788 0.501499325890441 -0.858502471705202 0.0169330195562003 -0.487895883206844 0.121475048491187 0.538538875994235 0.184342087829239 0.480903514664193 0.515509773994063 0.964620328953099 0.107912486326721 -0.499974148283623 -0.318683186998569 0.0612896683640425 -0.0208727188935674 1.01070604374305 0.914170168803118 -0.966125966185992 0.0946394302285522 0.784724961742522 0.849094038770903 0.20836672045881 0.0239297589719655 -0.191047521407424 0.0648020505769102 -0.286152835287958 -0.314714691320682 -0.813632630971668 -0.170735045603077 0.698407416814013 -0.929780356466689 -0.89771434574696 -1.46003282836616 -0.319521880416208 0.342966472472452 1.24198616661958 -0.00785085944439753 0.0527669800109104 0.44752469934898 0.724168057400636 -1.02248400412583 0.573050518776682 0.814231183478187 0.186877965566265 -0.113640129878149 -0.592135550566372 0.651320257860453 0.0306493336102275 0.216240719819696 0.15000399442046 -0.0900191602362213 -0.589377015410684 0.217598518697242 -0.0307920297619105 -1.00967168947598 -0.837265941902389 -0.0206204938038358 -0.339895034223794 1.02124344749183 -1.37178412885154 0.552502015824146 0.0370729744276117 -0.414026070688391 -0.53854890329138 -0.842394004506565 0.31776453231395 0.793368748991948 0.698683810260967 0.0892732835947215 0.00693914673472556 -0.996442342108959 0.156305765011001
0.276530229571042 0.154040367186715 0.0215769436853868 0.707440211770639 -0.717248708150018 -0.297162807553489 -0.691225300956152 -0.364544444598571 0.225687462171295 0.0391116010703046 -0.345265808840922 0.726173259719511 -0.60073074399117 -0.760523951527268 0.357642064620045 -0.0675603286224153 0.290401581065546 0.191380993315051 0.282471274574536 -0.675802803726326 0.347092833802831 -0.0964541139016669 0.949723364937759 -0.786077361306221 0.49111927357378 0.621291588232501 0.171312257964389 -0.125010056400177 0.159712217828385 -0.769077750212569 0.421877701463338 0.12617553686068 0.0186934529806572 0.301176554623621 -0.331690648277479 -0.229207300579476 0.817488512389307 -0.350003321076798 -0.891693339476487 -1.07993476034433 0.419697407109695 0.622740404114904 -0.0557162909225424 0.10811251804926 0.332426754732016 -1.01355251058139 0.330518997172579 -0.431703167114808 -0.285846359949568 0.41502802907237 0.037676669137795 0.214116732596177 -0.162444013525019 0.430699923179913 0.0345885187272281 -0.0502989793622524 -0.130312696818754 0.0707855187606344 0.0428839216784003 0.036297015894676 -0.276426099946841 0.613473381781371 -0.212046738511132 0.0172888600497666 -0.406621811632233 0.580160643783244 -0.230544273532181 -0.353157291694267 -0.0218929321005551 0.416973067608374 0.414648277331765 -0.17298578814692 0.432032268149321 -0.128105405895874 -0.157400540171121
-0.365447158451831 -0.129233091159445 -0.336256925131335 0.794469180576098 -0.576515335605656 0.00713866423689856 -0.220163449884971 0.216515570605551 -0.0408596932059673 -0.102565880066814 -0.337401836777181 1.10356164352047 0.654551618643069 1.3514577690973 -0.286724905445606 0.172473367551778 -0.194017401133713 -0.701326131613843 -0.384673086621921 -1.01211989264053 0.564947691352736 -0.689755916259092 -0.3961846808549 0.375688371269556 0.891671742221097 -0.651494835674854 0.400382775926396 -0.259643232737637 0.673271553972597 0.233510810826089 0.115318545154161 -0.114679112128511 -0.671505721234293 -0.183035453878152 -0.0598267114215627 0.444947426872457 -1.42670054999411 -0.0207001979606317 0.322806720116933 -0.160579707586545 0.0743385243824497 -0.61836156058461 0.0470151681022608 -0.113985943074569 0.0685471175055853 -0.186382000022848 -0.424145413279273 -0.28049718258783 0.0852636502875206 -0.279493938652934 0.507118983164919 0.240384651574278 -0.0858971697789565 0.571938517234288 0.445925988229764 0.476311012571649 0.61545801528559 0.638991567465224 -0.698840390362543 -0.399288514986643 -0.141210826154588 -0.273811546493752 0.40679278990407 0.829960156046402 0.957001640004142 -0.661153693927603 -0.313493160840239 0.486332653292911 -0.415699343760738 0.123505447608017 0.231498409422083 -0.326995045001466 -0.605880403850736 0.901620877870692 -0.884171323956418
0.421979002875524 -0.0648683850041791 -0.103525415270564 0.578343389008297 0.312288599631887 -0.215770465294601 -0.649415585623214 -0.841242150885772 -0.0438126036601643 -1.51312273876719 -1.39816260520843 0.0595382337959981 0.429809550615447 0.353519817052597 0.948375079136992 -1.29363831687608 -0.50902622650399 -0.814139652252963 -0.283735228235209 0.287001556002743 1.73034716214786 0.491658947848344 -1.17906847657544 -1.24807942085154 -0.504007178617497 0.844768674158717 -1.46121939186169 0.668669024582908 0.211857505416288 0.315143036885914 0.437087568571647 0.00394998374469557 -0.338103747577351 0.360299555473731 0.680909269075112 1.56487541910533 0.724091952786405 -1.0084216197652 -0.805673271029954 -0.797050566815553 -0.421975403332959 -0.0844254710902475 -0.0155477098890507 0.670781698958366 -0.556545587675531 -0.0736715805671962 -0.473593615045275 -0.404850836690265 0.0607355959192193 0.0545197001298709 0.274120078713607 0.377934485830102 -0.298707011313864 0.452007672503476 0.133329884818755 1.16191639914314 -0.261366899405894 0.534897681579578 0.0443957295556905 0.383388307036408 0.0836389710398 -0.691160509189982 0.854689527688159 0.191488465371634 0.966899353617096 -0.0838827114934856 0.147976680625828 0.483853082686008 0.187799191352716 -0.185294938168225 0.546760231212642 -0.0641695595262072 -0.326457170498186 0.262805173770785 -0.284718417575814
-0.140115279663919 -0.46230802066334 0.132645971731409 -0.0172145552068182 0.138535337588077 0.304372691311137 -0.794805994916106 -0.0991658550040105 -0.0576983533249286 -0.4740726113166 -0.185527365773849 0.375025798327417 0.371160660943182 -0.238865130391492 0.500089333645703 -0.000481310262974036 -0.238726033782373 -1.56263444674844 1.25691809761984 0.147868180128513 0.11647656941935 0.288175778209475 1.41718721610506 -1.17678662369943 0.400820120348041 1.2413487904754 -0.217331381216884 -0.58545197135376 -0.297517876716505 -0.0291609227596096 -0.0571406813375404 0.0444502369145316 -0.0984564880085269 0.158734170691445 -0.212120272023531 0.0131822962034945 -0.27750004918212 -0.802757641552323 0.871634374312787 -0.247985599920593 -0.527676999194234 -0.0398744469838965 -0.3191130752249 -0.201050393085311 0.25384205567381 -1.00375738393154 -0.150354692710362 -0.243081480285995 0.178808562466137 -0.179862714217308 0.22375270804262 -0.353784897651489 0.197750898104144 0.412979375132532 0.0261115959867079 -0.729500265490283 0.203706084167715 0.258408332527666 -0.700291006016229 -0.180944376758084 0.826276795561698 0.287260723067421 -0.628460848581202 0.12270377805676 0.126751206560893 0.627601843459088 0.281165411953999 -0.0337084305700913 -0.292972682897673 0.0335204830261629 0.113961517607164 0.557445473316775 0.0686193654670681 1.34431884775022 -0.0653522663689852
-0.109620212163619 -0.223270883559279 0.227080228033758 -0.380585291819024 0.337252198650551 0.199896739693236 -0.608940015030966 -0.877611157631748 -0.0520463001673654 -0.125382094835286 -0.501146570719073 0.608281812961942 -0.639410914174044 -0.477755714691121 -0.432256725339265 -0.198295971692554 -0.18740015634837 -0.635630108929903 -0.738325829639239 1.16163846303509 -0.589578589794323 -0.849472247850409 -0.345531660770364 0.122814849655908 -0.293223365326305 0.119777349951434 0.732073167093691 -0.203388553091447 -0.193809913215861 0.0937164046708189 0.0152042106842786 -0.128683132477553 0.0567886974967223 0.167596501596601 -0.252020172915565 -0.662888673443922 0.433333759896743 0.0758845279141072 0.367040727367383 0.483317265064193 0.139532153768393 0.112907365855993 0.593756630271528 0.616341188764925 -0.488412160454735 0.988200932296262 0.485600146380938 0.302219907747098 0.0751355659504089 -0.190658513700223 0.409115523299213 0.579620198178131 0.383054835128781 -0.13002499052374 -0.396708928518471 -0.254505142836316 -0.194709541746922 0.220532917218248 0.653869505327006 0.289267725157579 0.442816754784174 -0.161079015562344 -0.322627000098867 0.192386294131412 0.391485478036323 0.0889436683398429 0.307601480991921 0.023348689957905 -0.893754334705119 -0.20299825983333 -0.171523088314624 0.13950952807227 0.246849172910793 -0.422789928393376 0.652272593979073
0.0728642545919085 0.276282118244242 0.269747662937893 -1.19404463052721 -0.998516449956936 0.882084874819647 -0.026073029459226 0.736208784390666 0.29577595522524 -0.175644821661705 0.844922940268644 0.794602106540819 -0.7172152838262 -0.00410142164260781 0.296611563320681 -0.674811643970041 -0.133730205374017 -1.650602381943 -0.119047671251476 0.0475013634587158 -0.28647550856789 -0.0291077009516846 -1.47455929660749 -1.18952900437944 -0.724526211885851 -1.18662160242767 0.043909019978869 -0.233796203129455 0.373039879272283 0.513866839923334 -0.0208264390605891 -0.695214622558879 -0.223833440640149 0.231714639086165 0.263851097996094 -0.00850289086902475 1.48320822606058 0.0326928453464014 -0.510830625769776 -0.321376673277904 -0.038125326407501 0.0708240852881163 -0.0257675825615694 0.689496749194413 0.00629971370907576 0.417502457475609 -0.0501624538549665 -0.435590930195166 1.03711845864411 -0.0780527380891393 0.407972411424649 0.403528261907819 0.12447809543111 -0.270679430241855 -0.209915295092299 0.863980718378914 0.00772976054810438 0.719356497431995 -0.385248242101768 0.391105983405901 0.436459448394059 -0.110408511985349 0.133581081467753 -0.179364177572059 0.628712302340384 -0.0641667313141918 0.105408490252413 0.730801757237705 0.215391999104912 -0.0780707358019642 -0.405592085348467 0.186178368757743 -0.177572890925617 -0.0516359523149581 0.124529774577936
0.105659429791229 0.309269097640238 0.375159238512504 -0.271950325877475 -0.235543009714201 -0.0563994326793384 -0.576423290160066 -0.974127749307936 0.412922553782042 0.185427607022763 0.206381829844408 -0.312392729256089 -0.603220341895218 -0.896807775240952 0.0971449689639593 -0.378621227129462 0.536555013820566 0.977229783668396 0.595736892902631 1.4407896738138 -0.72280948719254 -0.129439293526381 -0.0565822380196026 -0.78201733440311 -0.899506403723952 -0.622611591913114 -0.328144841740793 0.403235927629506 -0.0708335983648952 0.328788902749741 0.0999351286721827 -0.631656213938168 0.241770989682161 0.160782310410916 0.301220006244584 -0.327243927658816 0.396762407436579 0.0126397937169159 -0.673055324308516 0.904960224930258 0.401797910374798 -0.218453152946241 0.605736936368503 -0.279385695265801 -0.546573569219629 0.0259706996063073 -0.430268492292482 0.0396836712279527 -0.251546833068271 -0.103609490300474 -0.0441378480419283 0.382725734094269 0.418860770573521 -0.397314937220303 0.46497862413637 -0.0044657467722201 0.20112392659771 -0.671858219295478 0.923824913292935 0.514470277523334 -0.362976586701341 0.617682018370379 0.20350322423316 0.143689625430941 -0.59804008592385 0.29102610170057 -0.264655595759367 0.0834263409182832 1.05006678458088 -0.304829833216889 0.0933831898733753 -1.04592293975805 0.239426916141811 -0.441898871430105 0.721575101202937
0.54153883761196 -0.121769439650965 -0.114055362824037 0.296920609760902 0.77483933230818 -0.670769614779755 -0.684078152083207 -0.87267901298718 0.024844557003836 -0.806306276301024 -0.628848313627303 -0.355690084109095 0.62267844056075 -0.176810816342575 1.07727752660083 -1.98669064279414 0.0108577630370692 -0.348677660972154 -0.399769053919067 0.0136250399389867 0.794950233728889 0.810067541171241 -0.186424423203078 0.251966693997457 -0.97905886551177 -0.558937740820141 -0.951719054179856 0.726536299298208 0.232127300930221 0.31963963688012 0.420280790115404 0.447389716502794 0.0472792202604201 -0.104040664077722 -0.32636949592571 0.801767510236771 0.286756015777774 -0.586776603017672 -0.544176273871355 0.210443142298435 -0.545502448196366 0.110466361776572 -0.238973373778624 0.670612777567996 -0.522024688926488 0.0748280621712866 -0.212299992041597 -0.363574624987493 0.700002271280481 0.17946265077223 0.212612895134566 0.199770755703462 -0.267961518495115 0.476203283404883 0.23301150285029 0.299370355586552 -0.131576136259061 1.07106034526056 -0.0727794082314484 0.549344188553929 -0.464223491528274 -0.208502474635546 -0.113744516612533 -0.343041291535766 0.577802686293001 -0.601908051520101 0.499402335236158 1.43179338850319 0.0557785115868799 -0.158965569856336 -0.0663750506778051 -0.248797039658812 -0.528149824821162 0.194155212191915 0.244582489535591
0.141527585900306 0.284399086728264 -0.570472732079792 0.678109082069743 0.640916037186571 0.729012013252362 0.508543887800283 0.698384276897524 0.367014245018512 0.314867671879693 0.297173349071 0.414827740239648 0.0787034839628505 0.729651446278012 0.0515824733968498 0.0314684866539429 -0.227869813406404 -0.59364555867238 -1.45124737340579 -0.141100782996173 -0.942886290945769 -1.22327574436683 -1.10436691261429 0.14468515606034 -1.05459500912762 -0.3639160673108 -0.592260506115414 -0.0774600991168342 0.140669352108742 0.240547659430435 0.0931268510207124 0.261383868677986 -0.24190700096908 -0.79762340830375 -0.24783647601433 -0.0954004763708616 0.118122331702094 0.403161365676375 0.12506147843682 0.463445733224056 -0.0991576274781477 -0.15138210500248 1.06556461509439 -0.33192281877292 0.317559872608113 0.659209426722149 -0.100924745767368 0.257329241088723 0.0760940727134255 0.356929098081996 0.280204848309517 0.272400011587914 0.574550756695728 -0.295124952241345 -0.444867465605478 -0.619720902123255 -0.0734381245208391 -0.199608776288038 0.334234753540368 0.446938231021072 -0.545661342289591 -0.334500605469809 0.119540551472695 0.0917492546590591 0.103923164723994 -0.625240800646647 0.824136610396636 0.474317380211019 -0.430235067968664 0.393254138986643 -1.17114048407608 0.123219798194468 -0.0159845400903289 -0.557236442737823 0.994470307003718
0.374370167360225 -0.122428927270906 0.0252057968112498 0.145194234223101 0.407164057008629 0.103346980803414 -0.403619793133043 -0.848523768384537 0.637049357141236 -0.0981194165583351 0.209305943958086 -1.00016915421463 0.0133144508376658 -0.113783083140015 -0.559470473119758 0.604094516518141 -0.426486658607607 -0.135625364534477 1.39969678167166 0.180760542977087 -0.84591255736383 -0.176119704170099 -0.0564706522000883 -1.32375671795798 0.537235327365347 1.48652571875458 0.703334419254917 0.0101833630265025 -0.00948813709109553 -0.705557651009156 -0.332958715701083 -0.539450331593723 -0.053146217531149 0.136594927035372 0.225324422592599 0.373859803646548 0.574008254209149 -0.880600063511595 -0.82849462800209 -1.06829512524011 0.0251379197228816 -0.571755197673657 -0.194164725268694 0.458188087087541 0.836894931908013 -0.255917706182886 -0.215354718128346 0.0100674063338736 -0.876458532680406 -0.353474051439985 0.391268477041692 0.191042636313943 0.368478487511908 0.656310509406427 -0.029457627911037 0.608930501954187 0.00720705554563311 -0.0722615883224581 0.469203201556736 -0.0469280077501517 0.224183881819867 -0.369861997407775 0.731387711345246 0.25122981621237 -0.491238315588608 0.661732963170381 -0.574045792295898 -0.295354551634954 0.297260252312926 -0.381919693669897 0.253835885029413 0.525561496606761 0.00219006454060515 0.0296607449557749 0.11032855071837
0.22852415882268 0.0196581303880709 -0.0217216967185355 -0.632630404422361 0.0044271802447382 0.0964474290369034 0.924378728627575 0.383836964306114 -0.472488041257461 -0.20485896622924 0.213435647720847 -0.894125858919861 -0.357727939421238 -0.0650113382660453 -0.447276330911997 0.789125402528207 -0.0340035930604194 -0.141833804128512 1.13074975984429 -0.403049008526311 0.572996268528024 0.177198795609042 0.120080225747258 -0.516203971488737 -0.208816920389615 0.438683194368665 0.951292508385906 -0.597914616154442 -0.0422331758046891 -0.463959953590481 0.0793313470302557 -0.197724415755273 -0.400208455222178 0.235408026868015 0.804481565330764 0.66475400782313 0.314461952010584 0.0680457526483207 -0.490416334332877 -0.0829195767471711 -0.53061062638469 -0.432954779486687 -0.402936651376247 -0.283893865218251 0.20313272845915 -0.781104336142522 -0.571097252714816 0.490754948444168 0.0653445530634889 -0.0415675175403517 -0.0961607511826213 -0.32915939852375 0.00576415319744386 0.177399855772315 0.0887431223969371 0.669565824901954 0.26608281438638 -0.344310644510287 -0.462216232327933 0.170871056889997 0.417119106192439 -0.813793324836176 0.950223187133925 -0.126705698058464 0.12464933081313 0.624121600019122 0.562345222078258 0.236851700546753 -0.400321326592608 -0.197316124784331 0.236777909924171 -0.121595118946747 -0.746329155422282 0.118943284517092 -0.268809982099716
0.0710696255130844 -0.0262620054438872 0.0607129702230966 0.50191224484468 -0.951640378463793 0.11302563654027 0.413892116282937 0.560312508969779 -0.549466830111321 -0.930140053613003 -0.538078648766284 0.945526812527363 0.573838818598412 0.0630045932860707 0.0277774128637425 -1.41857561109441 -0.0377417180141478 -0.531232833028065 0.237407572762859 0.377111733243821 1.13656019287471 -0.127582958003586 0.120744341350497 -0.735203740684488 -0.639183114551718 -0.525685680825252 -0.553982456259084 -0.343086285817829 -0.105977732198046 0.0763061886145759 0.156559018541466 -0.244243618314116 -0.170309271139677 0.354161049849529 0.110841999754245 0.237667254047904 -0.11528332105906 0.342177658430355 0.120003092692295 0.523267045331771 -0.255541039764479 0.235742270106191 -0.0214342475337038 0.219165091043557 -0.486693378879958 -0.0988784058191788 -0.141861314918116 0.379126448639475 0.600106223356147 -0.203023199521102 0.41739935629214 -0.182688355130815 -0.322932189886341 0.455096337134409 0.417106250683278 0.77810540296553 -0.543803464105696 0.212156010338998 -0.574465139004718 0.0698311257605492 -0.436204909312678 -0.448466493950088 0.190840547709938 0.191819109067245 0.583548584667437 -0.332181471617232 1.00785906268433 1.05072267265826 -0.0947307043435927 -0.00307118113847482 -0.0731149370205408 -0.0270441346212201 -0.945025704780281 0.24329873839081 -0.440966847015959
0.385108117051917 -0.0982901377199883 0.0729344456719256 0.406043056609822 -0.184566030798817 0.426103821544804 -0.0942586500472143 0.0339030629787833 -0.763093253588111 0.295805522896309 0.0840611459606352 0.992629140981733 0.637546865345753 -0.151235037977682 0.711933726442646 0.0982109477835588 -0.291439791985359 0.899211241233624 -0.35474854661817 0.644185450276303 -0.488354310663512 -0.001682014818577 0.029104615629486 -0.563546697964411 1.09672559796921 0.634879347194922 -0.282989094483526 -0.200457497002823 -0.384447086770877 0.264775409104744 -0.192440287269887 0.757586467684063 0.730037368663014 -0.0362103697629334 -0.534061302153587 -0.805625962756243 0.569828928181028 -0.20331913334198 0.0258138623945476 -0.637585431873235 0.267626246816205 0.365956493724775 0.014840656885216 0.047679283705499 -0.391158948103643 -0.0206667736368141 0.19557857416618 -0.118775905787821 -1.12744023756598 0.0894802572922077 -0.265739829401974 -0.271819713904403 -0.343196328976244 -0.559328548298624 -0.234323021894857 -0.644088776847415 -0.442611066637604 -0.145978934502266 0.476436482341057 0.166188309123145 -0.678370820236253 0.00585517020230113 -1.02819904927828 0.125092845879172 0.313561552148973 0.277138552264523 -0.28146237421561 -0.877521169067623 0.161751615801628 0.328387810863929 0.34684549380658 -0.283243633564907 0.319854580993285 -0.214617840343258 0.898192313577552
-0.0160130793206656 -0.137435420224294 0.100935801505246 -0.239793555263072 0.112823547936265 0.0101221708028979 0.483439392401219 0.221037110287528 0.646224334029179 -0.108873821301753 -0.491009744635732 -0.367310950169939 -1.29296545952661 0.147126160139761 -0.209592364702184 1.02336769182554 -0.0303341165256088 0.179571922600095 0.779086021204303 -1.15010835686892 0.454414738038712 0.355213916049785 -0.648598489460964 -0.519119600966368 -0.848841299460805 0.391121410016894 0.33314332081263 -0.0236813905349821 0.0812807564393738 -0.124996943780833 0.482455688840248 0.0653098431887552 -0.499720894753159 0.901776943751903 0.692049339093348 0.817653320016747 0.166065667565753 0.13030755461509 -0.4552925122042 -0.388300911307051 0.034003078840053 -0.416980266693504 -0.688468565571746 -0.226027618943685 -0.111233321453095 -0.503369288252946 0.143165120657187 0.059267239662892 0.671528604040599 0.674386640837191 -0.1081348866352 -0.00876565747626805 -0.379432409757498 -0.0227372819422254 0.162650987222506 0.45711876583556 -0.35562889188549 -0.347394681157923 -0.581109123249116 0.104026008797279 0.249127169134057 -0.318717125542753 1.33585452340868 -0.482572416863426 0.015251776068173 0.121286329616709 -0.284961643809134 0.244198881142237 -0.332719603230696 0.0829843685133407 0.418785694400023 -0.0439481007267173 -0.123694680702861 0.134806211490761 -0.595084090147455
0.0610772953527089 0.228127437809983 0.00265877640460176 0.563375462582391 -1.26362738785077 -0.282759237979734 -0.716633186371407 -0.141350436984072 0.466932918638969 0.0381057860335769 -0.391625860196357 0.323103939488727 -0.679409802486616 -0.701224315981291 0.481071407613831 0.226658567333289 0.260871705193027 0.140334080429833 0.0519506551792103 -0.728335042139963 0.878976412704607 0.211598081241426 0.109721513575805 0.456596317943272 -0.0076914511308057 0.106412248407675 -1.7827323335367 0.207401271720846 0.370606074277992 0.12467092806852 0.280271696957152 -0.0123947677123143 0.154239370468521 0.809485443716448 -0.165525993291189 0.274387473304148 -0.227240407677899 -0.144707781756463 -0.0224750295553485 -0.0957223783202438 0.561516041737397 0.701037911098462 -0.619923247837443 0.325689439491113 0.255702247849354 -0.333871971071855 0.171078544807849 -0.585133154726576 0.128066582258209 0.39757718960718 -0.324075558871087 -0.0348962796165336 0.0257310729155532 0.0705595189095906 0.107202605110871 0.213078264566181 -0.195738496700138 0.0425046841581617 -0.134645517626254 -0.595930753980774 -0.0428870070005988 0.106728493933027 0.435059226336283 -0.172387492750585 0.0281620496978285 -0.229038122078922 -0.102435268093742 0.401607391729038 0.341550052473133 0.11360901954598 0.224529695016288 -0.194676117423104 0.191791855387825 0.15199916944219 -0.894322291099836
-0.218964030880285 -0.0246769211643814 0.0564102313070333 -0.283055171800612 0.742157028479291 -0.115875445810999 0.675079552780949 0.449481050733045 -0.298399764644925 0.0822294930154284 0.740791773406432 -0.0224171797641256 0.839829844649385 0.978035566982584 0.360335036679014 -0.655959554006342 -0.42893177644996 -0.211230670789615 -1.11040823058924 0.152672798122207 -0.326210087612118 -0.513197839226615 -0.525442711702116 -0.0546873359693255 0.174547732509937 -0.853100586755905 -1.23132869241524 0.425520181428911 0.0375925941078845 0.516598635619968 -0.18294880774641 0.300551776878414 -0.0878792321813427 -0.61779977483429 -0.247646728699119 -0.187526911668694 -0.719418718096332 0.282961583693923 0.356733951452938 0.726456338031228 -0.0966554311751224 -0.249775343905936 0.50198989212001 -0.775752330568768 0.0689716064180694 0.846319305673672 0.0493551278796789 0.150792808462556 -0.167345819167968 -0.117083092341549 0.0421516718766107 -0.0982891092792555 0.0789654792395441 -0.192303504652418 -0.000412404733873052 -0.647680863217078 0.270840124106363 -0.0965320182871804 0.191349625872699 0.432159537690011 -0.449626575096744 -0.278881502196521 0.236552681403677 0.464512997594572 0.321766452315655 -0.564361737245195 -0.0687247806421853 0.092814462148109 0.496088184974548 0.284924619942751 -0.385464214655667 -0.00970925184865839 0.16127236242012 -0.0371786467129121 0.564070688517798
0.504969542033261 -0.0257382720006831 -0.00855842666859868 0.437625957295294 0.504971598914727 0.558213204323848 -0.389641998022688 -0.391387004836153 -0.295962617218252 0.982686947307084 -0.0163064420397112 -0.147722141544448 -0.696116565081589 0.213643135638699 0.230329843639382 0.00833936879250152 -0.156193150750754 0.414921071236154 -0.79262544345228 -0.679449654565014 1.24837046957893 -0.228002996481308 -0.24489539262856 -0.46100267226317 -0.307549801845096 -0.131199984061021 -0.63039508848951 -0.295417029409475 -0.382694109541734 0.339824843143777 0.34318964411148 -0.34170508991361 -0.212657375196262 0.942156355135629 0.583431085313709 0.73250845463387 0.64954414071482 -0.40584199644655 -0.432967634995848 0.0930124369891827 0.481133885388352 0.00959355226621271 -0.654199377692068 0.10119856811249 -0.129262144610148 -0.465123120059335 0.520095848332027 -0.305362565516506 0.482843925216899 0.298701354889833 -0.545298559821078 -0.833286133376441 -0.490919756071607 -0.160652726878577 0.0249330029068612 0.31891381483291 -0.174720253442873 -0.266117781371297 -0.303818104645948 -0.188054244654463 0.38892183239951 -0.842004739689181 0.979641991407297 -0.256708062886081 -0.0171819022135501 -0.0354567798159372 -0.189125108567543 0.486271461069306 -0.0249661701204956 0.0386665433431636 0.284310126604873 -0.121167287601881 0.477024493330064 0.636665234527517 -0.639196484281245
-0.22836655028037 -0.0963142459619993 0.111803077619094 -0.504830445424143 0.233539092946242 0.0842717192006863 0.143780128215432 -0.789764578443673 -0.237364635362263 0.191443728199755 -0.265397358637935 -0.50434759250007 -0.371228023811183 -0.218626188099543 0.644443846010431 0.480764675165258 -0.159128320602309 0.507498477795341 0.524418898952564 -0.232794758965841 0.827151741515171 0.928522573450413 0.440018881770454 0.262651164771041 -0.0068645847815939 -0.312846785839642 -0.425017273910547 -0.0395517737039647 0.137731868265538 -0.160681008998731 -0.0169548739217734 0.206015190723147 0.265991797381523 0.40442069135375 0.219653343281478 0.566151995450904 0.733787834905536 0.256738658997884 0.016001509362421 -0.640805736917973 -0.0518372695884136 0.0939395763098475 -0.634018799411709 0.190053790549307 -0.14531661867031 -0.927355036108444 -0.0196141645467416 0.288829609405384 0.135788629500817 0.340931702482507 -0.126463500265878 -0.0714725171701786 -0.582143734626363 -0.00536974617639569 0.306847891044925 0.760358115459096 -0.297156379798908 -0.197954786479431 -0.294117337433335 -0.624491324462582 0.0594384750449116 -0.142504604596514 -0.0786677456473839 -0.320012189535595 0.131864356774443 0.288073448356556 0.38292113783351 -0.189579679371463 -0.239096015336016 0.0540430178501947 0.164860077916669 -0.341578077483103 -0.386762106860524 0.272904204657194 -0.771258044566212