0.869268577458449 1.45404925683959 -3.67858657097189 1.45404925683959 5.16424559426451 -0.703317303580017 -3.67858657097189 -0.703317303580017 -5.86756289784453
-10.4668699457907 0.708682335305239 1.01240333615034 0.708682335305239 1.90285808862803 -3.89085009415961 1.01240333615034 -3.89085009415961 -0.694876835266825
2.47006935890997 -1.9133578841447 2.58087115728558 -1.9133578841447 2.52952398242859 4.83203940233154 2.58087115728558 4.83203940233154 -3.67537672660565
2.71463015046886 -1.04990014456713 -2.93867832027723 -1.04990014456713 -4.79879917194208 0.591382959843025 -2.93867832027723 0.591382959843025 -0.354308733650447
0.689129964116376 -0.124756286607275 -0.853491421075166 -0.124756286607275 2.03174523903276 -0.405952996103037 -0.853491421075166 -0.405952996103037 -3.54268248794309
-0.656218442305709 1.44473898991499 -0.423366736971425 1.44473898991499 -0.254020042182855 -2.27295016911534 -0.423366736971425 -2.27295016911534 5.36881943321888
-4.93245870786333 1.17181157159973 3.61091565767029 1.17181157159973 5.45543387222543 -2.10058074316397 3.61091565767029 -2.10058074316397 2.67129637896162
0.285369437966024 2.13276106269345 -0.187743051293437 2.13276106269345 -0.95373470057066 1.69970042437658 -0.187743051293437 1.69970042437658 -1.99508282507826
-1.38031120339014 0.916633847688211 -1.43659573789731 0.916633847688211 -0.0562845345071709 0.659333118512573 -1.43659573789731 0.659333118512573 -1.23289932729993
2.72734479624233 -3.40346002032986 -1.72877461912843 -3.40346002032986 2.63788955120921 1.37927505713857 -1.72877461912843 1.37927505713857 1.49785526567084
-3.25422719387618 1.72814352615973 0.39614366984277 1.72814352615973 0.903951998298938 0.87470649247162 0.39614366984277 0.87470649247162 0.911928045342752
-5.97585936488033 1.24555933964606 0.572156747701308 1.24555933964606 2.21328124625197 1.56106964496283 0.572156747701308 1.56106964496283 -2.49818234284398
-2.96904206580219 -1.48729066169382 -1.3681966236066 -1.48729066169382 -2.82225173978771 -0.875202698501391 -1.3681966236066 -0.875202698501391 -2.40680742087883
0.967009964997737 -1.2335910904836 1.55767010578014 -1.2335910904836 -2.89057573320945 -1.57857842934766 1.55767010578014 -1.57857842934766 1.4897180541857
-3.06441360594094 1.78048740398896 0.946484059131267 1.78048740398896 0.279830069656201 -0.943740627075814 0.946484059131267 -0.943740627075814 0.0301777526099824
5.24020396565757 -1.03370672652372 2.58564509194466 -1.03370672652372 1.62085214718919 -0.0468613716024085 2.58564509194466 -0.0468613716024085 -3.23343464056619
-3.58793311147535 -1.92575720226113 -5.20438573516102 -1.92575720226113 -2.5900896449406 -2.98815118954206 -5.20438573516102 -2.98815118954206 3.31897260836625
0.018203341829715 -0.348463972168829 -2.47305401143699 -0.348463972168829 -3.08156572403032 -0.247045353403274 -2.47305401143699 -0.247045353403274 0.0806147995315948
3.5226767234825 0.108073354555343 2.58089463378593 0.108073354555343 0.807976984056613 1.90157640515235 2.58089463378593 1.90157640515235 -1.55419776551017
-0.705849885910406 -0.647721071776608 1.0656949257863 -0.647721071776608 -1.62760679574635 -1.54733367146634 1.0656949257863 -1.54733367146634 -0.905148677226286
-1.55234782065296 1.0187282573035 2.6349061692662 1.0187282573035 -2.91831177468146 -0.280852401762871 2.6349061692662 -0.280852401762871 -4.5498089085585
4.95752135893356 -1.64698956665739 2.22633263030572 -1.64698956665739 0.896602360408129 -0.521408757283497 2.22633263030572 -0.521408757283497 -2.45255230277793
-5.86471402267013 0.588447532038785 2.01126096771465 0.588447532038785 3.61192608285 -2.21326534438468 2.01126096771465 -2.21326534438468 1.74997269789146
-3.51636873092488 -1.60320762808125 -2.50367591252022 -1.60320762808125 -2.69873284060344 -1.91850512827056 -2.50367591252022 -1.91850512827056 -0.366065741745219
-0.768522870334472 -1.14584817851313 0.0610379174994887 -1.14584817851313 -2.40544883963894 0.288542882724856 0.0610379174994887 0.288542882724856 -4.16722509473782
7.22068260303502 -4.81790979620316 -1.11071573146001 -4.81790979620316 -0.778943499984943 0.111277642854992 -1.11071573146001 0.111277642854992 -0.183402041001746
-4.95965405058294 0.864801067879869 -0.00597788756598988 0.864801067879869 -4.59500290905755 1.0421450656709 -0.00597788756598988 1.0421450656709 1.28923108506515
1.9046906962581 -1.09926363874951 3.72542808359022 -1.09926363874951 -0.225624517738563 -1.65807785128804 3.72542808359022 -1.65807785128804 0.120682881581092
-0.519005951718853 -0.782672076923618 0.424641233224516 -0.782672076923618 -2.23144804910138 0.591167207038052 0.424641233224516 0.591167207038052 -4.57668884697534
3.43840048386755 -0.15403616442535 -0.804120993949283 -0.15403616442535 -4.58714476093796 2.45674628346193 -0.804120993949283 2.45674628346193 -1.24795401009012
-6.72624087325591 1.00202961843144 0.0983300092853284 1.00202961843144 1.64351586948335 0.84048746031983 0.0983300092853284 0.84048746031983 -1.66926896715331
-1.63188040547895 0.00277059491592352 0.972478815489154 0.00277059491592352 -1.7787219360229 -1.23845592741781 0.972478815489154 -1.23845592741781 -1.72608063262035
-0.875370710939287 1.46611168151181 -1.7695377254877 1.46611168151181 0.494074266297021 1.95213038911921 -1.7695377254877 1.95213038911921 -1.98972299633746
4.67968744104895 -0.184543295203225 2.80395633607288 -0.184543295203225 2.12637946114761 0.316753417139864 2.80395633607288 0.316753417139864 -3.60272582277341
0.324005157521769 -0.742076328517601 1.15492160987598 -0.742076328517601 -3.20869623739301 -0.96678958292786 1.15492160987598 -0.96678958292786 0.79433522489208
6.55149702999586 -0.366755569436905 2.63142110748992 -0.366755569436905 -6.33905937775372 1.96805447643192 2.63142110748992 1.96805447643192 -0.809668033073823
-0.722910155699109 -0.450470134334892 0.650079654938378 -0.450470134334892 -2.49242158158946 -1.65891696177221 0.650079654938378 -1.65891696177221 4.34555321205696
3.39914004317495 1.26148209676834 -0.0237517549600734 1.26148209676834 -0.361554492170006 -2.80006800140421 -0.0237517549600734 -2.80006800140421 4.88758335400621
3.51678386942544 0.850930783972653 -1.89227964547765 0.850930783972653 2.36237427438562 1.16829424652656 -1.89227964547765 1.16829424652656 1.94583472978362
4.15709931048321 -2.14542705727641 -1.78696418236987 -2.14542705727641 -6.68239001131728 -1.9126936981953 -1.78696418236987 -1.9126936981953 2.7847750207291
-1.98264960096215 1.20167119448957 2.57161950418594 1.20167119448957 5.95873579745098 -0.122971738035737 2.57161950418594 -0.122971738035737 3.1519598117581
-3.79069385519272 -1.46495079876277 -2.76683225678735 -1.46495079876277 -2.60108964816821 -1.93277267792972 -2.76683225678735 -1.93277267792972 -0.200495091071547
-0.68978905118973 1.78751786383575 -1.95563849279956 1.78751786383575 -1.17437204055599 0.805990074150007 -1.95563849279956 0.805990074150007 1.99766865004051
-8.51244619016476 -0.369157144175949 1.70288618119873 -0.369157144175949 -6.67856876425843 0.400912597438396 1.70288618119873 0.400912597438396 4.74744026273586
-5.58733025946299 0.405398592369723 -2.15936801241832 0.405398592369723 -2.43790718132541 -1.60228967460414 -2.15936801241832 -1.60228967460414 -1.97459450433144
0.763889076966364 0.90160429084199 0.391627639458812 0.90160429084199 3.78932018179653 0.234546223631926 0.391627639458812 0.234546223631926 2.21635422331086
7.94761899449132 -1.8530305794361 -3.95790365536209 -1.8530305794361 -3.15200766659446 -1.28837319256931 -3.95790365536209 -1.28837319256931 3.02210995787862
5.24159598022765 -1.27386498835622 2.47879788859793 -1.27386498835622 1.39518546343776 -0.198524413769801 2.47879788859793 -0.198524413769801 -3.01371089236656
2.81236969002213 -0.0940067862960044 -0.415196639474019 -0.0940067862960044 -4.35042516580954 2.13604308861477 -0.415196639474019 2.13604308861477 -1.08630064164272
-1.38258330251626 0.844018876536087 -1.1843058521554 0.844018876536087 -0.1822009003316 0.380478350692458 -1.1843058521554 0.380478350692458 -1.17358815213589
4.41277120731532 0.32496384283777 -2.44119179497642 0.32496384283777 3.27539775738313 1.05811397606932 -2.44119179497642 1.05811397606932 -0.439890079938932
0.548773199899136 -0.985178554104639 1.3536405597512 -0.985178554104639 -3.06267709657994 -1.34841414832359 1.3536405597512 -1.34841414832359 1.17332936549863
-6.4825666742122 0.231714956815827 -1.47479754867485 0.231714956815827 -4.28536367193506 0.376196047536284 -1.47479754867485 0.376196047536284 -4.05637477343472
1.3779903590764 -1.91944040193549 -3.64666603865601 -1.91944040193549 -1.40777011143365 -1.33196710543337 -3.64666603865601 -1.33196710543337 1.86800264786388
-1.11917926420912 1.30705108314111 -1.95655080002026 1.30705108314111 0.437472949798769 1.74452403293988 -1.95655080002026 1.74452403293988 -1.79283392923667
-1.3422417801392 -3.96571435041127 0.824974690955121 -3.96571435041127 -4.6978462304872 -4.34239089740686 0.824974690955121 -4.34239089740686 1.11146107881092
-0.0795540656038014 2.0236565437967 -1.55130427927413 2.0236565437967 -1.31264208246272 1.41705679356771 -1.55130427927413 1.41705679356771 0.213801551310216
-0.660896539528384 0.377655165444791 -2.34961594410253 0.377655165444791 -1.93333695491907 2.59423349444746 -2.34961594410253 2.59423349444746 -3.69930400697057
-4.43653888630004 1.15520541366771 -1.85382964002866 1.15520541366771 -1.74105958774205 -1.06443927402239 -1.85382964002866 -1.06443927402239 -2.65147147327541
1.31693666360357 -0.209917723822525 -1.00998150141026 -0.209917723822525 2.21799859133233 -0.255465909180242 -1.00998150141026 -0.255465909180242 -3.5012692048889
-3.53355379744161 2.07146182862338 -1.0822250432254 2.07146182862338 1.7173150594509 -1.08618199036699 -1.0822250432254 -1.08618199036699 -1.80238942299513
-2.1961848202123 1.32703302494726 -1.54089371905033 1.32703302494726 -1.13784856477916 -0.312565629842949 -1.54089371905033 -0.312565629842949 -2.88163576285035
3.45827415721082 -0.19014565812843 -1.78261554495403 -0.19014565812843 2.89774060251972 0.402078839584076 -1.78261554495403 0.402078839584076 -2.68778810500291
-1.88026627107802 -3.54632499228639 2.09447382094767 -3.54632499228639 -4.44811233186108 -5.29171984307612 2.09447382094767 -5.29171984307612 1.4016049559372
-10.0190513060818 0.775311201944609 0.726854251823071 0.775311201944609 1.42601881786241 -3.47044061822825 0.726854251823071 -3.47044061822825 -0.602250665796259
-1.53745318239011 1.16656686069152 2.31372687896857 1.16656686069152 5.85439746169588 0.0539078955957263 2.31372687896857 0.0539078955957263 3.1245016287283
4.17829103526512 0.554991219105424 -2.39240857664374 0.554991219105424 3.10795082699037 1.16151733712778 -2.39240857664374 1.16151733712778 0.58075866856389
9.47307791030026 -0.458277480065449 0.890425103811376 -0.458277480065449 -5.28024096549094 3.11548286886599 0.890425103811376 3.11548286886599 -1.65824088181577
-3.72332073727386 3.18350843707431 -1.96151575750168 3.18350843707431 3.0411403579008 -1.00844056081236 -1.96151575750168 -1.00844056081236 -1.21210600740779
1.19220322528876 0.882714803374068 0.748154619932899 0.882714803374068 -0.567843974121732 -0.113030554090582 0.748154619932899 -0.113030554090582 0.0834273137335247
-0.509222895908081 -0.682518645824444 1.93024804522226 -0.682518645824444 -2.34882393348178 -0.746504768870486 1.93024804522226 -0.746504768870486 -2.85538074092961
3.62473344524289 0.169788791615352 2.53396908698669 0.169788791615352 0.648284477076798 1.93456320143553 2.53396908698669 1.93456320143553 -1.70560558849967
3.71982271781256 -3.78417232956043 -1.94086732207296 -3.78417232956043 2.56983288206024 1.39908510703441 -1.94086732207296 1.39908510703441 1.53193591838486
0.23178051032512 -1.06726839638078 -0.851658619334161 -1.06726839638078 -5.63280542534303 0.892085452530403 -0.851658619334161 0.892085452530403 -1.66558552768516
-6.47617096410948 2.02172468468715 0.938403349531637 2.02172468468715 0.230443354188782 0.106906710706136 0.938403349531637 0.106906710706136 -2.77244736431246
2.10865070220103 -1.65541516463751 1.45367007779521 -1.65541516463751 -0.729598670224211 -1.39563381993646 1.45367007779521 -1.39563381993646 -0.782107665429741
-5.68918345609653 2.69717526613405 1.56152252249866 2.69717526613405 -5.90757821448795 0.554176699418232 1.56152252249866 0.554176699418232 -2.85278153148794
2.69750251894326 -2.75437757205351 0.763750713194778 -2.75437757205351 -1.31625122912292 0.224791876578605 0.763750713194778 0.224791876578605 1.47604304500409
-3.58244831605023 3.38474145534105 -2.20443149690729 3.38474145534105 3.46382419962472 -0.958878274439492 -2.20443149690729 -0.958878274439492 -1.23369081082524
-4.07791165516925 1.26190153660492 3.47185259813772 1.26190153660492 5.88093734983803 -1.33982341536612 3.47185259813772 -1.33982341536612 2.95237340639642
2.04709721389039 -1.53129319149281 -1.05309987906172 -1.53129319149281 -6.33203167078694 -0.317004555431845 -1.05309987906172 -0.317004555431845 0.169248194849205
-8.27916263762273 0.247005123444128 1.53592276759803 0.247005123444128 6.16839158273654 -0.422154210977237 1.53592276759803 -0.422154210977237 -0.648949824321391
-4.52035552471345 -1.69932248683079 1.33067596126541 -1.69932248683079 1.47064335867258 -0.18728032047439 1.33067596126541 -0.18728032047439 1.65989505094144
1.01511105759858 -0.877160067719795 -2.83970811241037 -0.877160067719795 -4.04222428833484 -0.343576050264133 -2.83970811241037 -0.343576050264133 0.0286313375220111
-8.70248132339992 -0.487989606919622 1.83690396751045 -0.487989606919622 -6.62356625001877 0.319375311845769 1.83690396751045 0.319375311845769 5.13380936060155
-10.6562855784745 0.670900256342075 1.1442066015697 0.670900256342075 2.18502104034696 -3.98634227655308 1.1442066015697 -3.98634227655308 -0.769697211899299
-1.33782920345557 0.582871644659066 0.979779478879286 0.582871644659066 -1.68200103173045 0.355274145316002 0.979779478879286 0.355274145316002 -4.30492343269624
2.03849480425523 -0.27059665543211 2.28074323864207 -0.27059665543211 0.945799738510328 1.29886394607413 2.28074323864207 1.29886394607413 -0.999919069596749
0.545866007309049 0.0428130201811019 -2.28193397565273 0.0428130201811019 -3.21953911761886 2.59660967398383 -2.28193397565273 2.59660967398383 -5.10117135457829
-3.70713944461023 1.26959793114714 3.35459351142967 1.26959793114714 5.96948942072592 -1.07061495045628 3.35459351142967 -1.07061495045628 3.02800188007836
1.45688851709401 -0.930563801421312 0.279440441826225 -0.930563801421312 -1.88825774282575 0.564306911649076 0.279440441826225 0.564306911649076 1.13132683729646
-7.94856377597193 0.901551635785797 0.00698877237043253 0.901551635785797 1.04365667398459 -0.594045651486765 0.00698877237043253 -0.594045651486765 -1.02501994766344
-2.14174008330405 -0.442932375361747 0.272781523850832 -0.442932375361747 -3.00599837669283 -1.26397775408108 0.272781523850832 -1.26397775408108 4.80473594980821
-0.270153688164465 1.73911436755875 -2.38072937694935 1.73911436755875 2.24324044636565 1.98997136371146 -2.38072937694935 1.98997136371146 2.713597314152
2.3703122462889 -1.04710497033861 -2.95898319976284 -1.04710497033861 -4.68071550173752 0.34903499011287 -2.95898319976284 0.34903499011287 -0.252659657022003
-1.21260808338965 1.50914106448057 -0.40243761719482 1.50914106448057 -0.108552252006497 -1.91687391348059 -0.40243761719482 -1.91687391348059 5.01193690361706
5.52643053321977 -2.44315172221492 -2.56317555136303 -2.44315172221492 -6.27591266634466 -2.60051629820911 -2.56317555136303 -2.60051629820911 4.22217158981028
0.515533678420281 -0.360096388444317 -2.51290285461142 -0.360096388444317 -1.93778488170035 1.89633493770676 -2.51290285461142 1.89633493770676 -1.01811424934257
-5.23999803474102 -1.65463242421818 1.53630352618113 -1.65463242421818 0.544312930970463 -0.147911122546321 1.53630352618113 -0.147911122546321 2.30938566002323
2.7710206517576 1.04881641872976 -0.51844902516755 1.04881641872976 0.474748341053811 1.07066676078663 -0.51844902516755 1.07066676078663 3.07692544055378
-7.79991278424726 0.357629197843304 -0.649326755860748 0.357629197843304 -5.89988280017474 0.305683057374445 -0.649326755860748 0.305683057374445 -0.133861208131293
-1.41125167216021 0.588558536030287 -1.939665540275 0.588558536030287 -1.5293929841371 1.88811296777599 -1.939665540275 1.88811296777599 -3.04160177744119
-1.99769583418453 1.32417242952944 2.90758782990725 1.32417242952944 -2.0104038229516 0.165203853972003 2.90758782990725 0.165203853972003 -4.75532939664026
-0.220952751028933 1.97864429854 -1.72045231980956 1.97864429854 -1.3306817365338 1.28599466329199 -1.72045231980956 1.28599466329199 0.680236559347502
-6.08313578164278 0.411291623186317 1.19628369969784 0.411291623186317 3.93601660898733 -1.00169411453442 1.19628369969784 -1.00169411453442 1.17859373741025
-2.52461706199427 -1.77369151796825 -0.519457455186454 -1.77369151796825 -1.13042555014669 -0.0269148940511116 -0.519457455186454 -0.0269148940511116 -0.172255321927114
-5.13235429461835 -0.613560933443874 -2.14193569107659 -0.613560933443874 -2.84117405216353 -1.58088672941395 -2.14193569107659 -1.58088672941395 -1.63063491320669
-4.49198891218773 1.08310389845379 -0.438826625524556 1.08310389845379 -4.17084760896294 1.04919456829962 -0.438826625524556 1.04919456829962 0.588426611498836
6.86887465752989 -3.10981940050539 2.61322520304248 -3.10981940050539 -3.2787428365276 0.35412864901043 2.61322520304248 0.35412864901043 -0.215733544799457
-0.0860765150418552 0.858613237542506 -0.163545378579525 0.858613237542506 -0.544433957639735 -2.38431946665939 -0.163545378579525 -2.38431946665939 -0.723042726351584
-1.96080304806305 0.265190576172462 1.60453692047783 0.265190576172462 -0.22233149315469 2.61440406408407 1.60453692047783 2.61440406408407 -4.7198565173321
-2.42140028236268 0.666219525202549 1.65083312068262 0.666219525202549 0.361203357037526 2.88962685630021 1.65083312068262 2.88962685630021 -4.31838680191532
0.593506825561588 -0.14254530744929 -2.51398087683293 -0.14254530744929 -1.98785910570191 2.14595481032749 -2.51398087683293 2.14595481032749 -1.00559235073317
-3.78372110209237 2.67214177152472 -1.49331386935689 2.67214177152472 2.2765619385825 -1.07399924643814 -1.49331386935689 -1.07399924643814 -1.3884852136272
-1.26944666561446 -0.526028639451234 1.19429971712142 -0.526028639451234 -1.4036376450663 1.61834321218926 1.19429971712142 1.61834321218926 -4.51686836834912
3.75378705288869 0.761465519444933 -2.11584299283267 0.761465519444933 2.6809931830457 1.18185794163849 -2.11584299283267 1.18185794163849 1.52887998826053
1.92498915610191 -0.257457397421037 -1.19024535269264 -0.257457397421037 2.40227556209014 -0.0950611928939214 -1.19024535269264 -0.0950611928939214 -3.39249632140182
-9.39004620819393 0.275248831667386 1.70338416318751 0.275248831667386 5.99455857164134 -1.11453215445646 1.70338416318751 -1.11453215445646 -1.07843394702468
-2.33800900260896 -0.568266077023011 -0.987700562444757 -0.568266077023011 -4.71119638141458 1.87257202523773 -0.987700562444757 1.87257202523773 -3.52054364860446
-0.232440975586104 -0.879955121861681 1.11793040639031 -0.879955121861681 -1.50533203236715 -1.58281235756252 1.11793040639031 -1.58281235756252 -0.730528780413471
0.457206404706015 -0.425855108383317 0.833421960578393 -0.425855108383317 -3.44080477141612 -0.161981697667274 0.833421960578393 -0.161981697667274 0.180269953855514
-3.29659959172461 1.75713111491684 -0.910225577547012 1.75713111491684 1.53155347178562 -1.07050442924551 -0.910225577547012 -1.07050442924551 -2.06581631078061
3.24320724478269 -3.08889771811105 1.09370261009366 -3.08889771811105 -0.950221822135828 0.606409367972722 1.09370261009366 0.606409367972722 0.847348804354741
2.90687326199686 1.02852482903987 -0.921304093966217 1.02852482903987 1.02653925987184 1.09404861158488 -0.921304093966217 1.09404861158488 2.88900313948458
0.0613844945202686 0.00198014498452479 -0.724733064336074 0.00198014498452479 1.85143556053068 -0.544539870744318 -0.724733064336074 -0.544539870744318 -3.52069778248508
3.53351341662518 -2.51698622102375 2.53050386990143 -2.51698622102375 1.68970610970982 4.03096289532376 2.53050386990143 4.03096289532376 -3.10635571209054
-4.87191420949737 -1.36896762911496 -4.81554495418087 -1.36896762911496 -2.5715117425336 -2.85335801911609 -4.81554495418087 -2.85335801911609 2.33529772025494
-0.795194724638938 0.974598412514796 -1.335830162427 0.974598412514796 3.20017389183963 1.38431764563669 -1.335830162427 1.38431764563669 3.85233054100998
-0.866209348197225 0.29428907342598 0.952275020614257 0.29428907342598 -1.77128706458279 0.752380555645666 0.952275020614257 0.752380555645666 -4.778032975152
-3.94089147153282 -1.24259850471786 -1.77395465818296 -1.24259850471786 -2.88371412453455 -1.22322614495612 -1.77395465818296 -1.22322614495612 -1.93723597617484
-4.60280210762142 -0.195517257668874 -1.31702597179728 -0.195517257668874 -4.19547448747793 1.86012946532193 -1.31702597179728 1.86012946532193 -4.52133658359272
0.303088421897911 -0.629692324805143 1.05558381419617 -0.629692324805143 -3.27910318518861 -0.728979911288942 1.05558381419617 -0.728979911288942 0.593112687679533
-6.23894484380183 2.366414144345 0.493300833715423 2.366414144345 -1.23444363219608 -0.87221306830843 0.493300833715423 -0.87221306830843 -2.09474122142926
0.537476425208364 -1.27751934232943 2.09858885621557 -1.27751934232943 3.05200181148468 4.94532328922871 2.09858885621557 4.94532328922871 -3.70291547216415
-1.82896770927591 -1.57882947844847 -0.0511035095238858 -1.57882947844847 -1.81820907569194 0.0511035095238858 -0.0511035095238858 0.0511035095238858 -1.47393280100471
-1.05962924839853 1.73738733567969 2.22294536835873 1.73738733567969 -1.13549769100463 0.93318184405503 2.22294536835873 0.93318184405503 -4.19046697994359
-3.18742308057776 -1.60583614203241 -0.625090578777718 -1.60583614203241 0.606230087176666 0.959190715710636 -0.625090578777718 0.959190715710636 0.113162949606311
-1.60936627380851 -1.53512862032146 0.856384359868447 -1.53512862032146 -4.57887241329043 0.310207337785165 0.856384359868447 0.310207337785165 -0.225364305228539
-5.5437007819806 0.930487513327719 3.27087062647519 0.930487513327719 4.60885501332114 -2.72608871000697 3.27087062647519 -2.72608871000697 2.27283015550541
4.32598713882069 0.118407031807314 2.82524685196055 0.118407031807314 2.23321169292399 0.393772222056881 2.82524685196055 0.393772222056881 -3.6210522517818
3.82691801977392 -1.86651989997631 1.81958079006566 -1.86651989997631 0.0690281028097748 -1.00228805279793 1.81958079006566 -1.00228805279793 -1.50481264125309
1.608675012567 1.32559176162459 1.15955254712952 1.32559176162459 -1.86726067448556 3.2554573858378 1.15955254712952 3.2554573858378 -1.92442171554124
-3.2701367420927 -2.09057050984026 0.876775793169781 -2.09057050984026 -3.65454895171068 -2.52237600557553 0.876775793169781 -2.52237600557553 3.34385963160847
-2.91074515147488 -1.77445055950226 -0.683930868154134 -1.77445055950226 -0.476597494737329 0.207333373416804 -0.683930868154134 0.207333373416804 0.27195676253373
-5.56697490314546 0.9304915010279 -0.672909089799146 0.9304915010279 -4.68839923693886 0.802698676852394 -0.672909089799146 0.802698676852394 -0.00199676287774227
0.914408243748104 0.875680365189361 0.176427002323164 0.875680365189361 3.33705220247837 0.094668147588039 0.176427002323164 0.094668147588039 1.98803109934882
0.43761719232297 -0.543784676851028 -2.39783147982882 -0.543784676851028 -1.82297339287202 1.57179666118369 -2.39783147982882 1.57179666118369 -0.986580770858294
-6.21121459981798 2.571191996325 1.16153530268765 2.571191996325 -5.32234016630584 1.19152799829695 1.16153530268765 1.19152799829695 -2.08312904050085
-1.27564377576517 -1.42262012384247 -0.388239410015488 -1.42262012384247 -2.57069952203112 -0.0831941592890331 -0.388239410015488 -0.0831941592890331 -3.61894592907294
3.00852948945989 -0.243613645295304 -1.5844789937906 -0.243613645295304 2.74510985674221 0.235691250326351 -1.5844789937906 0.235691250326351 -2.98674290329527
-5.83276018304012 0.633709658984434 2.23881509281352 0.633709658984434 3.69700513857355 -2.40985091772973 2.23881509281352 -2.40985091772973 1.83753873435625
2.26656598383438 1.22955703249268 2.60490046928539 1.22955703249268 2.30507560006458 0.401600283543471 2.60490046928539 0.401600283543471 -3.2073008946006
1.92568918067188 -0.847411882044609 -2.53408745496032 -0.847411882044609 -1.03210421531074 -0.45901476944083 -2.53408745496032 -0.45901476944083 0.0977782940820703
-0.110726970358248 2.03083329725242 1.11733579179687 2.03083329725242 -0.805287057150897 1.46964887930039 1.11733579179687 1.46964887930039 -3.30167693431868
3.99848615541601 -3.21123346852422 1.84774427885598 -3.21123346852422 0.0649280566508688 1.999243077708 1.84774427885598 1.999243077708 -1.06860759904555
-6.17186189919718 0.383111628475462 1.12718970458965 0.383111628475462 4.14557785263621 -0.777295847369289 1.12718970458965 -0.777295847369289 1.02310735465701
-5.99342481555202 1.3874542486396 0.76923483853148 1.3874542486396 2.13545254254905 1.50071581995712 0.76923483853148 1.50071581995712 -2.73715464017336
0.689677994332646 -0.0350227106497047 0.953695351538112 -0.0350227106497047 -1.62990307254395 -1.44401330063398 0.953695351538112 -1.44401330063398 2.66711411870828
-1.05597706784363 -0.799409749569603 -0.875029590745106 -0.799409749569603 -5.13674778270738 1.498893280443 -0.875029590745106 1.498893280443 -2.68990577895718
-0.554403371306515 0.166321011391955 -0.631623840881351 0.166321011391955 1.68697025840411 -0.667264057608199 -0.631623840881351 -0.667264057608199 -3.43730090210039
-0.358871087953401 -1.47981548620785 -0.056997172792599 -1.47981548620785 -1.86401865095796 0.282874857563269 -0.056997172792599 0.282874857563269 -2.41921333408587
-6.71191728015009 0.100501403783809 -0.0610890885744724 0.100501403783809 3.6022856101334 -2.68791989727678 -0.0610890885744724 -2.68791989727678 -1.98638068655058
-6.1002053538391 2.43960519037428 0.310018254886272 2.43960519037428 -1.56201505346545 -1.05406206661332 0.310018254886272 -1.05406206661332 -1.84818575028354
4.0298112312837 -3.02100613781469 2.18799817859632 -3.02100613781469 0.697779394410197 2.85061814615639 2.18799817859632 2.85061814615639 -2.02842847212267
-1.25684550114988 0.787655594531067 -1.08181092458742 0.787655594531067 2.64982900629279 0.836276310242861 -1.08181092458742 0.836276310242861 4.23486433849728
-1.47619343891003 0.767328272700757 -1.02797628914197 0.767328272700757 2.0827481687592 0.479884665784283 -1.02797628914197 0.479884665784283 4.36768124746812
-0.335220318925777 0.90074467375476 2.03691125087724 0.90074467375476 -2.97859886434813 -0.0230304035903206 2.03691125087724 -0.0230304035903206 -3.9637883512674
-5.62880671888531 0.863956380107978 3.10238881947865 0.863956380107978 4.38523314145716 -2.76640578276999 3.10238881947865 -2.76640578276999 2.17952632254513
-4.40612964248292 1.24342104955024 3.55479780890584 1.24342104955024 5.76436134643415 -1.60518292285145 3.55479780890584 -1.60518292285145 2.86376764373767
-5.1325653159225 1.12295229298855 3.58389029677196 1.12295229298855 5.26723270889212 -2.30889417301127 3.58389029677196 -2.30889417301127 2.57171279477454
-6.10705759463295 1.14268132254099 0.194091803589498 1.14268132254099 -6.11799234413095 -2.39197645268748 0.194091803589498 -2.39197645268748 -1.96278753489098
-3.60564056771437 -0.162294399146933 -0.0595079463538756 -0.162294399146933 -3.37031368895132 -0.554505863752022 -0.0595079463538756 -0.554505863752022 4.42252237675393
1.44647000306547 0.883651787586988 0.728672858687117 0.883651787586988 -1.83527678960374 2.39265714792785 0.728672858687117 2.39265714792785 -1.0848525022991
-0.589953252924161 -0.32300607965531 1.75384292837635 -0.32300607965531 -1.59901356788042 -1.17723703411563 1.75384292837635 -1.17723703411563 -2.43455822021192
-1.38963778505786 -0.338020001770831 1.3252530228158 -0.338020001770831 -1.14551222822337 1.89398508928735 1.3252530228158 1.89398508928735 -4.69740494524385
-5.97434218982707 0.0157790483719434 -0.410255257670528 0.0157790483719434 3.07296967043598 -2.67849346113739 -0.410255257670528 -2.67849346113739 -3.74160684519708
-2.61941712830915 1.02452140762133 -0.122684286206756 1.02452140762133 -1.53893446733036 -2.20616479582324 -0.122684286206756 -2.20616479582324 -2.16096532195759
7.30183097176798 -5.027691696049 1.42184924085493 -5.027691696049 -3.71442748367434 -1.1698500238158 1.42184924085493 -1.1698500238158 -1.69433619911676
0.486696151395995 1.57302347274396 -0.166713598820727 1.57302347274396 0.131757521648639 1.37404272576438 -0.166713598820727 1.37404272576438 -1.62142419498224
0.718617156843236 0.363200007068784 -2.28297147300378 0.363200007068784 -1.94830860934755 2.23108575770824 -2.28297147300378 2.23108575770824 -0.718617156843236
-3.10602763184447 -2.06980842189805 1.21768907158678 -2.06980842189805 -3.2296375375995 -3.16914758371938 1.21768907158678 -3.16914758371938 3.16651758572459
0.38675247557326 0.840098092635955 1.77240207348805 0.840098092635955 -2.80971831591964 0.248443643249048 1.77240207348805 0.248443643249048 -3.65493895790094
3.60492824905662 -0.96444212013807 -2.73171714028296 -0.96444212013807 -5.03855842764024 1.36846517046618 -2.73171714028296 1.36846517046618 -0.708995288317716
0.360996023591459 0.420729178574218 -2.13481101720992 0.420729178574218 -2.09845170548128 1.26478462941756 -2.13481101720992 1.26478462941756 -0.220752964066719
0.396093004829346 -0.616144674178983 -2.2859485180674 -0.616144674178983 -1.73711376627772 1.39538646799358 -2.2859485180674 1.39538646799358 -0.960460815631944
0.32026902061758 -0.676697446788758 0.183379842450389 -0.676697446788758 -0.351262796806378 0.48040353092637 0.183379842450389 0.48040353092637 -0.857494474556747
0.414886900963572 2.59995791270505 -3.99081685688769 2.59995791270505 5.93090703186973 -0.416862552872922 -3.99081685688769 -0.416862552872922 -4.43928984031022