10.407947 0.000000 0.000000 0.000000 6.219667 0.000000 0.000000 0.000000 4.947664