5.169753 0.052170 2.483382 -0.020495 3.068314 4.813362 2.911813 4.689314 4.885472 2.166513 1.660234 2.418152 7.437123 1.568694 4.957562 8.142173 4.638524 2.478432 1.108873 4.698444 2.210892 4.094203 1.546944 4.703432 9.246293 1.487484 2.758062 6.381093 4.603864 0.324562 1.397353 4.640534 3.758222 3.904633 1.502874 1.292622 9.059783 1.718984 1.183832 6.445853 4.718254 3.775652 4.939983 4.818754 0.580195 0.334560 1.605754 3.071482 5.560623 1.610224 4.346452 9.984453 4.662074 1.867332 1.855773 5.866244 1.526932 3.530193 0.302395 3.939582 8.725583 2.796664 3.378452 6.978023 3.333584 0.921450 8.571753 0.346513 3.363082 6.989713 5.820954 0.989340 1.880113 3.478634 1.626842 3.398683 2.664034 4.147422