0.34321921178255 -0.279019570364907 -0.156351530623613 0.327327745578544 0.294177244106024 0.692152697387 1.89667713898195 0.294504031148887 0.625408950706468 1.23183982745946 -0.861711463901879 -0.021989605529443 -0.209670783308064 -0.195221962342064 0.342985241515826 -0.985459109302482 -0.210112498602824 0.605498595228665 -0.200742889306189 0.296255208606748 1.05246305148843 1.79926348987654 -4.55661979537477 3.34949417005625 1.92080847233756 4.16067422699026 -4.87011038511318 -0.990217447463198 -0.344778070823368 -1.67901974205275 -1.37750997263169 0.175098719632562 -0.7777091961732 -0.499858705811361 -0.21049636410636 0.39352924688268 0.0234031973167461 -1.38070508087847 0.921040924229108 2.22905375722824 -0.351992839674497 -3.49510158034378 -5.32487453589087 -0.60996794154345 1.56931776885087 1.72890631668113 -0.902240770522418 0.222836624459833 2.90735850014741 -0.315168233683869 -0.422781700867513 1.57165747151811 0.0440643145295295 -0.0398060556751619 -0.00261095391052422 0.796778030021347 -0.249944265296307 -1.37117606326825 -0.856507810903839 0.105810096358591 -2.19884716735351 1.05919985250896 1.5149435930847 1.12146628245903 -0.299870949113267 1.05283303304207 -2.33375930823975 -3.49048182457181 1.85885700236193 2.98745140754034 2.0585969048434 1.95585130475852 -0.173519034666903 -0.69753324219109 -1.2805629785088 -4.42018633353445 6.38308014332135 -3.26964526022719