13.8033878047551 -1.817129545912 -1.78314582503136 -1.817129545912 17.227747444081 -0.517751982828612 -1.78314582503136 -0.517751982828612 9.97921968448044