0 0 0 0 0 0 0 0 0 0 0 0 0.00546796226638291 -4.37087311461464e-06 0.0350993966612716 -0.00515994426689419 -1.0284407328505e-05 0.0351598175543266 -0.00546796226638291 4.37087311461464e-06 -0.0350993966612716 0.00515994426689419 1.0284407328505e-05 -0.0351598175543266 0.0311542980100571 -3.3681434000854e-05 -0.00521033786280386 -0.0312088053688982 -3.41956543672792e-05 -0.00568779147302971 -0.0311542980100571 3.3681434000854e-05 0.00521033786280386 0.0312088053688982 3.41956543672792e-05 0.00568779147302971 -5.14220366425252e-07 -5.91353421389039e-06 0.00573895639948902 3.18816627183656e-05 1.0284407328505e-06 0.00598989593830454 5.14220366425252e-07 5.91353421389039e-06 -0.00573895639948902 -3.18816627183656e-05 -1.0284407328505e-06 -0.00598989593830454 -0.0227884468686847 -1.4398170259907e-05 -0.0193773660680028 0.022725969094164 -1.59408313591828e-05 -0.0193020327843215 0.0227884468686847 1.4398170259907e-05 0.0193773660680028 -0.022725969094164 1.59408313591828e-05 0.0193020327843215 -0.0126639620741379 -0.0182553372284629 -0.0102296428594807 0.012685816439711 0.0183967478292298 -0.0101411969564556 0.0126901873128256 -0.0182933895355783 0.0102196155623355 -0.0126639620741379 0.018364351946145 0.0101877338996171 0.0126639620741379 0.0182553372284629 0.0102296428594807 -0.012685816439711 -0.0183967478292298 0.0101411969564556 -0.0126901873128256 0.0182933895355783 -0.0102196155623355 0.0126639620741379 -0.018364351946145 -0.0101877338996171