5.90040932051236 0 0 0 6.3499833459493 0 0 0 7.80460508158526