10.442807 0.000000 0.000000 0.000000 6.012284 0.000000 0.000000 0.000000 4.987056
10.493500 0.000000 0.000000 0.000000 6.012284 0.000000 0.000000 0.000000 4.987056
10.493500 0.000000 0.000000 0.000000 6.115180 0.000000 0.000000 0.000000 4.936033
10.493500 0.000000 0.000000 0.000000 6.175636 0.000000 0.000000 0.000000 4.831296
10.544193 0.000000 0.000000 0.000000 6.175636 0.000000 0.000000 0.000000 4.831296
10.544193 0.000000 0.000000 0.000000 6.358222 0.000000 0.000000 0.000000 4.960544
10.544193 0.000000 0.000000 0.000000 6.870480 0.000000 0.000000 0.000000 5.070866
10.594887 0.000000 0.000000 0.000000 6.870480 0.000000 0.000000 0.000000 5.070866
10.594887 0.000000 0.000000 0.000000 6.817411 0.000000 0.000000 0.000000 5.069650
10.594887 0.000000 0.000000 0.000000 7.892132 0.000000 0.000000 0.000000 5.136234
10.645580 0.000000 0.000000 0.000000 7.892132 0.000000 0.000000 0.000000 5.136234
10.645580 0.000000 0.000000 0.000000 7.301902 0.000000 0.000000 0.000000 5.097040
10.645580 0.000000 0.000000 0.000000 7.717532 0.000000 0.000000 0.000000 5.083923
10.696273 0.000000 0.000000 0.000000 7.717532 0.000000 0.000000 0.000000 5.083923
10.696273 0.000000 0.000000 0.000000 7.373273 0.000000 0.000000 0.000000 4.971756
10.696273 0.000000 0.000000 0.000000 7.738362 0.000000 0.000000 0.000000 4.975895
10.746966 0.000000 0.000000 0.000000 7.499757 0.000000 0.000000 0.000000 4.918301
10.746966 0.000000 0.000000 0.000000 7.458878 0.000000 0.000000 0.000000 5.019292
10.797659 0.000000 0.000000 0.000000 7.458878 0.000000 0.000000 0.000000 5.019292
10.797659 0.000000 0.000000 0.000000 7.301484 0.000000 0.000000 0.000000 5.061007
10.797659 0.000000 0.000000 0.000000 7.495985 0.000000 0.000000 0.000000 5.036138
10.848353 0.000000 0.000000 0.000000 7.495985 0.000000 0.000000 0.000000 5.036138
10.848353 0.000000 0.000000 0.000000 7.285160 0.000000 0.000000 0.000000 4.916408
10.848353 0.000000 0.000000 0.000000 7.502198 0.000000 0.000000 0.000000 5.001152
10.899046 0.000000 0.000000 0.000000 7.502198 0.000000 0.000000 0.000000 5.001152
10.899046 0.000000 0.000000 0.000000 7.418743 0.000000 0.000000 0.000000 4.952340
10.899046 0.000000 0.000000 0.000000 7.324591 0.000000 0.000000 0.000000 5.006163
10.949739 0.000000 0.000000 0.000000 7.324591 0.000000 0.000000 0.000000 5.006163
10.949739 0.000000 0.000000 0.000000 7.692196 0.000000 0.000000 0.000000 4.889228
10.949739 0.000000 0.000000 0.000000 7.696942 0.000000 0.000000 0.000000 5.038027
10.189341 0.000000 0.000000 0.000000 6.194788 0.000000 0.000000 0.000000 4.946001
11.000432 0.000000 0.000000 0.000000 7.167362 0.000000 0.000000 0.000000 4.948824
11.051126 0.000000 0.000000 0.000000 7.206786 0.000000 0.000000 0.000000 4.850619
11.101819 0.000000 0.000000 0.000000 7.406006 0.000000 0.000000 0.000000 4.863612
10.240034 0.000000 0.000000 0.000000 6.194788 0.000000 0.000000 0.000000 4.946001
11.203205 0.000000 0.000000 0.000000 6.885440 0.000000 0.000000 0.000000 4.917496
11.203205 0.000000 0.000000 0.000000 5.764203 0.000000 0.000000 0.000000 4.907915
11.253899 0.000000 0.000000 0.000000 5.764203 0.000000 0.000000 0.000000 4.907915
11.253899 0.000000 0.000000 0.000000 5.963223 0.000000 0.000000 0.000000 4.921391
11.253899 0.000000 0.000000 0.000000 5.860866 0.000000 0.000000 0.000000 4.846264
11.304592 0.000000 0.000000 0.000000 5.860866 0.000000 0.000000 0.000000 4.846264
11.304592 0.000000 0.000000 0.000000 5.892227 0.000000 0.000000 0.000000 4.976749
10.240034 0.000000 0.000000 0.000000 6.154716 0.000000 0.000000 0.000000 4.906213
11.304592 0.000000 0.000000 0.000000 5.754507 0.000000 0.000000 0.000000 4.862269
11.355285 0.000000 0.000000 0.000000 5.754507 0.000000 0.000000 0.000000 4.862269
11.355285 0.000000 0.000000 0.000000 5.918868 0.000000 0.000000 0.000000 4.962055
11.355285 0.000000 0.000000 0.000000 5.759573 0.000000 0.000000 0.000000 4.933051
11.405978 0.000000 0.000000 0.000000 5.759573 0.000000 0.000000 0.000000 4.933051
11.405978 0.000000 0.000000 0.000000 5.813817 0.000000 0.000000 0.000000 4.858602
11.405978 0.000000 0.000000 0.000000 5.914706 0.000000 0.000000 0.000000 4.853548
11.456672 0.000000 0.000000 0.000000 5.914706 0.000000 0.000000 0.000000 4.853548
11.456672 0.000000 0.000000 0.000000 5.777157 0.000000 0.000000 0.000000 4.860011
11.456672 0.000000 0.000000 0.000000 5.821991 0.000000 0.000000 0.000000 4.990858
10.240034 0.000000 0.000000 0.000000 6.193481 0.000000 0.000000 0.000000 4.988165
11.507365 0.000000 0.000000 0.000000 5.821991 0.000000 0.000000 0.000000 4.990858
11.507365 0.000000 0.000000 0.000000 5.712936 0.000000 0.000000 0.000000 4.876569
11.507365 0.000000 0.000000 0.000000 5.816191 0.000000 0.000000 0.000000 4.874149
11.558058 0.000000 0.000000 0.000000 5.816191 0.000000 0.000000 0.000000 4.874149
11.558058 0.000000 0.000000 0.000000 5.783561 0.000000 0.000000 0.000000 4.888035
11.558058 0.000000 0.000000 0.000000 5.786603 0.000000 0.000000 0.000000 4.905978
11.608751 0.000000 0.000000 0.000000 5.786603 0.000000 0.000000 0.000000 4.905978
11.608751 0.000000 0.000000 0.000000 5.824961 0.000000 0.000000 0.000000 4.908291
11.659445 0.000000 0.000000 0.000000 5.824961 0.000000 0.000000 0.000000 4.908291
10.290727 0.000000 0.000000 0.000000 6.193481 0.000000 0.000000 0.000000 4.988165
11.659445 0.000000 0.000000 0.000000 5.716893 0.000000 0.000000 0.000000 4.926432
11.710138 0.000000 0.000000 0.000000 5.716893 0.000000 0.000000 0.000000 4.926432
11.710138 0.000000 0.000000 0.000000 5.781988 0.000000 0.000000 0.000000 4.846040
11.710138 0.000000 0.000000 0.000000 5.881206 0.000000 0.000000 0.000000 4.819651
11.760831 0.000000 0.000000 0.000000 5.881206 0.000000 0.000000 0.000000 4.819651
11.760831 0.000000 0.000000 0.000000 5.746526 0.000000 0.000000 0.000000 4.880247
11.760831 0.000000 0.000000 0.000000 5.690870 0.000000 0.000000 0.000000 4.882552
11.811524 0.000000 0.000000 0.000000 5.690870 0.000000 0.000000 0.000000 4.882552
10.290727 0.000000 0.000000 0.000000 6.085208 0.000000 0.000000 0.000000 4.898093
11.811524 0.000000 0.000000 0.000000 5.677960 0.000000 0.000000 0.000000 4.839703
11.862217 0.000000 0.000000 0.000000 5.677960 0.000000 0.000000 0.000000 4.839703
11.862217 0.000000 0.000000 0.000000 5.728716 0.000000 0.000000 0.000000 4.943486
11.912911 0.000000 0.000000 0.000000 5.728716 0.000000 0.000000 0.000000 4.943486
11.912911 0.000000 0.000000 0.000000 5.718654 0.000000 0.000000 0.000000 4.792770
11.912911 0.000000 0.000000 0.000000 5.763784 0.000000 0.000000 0.000000 4.833283
11.963604 0.000000 0.000000 0.000000 5.763784 0.000000 0.000000 0.000000 4.833283
11.963604 0.000000 0.000000 0.000000 5.713850 0.000000 0.000000 0.000000 4.860165
10.290727 0.000000 0.000000 0.000000 6.121810 0.000000 0.000000 0.000000 4.901976
12.014297 0.000000 0.000000 0.000000 5.713850 0.000000 0.000000 0.000000 4.860165
12.014297 0.000000 0.000000 0.000000 5.659959 0.000000 0.000000 0.000000 4.838692
12.014297 0.000000 0.000000 0.000000 5.748709 0.000000 0.000000 0.000000 5.026541
12.064990 0.000000 0.000000 0.000000 5.748709 0.000000 0.000000 0.000000 5.026541
12.064990 0.000000 0.000000 0.000000 5.677817 0.000000 0.000000 0.000000 4.879769
12.064990 0.000000 0.000000 0.000000 5.678767 0.000000 0.000000 0.000000 4.803598
12.115684 0.000000 0.000000 0.000000 5.678767 0.000000 0.000000 0.000000 4.803598
12.115684 0.000000 0.000000 0.000000 5.842436 0.000000 0.000000 0.000000 4.832464
10.341420 0.000000 0.000000 0.000000 6.121810 0.000000 0.000000 0.000000 4.901976
12.166377 0.000000 0.000000 0.000000 5.842436 0.000000 0.000000 0.000000 4.832464
12.166377 0.000000 0.000000 0.000000 5.682290 0.000000 0.000000 0.000000 4.952853
12.217070 0.000000 0.000000 0.000000 5.682290 0.000000 0.000000 0.000000 4.952853
12.267763 0.000000 0.000000 0.000000 5.585204 0.000000 0.000000 0.000000 4.817932
12.318457 0.000000 0.000000 0.000000 5.585204 0.000000 0.000000 0.000000 4.817932
12.318457 0.000000 0.000000 0.000000 5.651556 0.000000 0.000000 0.000000 4.943942
10.341420 0.000000 0.000000 0.000000 6.096322 0.000000 0.000000 0.000000 4.942714
10.341420 0.000000 0.000000 0.000000 6.192126 0.000000 0.000000 0.000000 4.947719
10.392114 0.000000 0.000000 0.000000 6.192126 0.000000 0.000000 0.000000 4.947719
10.392114 0.000000 0.000000 0.000000 6.133744 0.000000 0.000000 0.000000 4.898236
10.392114 0.000000 0.000000 0.000000 6.271111 0.000000 0.000000 0.000000 4.913416
10.442807 0.000000 0.000000 0.000000 6.271111 0.000000 0.000000 0.000000 4.913416
10.442807 0.000000 0.000000 0.000000 6.092321 0.000000 0.000000 0.000000 4.912901