5.35526 0.103222 2.47347 2.91057 4.70039 -0.168218 2.31012 1.71972 2.37838 7.79995 1.51834 5.11515 8.4004 4.49901 2.56855 1.27615 4.62119 2.14197 4.17072 1.62603 4.70801 9.43437 1.59754 2.80496 6.5398 4.5927 0.238921 1.41568 4.62656 3.65498 3.90049 1.57994 1.23521 9.29484 1.59217 1.29195 6.81003 4.63879 3.71172 4.99967 4.65919 0.553817 0.536171 1.68397 3.0877 5.71085 1.55954 4.39311 10.1743 4.53475 1.85923 1.85557 5.78274 1.38672 3.51938 0.389044 3.97702 8.61725 2.77669 3.48515 7.36896 3.40198 1.08699 8.85495 0.43599 3.56021 7.19114 5.82968 0.969907 2.09327 3.44204 1.46179 3.34156 2.81675 3.85994
5.38061 0.103222 2.47347 2.92405 4.70039 4.81884 2.32069 1.71972 2.37838 7.83716 1.51834 0.128092 8.44053 4.49901 2.56855 1.2817 4.62119 2.14197 4.19031 1.62603 4.70801 9.47952 1.59754 2.80496 6.5709 4.5927 0.238921 1.4219 4.62656 3.65498 3.91878 1.57994 1.23521 9.33931 1.59217 1.29195 6.84244 4.63879 3.71172 5.02329 4.65919 0.553817 0.538124 1.68397 3.0877 5.73793 1.55954 4.39311 10.2231 4.53475 1.85923 1.86393 5.78274 1.38672 3.53581 0.389044 3.97702 8.65843 2.77669 3.48515 7.40408 3.40198 1.08699 8.89728 0.43599 3.56021 7.2254 5.82968 0.969907 2.10278 3.44204 1.46179 3.35714 2.81675 3.85994
5.38061 0.0517747 2.47346 3.07796 4.69085 4.69172 2.30235 1.38578 2.32425 7.68325 1.52788 0.255206 8.45887 4.83295 2.62268 1.20679 4.568 2.07633 4.24065 1.61594 4.54234 9.55442 1.65073 2.8706 6.52057 4.60279 0.404587 1.42648 4.63512 3.62969 3.98513 1.62219 1.12669 9.33473 1.58361 1.31724 6.77608 4.59654 3.82024 5.03373 4.85026 0.625344 0.591516 1.49681 3.2223 5.72748 1.36847 4.32159 10.1697 4.72192 1.72463 2.01456 5.7134 1.35494 3.49586 0.421057 3.86181 8.89337 2.93874 3.51329 7.13401 3.35234 1.01253 8.74665 0.505325 3.59199 7.26535 5.79767 1.08512 1.86785 3.27999 1.43364 3.62721 2.86639 3.9344
5.38061 0.0215467 2.47346 3.07917 4.56877 4.72329 2.38325 1.62461 2.2903 7.68204 1.64996 0.223639 8.37796 4.59412 2.65663 1.19421 4.72697 2.1039 4.33073 1.55419 4.52088 9.567 1.49176 2.84303 6.43048 4.66454 0.426054 1.46348 4.65283 3.60798 4.03783 1.60456 1.22017 9.29774 1.56589 1.33895 6.72338 4.61417 3.72676 4.87977 4.8745 0.725954 0.568681 1.71095 3.17449 5.88144 1.34423 4.22097 10.1925 4.50778 1.77244 1.88086 5.92357 1.34808 3.38781 0.459516 3.77356 8.73198 2.75308 3.566 6.92777 3.33005 1.15217 8.88035 0.295159 3.59885 7.37341 5.75921 1.17337 2.02924 3.46565 1.38093 3.83344 2.88868 3.79476
5.40595 0.0215467 2.47346 3.0934 4.56877 4.72329 2.39412 1.62461 2.2903 7.71851 1.64996 0.223639 8.41779 4.59412 2.65663 1.19933 4.72697 2.1039 4.351 1.55419 4.52088 9.61257 1.49176 2.84303 6.4609 4.66454 0.426054 1.4699 4.65283 3.60798 4.05669 1.60456 1.22017 9.34201 1.56589 1.33895 6.75522 4.61417 3.72676 4.9027 4.8745 0.725954 0.570781 1.71095 3.17449 5.90921 1.34423 4.22097 10.2411 4.50778 1.77244 1.8893 5.92357 1.34808 3.40353 0.459516 3.77356 8.77351 2.75308 3.566 6.96059 3.33005 1.15217 8.92261 0.295159 3.59885 7.40838 5.75921 1.17337 2.03839 3.46565 1.38093 3.85131 2.88868 3.79476
5.40595 -0.0697461 2.47347 3.10101 4.48862 5.03875 2.31803 1.27705 2.12897 7.7109 1.73012 -0.0918212 8.49388 4.94168 2.81796 1.39521 4.60217 2.34096 4.34856 1.62974 4.60589 9.4167 1.61656 2.60597 6.46335 4.58899 0.341037 1.66543 4.7949 3.90203 4.09155 1.43677 1.12231 9.14648 1.42383 1.0449 6.72036 4.78196 3.82462 4.96949 4.91322 0.686592 0.346733 1.48194 2.72583 5.84242 1.30551 4.26034 10.4652 4.73679 2.2211 2.07113 5.75787 1.53398 3.41019 0.66675 3.69906 8.69941 2.80265 3.33275 6.89211 3.21076 0.78525 8.74077 0.460858 3.41295 7.40171 5.55198 1.24787 2.11249 3.41608 1.61418 3.9198 3.00797 4.16168
5.40595 -0.325874 2.47347 3.30355 4.53937 5.07986 2.16412 1.13484 2.18945 7.50836 1.67936 -0.132929 8.64779 5.08389 2.75748 1.43415 4.79212 2.40746 4.20783 1.40551 4.65992 9.37776 1.42662 2.53947 6.60407 4.81322 0.287013 1.85587 4.84197 3.86267 3.91503 1.10455 1.05751 8.95604 1.37676 1.08426 6.89687 5.11418 3.88942 5.09276 5.16982 0.609898 0.327068 1.58507 2.73593 5.71915 1.04892 4.33703 10.4848 4.63366 2.211 1.95642 6.12003 1.62191 3.34627 0.692875 3.6489 8.70672 2.65448 3.33037 6.8481 3.29183 0.626456 8.85549 0.0987017 3.32502 7.46564 5.52586 1.29803 2.10518 3.56426 1.61656 3.9638 2.9269 4.32048
5.4313 -0.325874 2.47347 3.31879 4.53937 0.00899377 2.17388 1.13484 2.18945 7.54381 1.67936 4.93794 8.68872 5.08389 2.75748 1.4404 4.79212 2.40746 4.22742 1.40551 4.65992 9.4222 1.42662 2.53947 6.63518 4.81322 0.287013 1.86415 4.84197 3.86267 3.93321 1.10455 1.05751 8.99845 1.37676 1.08426 6.92939 5.11418 3.88942 5.1166 5.16982 0.609898 0.327997 1.58507 2.73593 5.746 1.04892 4.33703 10.5346 4.63366 2.211 1.96518 6.12003 1.62191 3.36171 0.692875 3.6489 8.74794 2.65448 3.33037 6.88038 3.29183 0.626456 8.89742 0.0987017 3.32502 7.50089 5.52586 1.29803 2.11466 3.56426 1.61656 3.98222 2.9269 4.32048
5.4313 -0.299339 2.47347 3.11311 4.3794 -0.0836079 2.25263 1.11843 2.23827 7.74949 1.83933 5.03054 8.60997 5.10031 2.70866 1.28243 4.78791 2.31178 4.25969 1.51466 4.5693 9.58017 1.43083 2.63515 6.60291 4.70407 0.37763 1.79233 4.81631 3.8157 3.88274 1.33343 1.07978 9.07028 1.40242 1.13123 6.97986 4.8853 3.86715 5.10258 5.01321 0.528097 0.423645 1.6685 2.79727 5.76002 1.20553 4.41883 10.439 4.55024 2.14966 1.70149 6.1611 1.72638 3.46947 0.466704 3.67579 8.82506 2.55286 3.44036 7.11289 3.34458 0.928023 9.16111 0.0576307 3.22055 7.39313 5.75203 1.27114 2.03754 3.66587 1.50657 3.74971 2.87415 4.01891
5.4313 -0.836697 2.47347 3.25137 4.34831 -0.13321 2.17561 0.513657 2.44114 7.61123 1.87043 5.08014 8.68699 5.70508 2.5058 1.49777 5.23367 2.30412 4.25619 1.22365 4.9404 9.36483 0.985072 2.64281 6.60641 4.99508 0.00652705 2.02745 5.09573 3.78326 3.68504 0.857444 1.25095 8.83515 1.12301 1.16367 7.17756 5.36129 3.69598 5.10469 5.36037 0.147224 0.30782 1.00224 2.5366 5.75791 0.858369 4.79971 10.5548 5.2165 2.41033 1.85831 6.62809 1.74077 3.50986 0.285167 3.83181 8.71598 2.14134 3.53232 7.01924 3.52661 0.319735 9.00429 -0.409352 3.20616 7.35274 5.93357 1.11512 2.14662 4.0774 1.41461 3.84336 2.69213 4.6272
5.45665 -0.836697 2.47347 3.26629 4.34831 5.00302 2.18538 0.513657 2.44114 7.647 1.87043 -0.056092 8.72792 5.70508 2.5058 1.5043 5.23367 2.30412 4.27592 1.22365 4.9404 9.409 0.985072 2.64281 6.63738 4.99508 0.00652705 2.03651 5.09573 3.78326 3.70203 0.857444 1.25095 8.87678 1.12301 1.16367 7.21127 5.36129 3.69598 5.12848 5.36037 0.147224 0.308653 1.00224 2.5366 5.78482 0.858369 4.79971 10.6046 5.2165 2.41033 1.86656 6.62809 1.74077 3.52601 0.285167 3.83181 8.75705 2.14134 3.53232 7.05219 3.52661 0.319735 9.04673 -0.409352 3.20616 7.38729 5.93357 1.11512 2.15625 4.0774 1.41461 3.86111 2.69213 4.6272
5.45665 -0.541586 2.47347 3.26233 4.39795 -0.00195391 2.18324 0.761543 2.26042 7.65096 1.82078 4.94888 8.73005 5.45719 2.68651 1.37583 4.92228 2.40687 4.18355 1.28751 4.77083 9.53746 1.29645 2.54006 6.72974 4.93122 0.176105 1.9927 4.94779 3.83041 3.76059 0.942838 1.1158 8.92059 1.27094 1.11653 7.1527 5.2759 3.83113 5.20026 5.25172 0.308164 0.397941 1.62827 2.46654 5.71303 0.96701 4.63877 10.5154 4.59046 2.48039 1.53924 6.36372 1.84189 3.4362 0.370671 3.73503 8.7848 2.3858 3.43438 6.96276 3.4366 0.455237 9.37405 -0.144984 3.10504 7.47709 5.84806 1.2119 2.12849 3.83294 1.51255 3.95053 2.78213 4.49169
5.45665 -0.749398 2.47346 3.31995 4.49321 -0.00169181 2.17508 0.735462 2.04224 7.59334 1.72552 4.94862 8.73821 5.48327 2.9047 1.44334 5.24993 2.42256 4.2142 1.40881 4.538 9.46995 0.968803 2.52437 6.69909 4.80993 0.408929 2.15157 5.18872 3.81953 3.62237 0.92634 0.769292 8.76172 1.03001 1.1274 7.29092 5.2924 4.17764 5.13389 5.22615 0.387212 0.315991 1.14915 2.49937 5.77941 0.992585 4.55972 10.5973 5.06959 2.44756 1.85876 6.62226 1.75836 3.55506 0.572475 3.47106 8.74378 2.05335 3.29487 6.8863 3.35723 0.816224 9.05454 -0.403525 3.18857 7.35823 5.64626 1.47588 2.16951 4.16539 1.65206 4.027 2.86151 4.13071
5.48199 -0.749398 2.47346 3.33512 4.49321 -0.00169181 2.1848 0.735462 2.04224 7.62886 1.72552 4.94862 8.77919 5.48327 2.9047 1.44958 5.24993 2.42256 4.23364 1.40881 4.538 9.51441 0.968803 2.52437 6.73035 4.80993 0.408929 2.16118 5.18872 3.81953 3.63899 0.92634 0.769292 8.80281 1.03001 1.1274 7.325 5.2924 4.17764 5.1577 5.22615 0.387212 0.316859 1.14915 2.49937 5.80629 0.992585 4.55972 10.6471 5.06959 2.44756 1.86697 6.62226 1.75836 3.57136 0.572475 3.47106 8.78478 2.05335 3.29487 6.91845 3.35723 0.816224 9.09702 -0.403525 3.18857 7.39263 5.64626 1.47588 2.1792 4.16539 1.65206 4.04553 2.86151 4.13071
5.482 -0.577273 2.47347 3.37211 4.28822 0.0311687 2.11271 0.669663 2.21555 7.59187 1.93051 4.91576 8.85128 5.54907 2.73138 1.36782 4.89756 2.42015 4.26439 1.30513 4.62477 9.59616 1.32118 2.52678 6.6996 4.9136 0.322167 2.13266 4.9457 3.7826 3.7042 0.885458 1.10938 8.83132 1.27304 1.16432 7.25979 5.33327 3.83755 5.13484 5.21948 0.583918 0.429807 1.57579 2.37799 5.82915 0.999253 4.36301 10.5342 4.64294 2.56893 1.53239 6.31066 1.71261 3.431 0.424038 3.69974 8.86942 2.32441 3.44324 6.73922 3.42269 0.580801 9.4316 -0.0919199 3.23431 7.53298 5.79469 1.2472 2.09457 3.89433 1.50369 4.22476 2.79604 4.36613
5.48194 -0.759798 2.47308 3.2658 4.49605 -0.083815 2.2834 0.476566 2.50327 7.69821 1.72271 5.0308 8.68055 5.74214 2.44371 1.34464 5.19552 2.23213 4.33472 1.35228 4.7631 9.61933 1.0232 2.71485 6.6293 4.86646 0.183805 1.87919 5.06485 3.64373 3.95693 1.11109 1.26992 9.08486 1.15388 1.30322 7.00706 5.10763 3.67697 5.06108 5.30897 0.41579 0.526006 1.21402 2.63614 5.90293 0.909746 4.53117 10.438 5.00469 2.3109 1.67257 6.59593 1.75049 3.63833 0.298247 3.85192 9.02368 2.07114 3.70648 6.83009 3.41245 0.669047 9.29136 -0.377209 3.19647 7.32569 5.92054 1.09495 1.94028 4.14759 1.24047 4.13397 2.80633 4.27792
5.50738 -0.641048 2.474 3.32351 4.32951 4.77922 2.26216 0.718096 2.4185 7.69115 1.8892 0.167625 8.75254 5.50069 2.5284 1.35033 5.09166 2.30501 4.43978 1.20408 4.65577 9.66436 1.12716 2.6419 6.57485 5.01468 0.291136 1.83339 4.92801 3.72524 3.76108 0.872093 1.09296 9.18119 1.29071 1.22169 7.25331 5.34676 3.85387 5.04427 5.34462 0.339223 0.487507 1.48512 2.65266 5.97036 0.874086 4.60777 10.5272 4.73379 2.29416 1.63114 6.51612 1.75412 3.77242 0.257388 3.57228 8.75035 2.10037 3.50944 6.89507 3.5362 0.696918 9.38364 -0.297318 3.1928 7.24235 5.96136 1.37457 2.26446 4.11846 1.43754 4.11968 2.68258 4.24993
5.50677 -0.619629 2.47275 3.40005 4.37385 5.14869 2.11476 0.820111 2.14224 7.6148 1.84501 -0.201525 8.89961 5.39855 2.80462 1.45289 4.98191 2.46783 4.32561 1.24122 4.68261 9.56198 1.23679 2.47929 6.68914 4.97741 0.264169 2.07989 4.79993 3.83891 3.96961 0.888123 1.1597 8.93509 1.41885 1.10814 7.04508 5.33027 3.78711 5.21738 5.358 0.62988 0.364589 1.46658 2.38258 5.79733 0.860503 4.31699 10.6502 4.75214 2.56455 1.79023 6.41991 1.89119 3.34205 0.474755 3.72369 8.83807 2.26015 3.39768 6.89698 3.45137 0.564204 9.22469 -0.201209 3.05584 7.6726 5.74407 1.2231 2.17668 3.95853 1.54938 4.11773 2.76737 4.38285
5.53211 -0.619629 2.47275 3.41546 4.37385 0.129402 2.12411 0.820111 2.14224 7.65009 1.84501 4.81777 8.94096 5.39855 2.80462 1.45911 4.98191 2.46783 4.34538 1.24122 4.68261 9.60645 1.23679 2.47929 6.72006 4.97741 0.264169 2.08907 4.79993 3.83891 3.9877 0.888123 1.1597 8.97661 1.41885 1.10814 7.07768 5.33027 3.78711 5.24136 5.358 0.62988 0.365677 1.46658 2.38258 5.82404 0.860503 4.31699 10.6998 4.75214 2.56455 1.79804 6.41991 1.89119 3.35718 0.474755 3.72369 8.87913 2.26015 3.39768 6.92888 3.45137 0.564204 9.26757 -0.201209 3.05584 7.70816 5.74407 1.2231 2.18632 3.95853 1.54938 4.13652 2.76737 4.38285
5.53272 -0.540532 2.47232 3.30121 4.40517 0.0418554 2.23491 0.887225 2.23604 7.76409 1.8133 4.90543 8.83024 5.33166 2.71139 1.33543 5.03242 2.44443 4.26986 1.33121 4.6423 9.73006 1.18607 2.50283 6.7955 4.8877 0.304192 1.87621 5.09009 3.92324 3.89954 1.04752 1.02257 9.18925 1.12891 1.02403 7.16527 5.17073 3.92352 5.21411 5.07664 0.460117 0.445369 1.54905 2.60617 5.85103 1.14201 4.48604 10.6201 4.66954 2.34107 1.58232 6.43465 1.80834 3.68158 0.397419 3.56299 8.88922 2.20541 3.33522 7.16536 3.4343 0.742217 9.48377 -0.216523 3.13853 7.3838 5.82175 1.38313 2.1765 4.01295 1.61258 3.90041 2.78475 4.2045
5.52845 -0.628153 2.46592 3.45791 4.42594 0.0135734 2.24927 0.542541 2.32032 7.60897 1.79272 4.93356 8.81506 5.67502 2.62764 1.44924 5.07896 2.3179 4.32525 1.38514 4.85248 9.61519 1.1382 2.62991 6.74141 4.83341 0.0948121 2.14146 5.14021 3.69449 3.65962 0.996119 1.19921 8.92345 1.0787 1.25363 7.40485 5.22072 3.74569 5.2266 5.20355 0.117528 0.356411 1.24494 2.53388 5.84089 1.01715 4.83096 10.708 4.97038 2.41547 1.76155 6.37797 1.47057 3.6376 0.544139 3.7751 8.95491 2.28028 3.62347 6.9929 3.39003 0.569676 9.30078 -0.160122 3.47678 7.43402 5.67311 1.17008 2.11053 3.93766 1.32492 4.07324 2.82773 4.37809
5.55377 -0.628153 2.46592 3.47352 4.42594 0.0135734 2.2592 0.542541 2.32032 7.64406 1.79272 4.93356 8.85581 5.67502 2.62764 1.45542 5.07896 2.3179 4.34493 1.38514 4.85248 9.6597 1.1382 2.62991 6.77243 4.83341 0.0948121 2.15088 5.14021 3.69449 3.67617 0.996119 1.19921 8.96472 1.0787 1.25363 7.43899 5.22072 3.74569 5.25051 5.20355 0.117528 0.357456 1.24494 2.53388 5.86768 1.01715 4.83096 10.7577 4.97038 2.41547 1.7692 6.37797 1.47057 3.65405 0.544139 3.7751 8.99633 2.28028 3.62347 7.0251 3.39003 0.569676 9.34382 -0.160122 3.47678 7.46829 5.67311 1.17008 2.11981 3.93766 1.32492 4.09173 2.82773 4.37809
5.54352 -0.498941 2.42327 3.43766 4.31352 -0.118297 2.20115 0.747402 2.33473 7.67835 1.90494 5.06958 8.91841 5.47083 2.61494 1.39239 4.92681 2.26804 4.304 1.31543 4.68502 9.72452 1.29023 2.68151 6.81352 4.89818 0.265555 1.89271 4.72946 3.73518 3.81143 1.15474 1.2407 9.22044 1.4832 1.21476 7.32206 5.04476 3.71554 5.28396 5.22949 0.297332 0.397544 1.64234 2.78585 5.83311 0.986614 4.64686 10.7185 4.57889 2.16279 1.65882 6.38195 1.67539 3.48592 0.23741 3.80255 8.88434 2.31692 3.4875 7.13914 3.51471 0.902646 9.45958 -0.163844 3.27706 7.62578 5.98007 1.15234 2.22967 3.90131 1.46002 3.96998 2.69854 4.05415
5.64245 -0.783135 2.65376 3.40087 4.40944 -0.0666171 2.21928 0.79106 2.15162 7.70484 1.80656 4.99242 8.9279 5.41888 2.7853 1.41326 5.14636 2.33752 4.29051 1.44835 4.63099 9.6946 1.08544 2.58545 6.79919 4.79673 0.315569 1.95822 5.18697 3.85123 3.97162 1.1939 1.10468 9.14854 1.05521 1.07369 7.08302 5.12797 3.847 5.28392 5.08013 0.57394 0.359739 1.38761 2.71541 5.80785 1.13338 4.39597 10.7479 4.84494 2.20645 1.76089 6.55819 1.65834 3.44023 0.475289 3.74205 8.87269 2.06769 3.33824 7.0056 3.32874 0.791211 9.35334 -0.33118 3.25456 7.67712 5.73549 1.23143 2.22686 4.15907 1.58686 4.10419 2.91364 4.10109
5.66819 6.71906 2.65376 3.41613 4.40944 4.93454 2.22903 0.79106 2.15162 7.74022 1.80656 -0.00872879 8.96899 5.41888 2.7853 1.41924 5.14636 2.33752 4.30993 1.44835 4.63099 9.73928 1.08544 2.58545 6.83033 4.79673 0.315569 1.96675 5.18697 3.85123 3.98955 1.1939 1.10468 9.19067 1.05521 1.07369 7.11549 5.12797 3.847 5.30798 5.08013 0.57394 0.360794 1.38761 2.71541 5.83436 1.13338 4.39597 10.7975 4.84494 2.20645 1.7685 6.55819 1.65834 3.45568 0.475289 3.74205 8.91353 2.06769 3.33824 7.03771 3.32874 0.791211 9.39642 -0.33118 3.25456 7.71237 5.73549 1.23143 2.23664 4.15907 1.58686 4.12274 2.91364 4.10109
5.5865 6.67548 2.33297 3.47936 4.42074 5.21091 2.16653 0.698199 2.31867 7.67431 1.76232 -0.24818 9.01787 5.50681 2.66266 1.42856 5.01649 2.49933 4.29249 1.35682 4.77789 9.73045 1.24135 2.45465 6.89076 4.90231 0.188569 2.1179 5.12597 3.94873 3.71108 0.853005 1.13944 9.11447 1.15026 0.989203 7.42057 5.37064 3.75869 5.34838 5.28981 0.360223 0.353132 1.57416 2.39986 5.82276 0.919154 4.66916 10.831 4.64379 2.62882 1.44564 6.44241 1.79249 3.54539 0.589573 3.69468 8.90075 2.19773 3.26126 6.98579 3.37488 0.407596 9.60099 -0.184758 3.14076 7.65151 5.67924 1.21896 2.24271 4.06357 1.68237 4.20478 2.88486 4.45838
5.70178 6.53949 2.93307 3.46225 4.44781 4.99203 2.20094 0.86066 2.36209 7.61794 1.82562 -0.081285 9.0403 5.36468 2.47648 1.48727 5.01504 2.31347 4.42963 1.41845 4.73351 9.6585 1.19707 2.59525 6.73548 4.85649 0.212739 1.99329 4.85667 3.81996 3.43678 1.3048 0.975183 8.9952 1.32738 1.16836 7.46404 5.01503 3.81718 5.21197 5.26044 0.207649 0.285121 1.358 2.64209 5.8967 0.90909 4.86011 10.869 4.69961 2.15507 1.86586 6.44677 1.70436 3.80015 0.556205 3.5958 8.98914 2.17829 3.52509 6.94152 3.40927 0.717459 9.36277 -0.257171 3.21241 7.45446 5.7748 1.30381 2.31367 3.99661 1.48597 4.37038 2.93776 4.30436
5.72768 6.53949 2.93307 3.47773 4.44781 -0.0141319 2.21055 0.86066 2.36209 7.65275 1.82562 4.92488 9.08172 5.36468 2.47648 1.49357 5.01504 2.31347 4.44961 1.41845 4.73351 9.7028 1.19707 2.59525 6.76619 4.85649 0.212739 2.00194 4.85667 3.81996 3.45214 1.3048 0.975183 9.03642 1.32738 1.16836 7.49813 5.01503 3.81718 5.23559 5.26044 0.207649 0.285825 1.358 2.64209 5.92351 0.90909 4.86011 10.9189 4.69961 2.15507 1.87392 6.44677 1.70436 3.8172 0.556205 3.5958 9.03033 2.17829 3.52509 6.97318 3.40927 0.717459 9.40569 -0.257171 3.21241 7.48851 5.7748 1.30381 2.32381 3.99661 1.48597 4.39009 2.93776 4.30436
5.6023 -0.635014 1.88416 3.50285 4.55555 -0.0524687 2.15224 0.722818 2.32852 7.80544 1.7231 5.31564 9.03279 5.45912 2.47284 1.40252 5.22645 2.3276 4.34208 1.34448 4.56741 9.78347 0.887055 2.89071 6.86726 4.90708 0.161695 2.05542 5.16262 3.75637 3.48748 1.20173 0.918481 9.08612 0.846117 1.45765 7.16845 5.0135 3.59289 5.32972 5.32721 0.397607 0.345386 1.3932 2.79913 5.79459 0.918517 4.94208 10.8799 4.70184 2.25387 1.5442 6.69742 1.72624 3.84742 0.472027 3.35181 9.03835 1.94059 3.70636 7.08101 3.4515 0.664748 9.6475 -0.590624 3.51736 7.68837 5.89078 1.09514 2.31924 4.34837 1.37258 4.30843 2.88841 4.17051
5.6316 6.80233 3.05781 3.50857 4.4499 5.13446 2.074 0.701592 2.14776 7.66042 1.81802 4.89029 9.13873 5.57963 2.63671 1.49826 5.18544 2.51106 4.29636 1.27557 4.60795 9.69184 1.01104 2.47383 6.93012 4.87819 0.194773 2.28206 5.23301 3.89399 3.67068 0.803065 0.853371 8.88783 1.09517 1.12191 7.46318 5.20614 3.80646 5.48206 5.36927 0.36797 0.216333 1.56277 2.3591 5.85978 0.933796 4.48232 10.9683 4.76314 2.76403 1.4932 6.62725 1.9663 3.55465 0.51818 3.45997 8.88004 1.9162 3.54003 7.14362 3.39753 0.613862 9.72743 -0.377864 3.11702 7.94613 5.68471 1.15651 2.23904 4.18205 1.47449 4.11365 2.83804 4.39234
5.22853 0.0119709 2.47346 2.96746 4.74322 4.89286 2.23194 1.59437 2.45264 7.48959 1.47551 0.05407 8.22511 4.62436 2.49429 1.28806 4.6459 2.15796 4.1068 1.64052 4.68559 9.16899 1.57283 2.78897 6.35026 4.57821 0.261343 1.47568 4.66483 3.68022 3.93991 1.54346 1.26544 8.98137 1.5539 1.26671 6.51714 4.67527 3.68149 4.83028 4.69666 0.67612 0.536029 1.50928 3.20972 5.62678 1.52206 4.27081 9.92102 4.70945 1.73721 2.00765 5.84656 1.49544 3.41614 0.403935 3.94083 8.50185 2.77309 3.44312 7.02245 3.4065 0.91708 8.4494 0.372172 3.45149 7.04091 5.81479 1.0061 1.9552 3.44564 1.50381 3.4346 2.81222 4.02985
5.58254 -0.653625 2.50214 3.43708 4.24186 5.05881 2.25554 1.14364 2.29633 7.76764 1.71852 -0.0357359 9.00608 5.41427 2.48248 1.39227 4.99051 2.47817 4.51933 1.4257 4.62245 9.79557 1.22903 2.60575 6.83803 4.84129 0.242192 1.9501 4.63197 3.87363 4.0178 1.24293 1.14357 9.22051 1.08697 1.21747 7.42721 5.15103 3.7574 5.31264 5.11545 0.263589 0.302039 1.57283 2.61157 6.05385 0.961165 4.49861 10.8708 4.82588 2.4065 1.96484 6.33151 1.92066 3.66782 0.56699 3.6639 8.93906 2.33543 3.42829 7.09926 3.37846 0.726928 9.49917 -0.174456 3.28366 7.49106 5.81295 1.2395 2.20562 3.89174 1.51673 4.42437 2.8996 4.1974
5.4523 6.35824 2.60212 3.40316 4.28244 0.250056 2.22421 0.927551 2.12413 7.8931 1.83079 4.7249 9.02671 5.5395 2.76235 1.47909 5.0544 2.43575 4.47154 1.38175 4.4983 9.86942 1.24159 2.51422 6.9053 4.76115 0.487812 2.2259 5.04685 3.79701 3.98467 1.12371 1.08861 9.14738 1.14994 1.15175 7.30377 4.93811 3.81327 5.33818 5.10898 0.682108 0.299409 1.46747 2.29992 6.00254 1.01808 4.28557 11.0014 4.87007 2.46713 1.85571 6.32884 1.64517 3.54156 0.527828 3.59422 9.02727 2.29934 3.3095 7.37273 3.36717 0.912731 9.71666 -0.0776673 3.31656 7.6768 5.81108 1.31979 2.16766 3.85329 1.56876 4.33295 2.92493 4.16992
5.63313 6.97325 2.44334 3.44791 4.3787 0.117289 2.19824 0.786277 2.3998 7.86204 1.84091 4.85516 9.0791 5.3464 2.52485 1.45333 5.05859 2.46784 4.53254 1.40376 4.68402 9.83182 1.11697 2.58567 6.99169 4.87429 0.167646 2.02988 5.04123 3.90564 4.20377 1.07347 1.24353 9.32517 1.33192 1.12753 7.51478 4.92813 3.57389 5.47097 5.16583 0.397717 0.259075 1.27637 2.73774 6.09453 1.1242 4.49216 11.0345 4.73175 2.45869 1.65109 6.44567 1.82566 3.72909 0.414297 3.75333 8.94961 2.20799 3.38411 7.36897 3.48496 0.625244 9.45486 -0.278845 3.20691 7.72003 5.97107 1.02132 2.36831 3.98387 1.64629 4.24954 2.88286 4.18575
5.25387 0.0119709 2.47346 2.98156 4.74322 4.89286 2.24238 1.59437 2.45264 7.52619 1.47551 0.05407 8.26537 4.62436 2.49429 1.29381 4.6459 2.15796 4.12656 1.64052 4.68559 9.21394 1.57283 2.78897 6.38118 4.57821 0.261343 1.48236 4.66483 3.68022 3.95884 1.54346 1.26544 9.02538 1.5539 1.26671 6.5489 4.67527 3.68149 4.85364 4.69666 0.67612 0.53803 1.50928 3.20972 5.6541 1.52206 4.27081 9.96972 4.70945 1.73721 2.01697 5.84656 1.49544 3.43247 0.403935 3.94083 8.54348 2.77309 3.44312 7.05672 3.4065 0.91708 8.49077 0.372172 3.45149 7.07527 5.81479 1.0061 1.96426 3.44564 1.50381 3.45102 2.81222 4.02985
5.59925 6.3848 2.43495 3.10401 4.48031 4.98326 2.24623 1.06132 2.25779 8.09041 1.73846 5.08607 9.20677 5.16938 2.54533 1.26411 4.75693 2.29216 4.42769 1.60994 4.59058 10.1731 1.30346 2.71806 7.22026 4.8675 0.210152 1.52251 4.7794 3.77486 3.69912 1.08089 0.949713 9.58416 1.38656 1.29522 7.66308 5.00675 3.65505 5.78611 5.18157 0.348072 0.539219 1.5092 2.85355 5.97922 1.40881 4.60539 10.9642 4.42351 2.06948 1.78358 6.12619 1.63908 3.70937 0.651095 3.55037 9.35129 2.24269 3.66823 7.63027 3.49594 0.8368 10.0395 -0.20578 3.25887 8.06228 5.87444 1.0607 2.23173 3.66818 1.62616 4.1677 3.1246 4.38653
5.80365 0.196668 2.46717 2.7114 4.63669 -0.346753 2.38348 1.58293 2.27603 8.74834 1.74605 5.29643 9.06121 4.64136 2.69239 0.936105 4.35853 1.80018 4.25959 1.76432 4.51014 10.4568 1.61528 3.04463 7.26245 4.59778 0.469468 1.2324 4.43262 3.34912 3.92599 1.7097 1.10841 10.299 1.65363 1.50936 7.5247 4.62238 3.87096 5.81997 4.60384 0.822309 0.766592 1.51339 3.34468 5.72238 1.84178 4.26188 10.6456 4.4419 1.61518 1.77812 5.5325 1.09339 3.55448 0.46532 3.82234 9.6453 2.8355 3.7866 8.08802 3.42662 1.13356 9.66414 0.435605 3.7541 8.03527 0.0517533 1.17088 1.64579 3.10357 1.19478 3.50428 2.96416 3.79682
5.8293 5.96087 2.46717 2.72306 4.63669 4.56116 2.39366 1.58293 2.27603 8.78732 1.74605 0.388513 9.1016 4.64136 2.69239 0.939735 4.35853 1.80018 4.27826 1.76432 4.51014 10.5035 1.61528 3.04463 7.2947 4.59778 0.469468 1.23737 4.43262 3.34912 3.94315 1.7097 1.10841 10.345 1.65363 1.50936 7.55814 4.62238 3.87096 5.8457 4.60384 0.822309 0.769455 1.51339 3.34468 5.74767 1.84178 4.26188 10.6931 4.4419 1.61518 1.78556 5.5325 1.09339 3.56996 0.46532 3.82234 9.68834 2.8355 3.7866 8.12401 3.42662 1.13356 9.70726 0.435605 3.7541 8.07102 5.81596 1.17088 1.65264 3.10357 1.19478 3.51953 2.96416 3.79682
5.70141 6.36979 2.25418 2.97634 4.47224 4.82949 2.51334 1.58343 2.2842 8.66878 1.67225 0.295856 9.08979 4.50053 2.74911 1.15177 4.54299 2.08797 4.35066 1.6881 4.46947 10.3786 1.61177 2.99281 7.10141 4.66541 0.351517 1.39704 4.58152 3.59691 4.01295 1.64277 1.07133 10.0733 1.58202 1.48404 7.3363 4.50607 3.74171 5.64146 4.62181 0.666617 0.614066 1.62464 3.1287 5.82112 1.64538 4.21021 10.8456 4.46075 1.8943 1.82799 5.75986 1.26644 3.63976 0.525516 3.59664 9.5275 2.7291 3.70044 8.0329 3.49623 1.02441 9.64053 0.297539 3.58612 7.65887 6.10002 0.898173 1.9508 3.43596 1.31414 3.64011 2.93245 3.77076
5.80648 6.23152 2.44867 3.08425 4.43175 4.81596 2.34158 1.69329 2.46253 8.57544 1.6249 0.124579 9.03539 4.62167 2.48765 1.19548 4.62805 2.20031 4.44155 1.57819 4.66508 10.3391 1.69915 2.76327 7.15086 4.57794 0.243219 1.39511 4.50224 3.75819 4.12967 1.49635 1.33031 10.1798 1.71071 1.2335 7.34286 4.71351 3.55962 5.62255 4.43631 0.496937 0.496867 1.61168 3.33038 5.93973 1.62446 4.33615 10.8963 4.60283 2.00347 1.92022 5.86394 1.50535 3.75705 0.301367 4.0012 9.40496 2.90739 3.29146 7.93694 3.36087 0.881241 9.50029 0.542947 3.46746 7.82975 5.77076 1.06508 1.94678 3.40053 1.51223 3.66928 2.76944 3.89202
5.83203 0.370651 2.44867 3.09754 4.43175 4.81596 2.35153 1.69329 2.46253 8.61346 1.6249 0.124579 9.07549 4.62167 2.48765 1.20026 4.62805 2.20031 4.46096 1.57819 4.66508 10.385 1.69915 2.76327 7.18247 4.57794 0.243219 1.40079 4.50224 3.75819 4.14767 1.49635 1.33031 10.2251 1.71071 1.2335 7.37533 4.71351 3.55962 5.64727 4.43631 0.496937 0.498502 1.61168 3.33038 5.96588 1.62446 4.33615 10.9448 4.60283 2.00347 1.92827 5.86394 1.50535 3.77337 0.301367 4.0012 9.44673 2.90739 3.29146 7.97209 3.36087 0.881241 9.54248 0.542947 3.46746 7.86441 5.77076 1.06508 1.95495 3.40053 1.51223 3.68521 2.76944 3.89202
5.63502 0.287183 2.31049 2.75086 4.63347 4.71676 2.33183 1.77998 2.42862 8.93577 1.56518 0.162028 9.17747 4.60551 2.6864 1.14772 4.5672 1.8994 4.27788 1.58851 4.69422 10.4755 1.59009 2.96362 7.28688 4.57421 0.34495 1.34925 4.50604 3.42822 4.02765 1.55787 1.2544 10.3366 1.77538 1.41816 7.43309 4.62365 3.73833 5.83544 4.52838 0.811163 0.639782 1.54562 3.28 5.73232 1.6385 4.26751 10.8998 4.55449 1.70029 2.01673 5.69879 1.25204 3.51602 0.35716 3.98461 9.71312 2.7753 3.6279 8.16274 3.38557 0.909206 9.65828 0.391325 3.52481 8.0171 5.87761 1.00891 1.77143 3.31532 1.22375 3.42306 2.7561 4.01533
5.25387 0.0320064 2.47346 2.97783 4.66968 4.87925 2.28788 1.58675 2.50277 7.52992 1.54905 0.0676812 8.21987 4.63198 2.44416 1.3021 4.70033 2.18585 4.04978 1.6515 4.7421 9.20565 1.5184 2.76107 6.45797 4.56723 0.204832 1.37682 4.69809 3.72664 3.89657 1.52203 1.34936 9.13093 1.52064 1.22029 6.61118 4.6967 3.59757 4.80969 4.66382 0.592417 0.576389 1.46287 3.13231 5.69806 1.55491 4.35451 9.93136 4.75586 1.81462 1.99809 5.85382 1.50248 3.38241 0.477463 3.95269 8.61969 2.78956 3.46348 7.03761 3.37476 0.945474 8.50966 0.364911 3.44445 7.12534 5.74127 0.994241 1.88806 3.42917 1.48345 3.47014 2.84397 4.00146
5.62695 0.235463 2.30996 2.63428 4.52611 4.64411 2.4055 1.75951 2.37656 9.03328 1.70852 0.304135 9.11503 4.53798 2.54465 0.972386 4.52593 2.01515 4.2827 1.63137 4.64848 10.6476 1.66426 2.99697 7.2177 4.5695 0.323794 1.12777 4.54718 3.53653 4.03444 1.58946 1.30497 10.5375 1.73949 1.47634 7.44171 4.54133 3.65274 5.75371 4.43605 0.724989 0.812031 1.61543 3.4093 5.74608 1.58289 4.36828 10.8193 4.58497 1.63046 1.72994 5.71345 1.3032 3.61208 0.380217 3.85531 9.96262 2.94326 3.68781 8.06259 3.36469 0.95833 9.70376 0.488937 3.48 8.01815 5.79375 0.98523 1.77027 3.32041 1.34996 3.57044 2.86288 3.99687
5.65159 0.235463 2.30996 2.64549 4.52611 4.64411 2.41569 1.75951 2.37656 9.07319 1.70852 0.304135 9.1553 4.53798 2.54465 0.976147 4.52593 2.01515 4.3013 1.63137 4.64848 10.6948 1.66426 2.99697 7.24947 4.5695 0.323794 1.13222 4.54718 3.53653 4.05193 1.58946 1.30497 10.5841 1.73949 1.47634 7.47448 4.54133 3.65274 5.77891 4.43605 0.724989 0.815073 1.61543 3.4093 5.77125 1.58289 4.36828 10.8672 4.58497 1.63046 1.7371 5.71345 1.3032 3.62767 0.380217 3.85531 10.0067 2.94326 3.68781 8.09814 3.36469 0.95833 9.74668 0.488937 3.48 8.0535 5.79375 0.98523 1.77761 3.32041 1.34996 3.58585 2.86288 3.99687
5.85475 0.439784 2.44977 2.8502 4.41261 4.75577 2.34346 1.70919 2.31782 8.81643 1.60487 0.154641 9.16143 4.51151 2.4811 1.16931 4.66351 2.16967 4.31571 1.48688 4.71771 10.4287 1.61934 2.91455 7.35305 4.70022 0.224678 1.37899 4.81563 3.68088 4.11785 1.72733 1.26627 10.2976 1.57266 1.36812 7.62133 4.80238 3.66518 5.89406 4.51102 0.650134 0.526345 1.64878 3.3586 5.81375 1.41357 4.38699 11.034 4.619 1.86898 1.87541 5.8683 1.38101 3.58787 0.225252 4.15058 9.4624 2.71933 3.45739 8.27924 3.53479 0.83229 9.74321 0.360394 3.56471 7.99834 5.97918 0.981478 1.92554 3.4627 1.44167 3.58571 2.70568 3.94229
5.88889 0.354578 2.44426 2.80307 4.46278 4.69471 2.43555 1.69806 2.45206 8.75206 1.66333 0.23355 9.2011 4.60716 2.62312 1.15253 4.57778 2.01492 4.42335 1.60263 4.65204 10.4866 1.63812 2.91759 7.22174 4.55914 0.276293 1.39275 4.62428 3.54154 3.98752 1.68494 1.21132 10.2405 1.60927 1.39825 7.49512 4.5916 3.69553 5.74713 4.51456 0.61337 0.601893 1.65483 3.24838 5.8801 1.78965 4.37049 11.0391 4.59141 1.6311 1.89964 5.74166 1.22862 3.7736 0.308371 3.94222 9.65549 2.82807 3.58554 8.02883 3.34477 1.02797 9.65091 0.475568 3.67585 8.01928 5.80066 0.954969 1.94942 3.39163 1.31969 3.62679 2.75604 3.85406
5.91458 0.354578 2.44426 2.81499 4.46278 4.69471 2.44582 1.69806 2.45206 8.79053 1.66333 0.23355 9.24157 4.60716 2.62312 1.15708 4.57778 2.01492 4.4425 1.60263 4.65204 10.5328 1.63812 2.91759 7.25339 4.55914 0.276293 1.39837 4.62428 3.54154 4.00473 1.68494 1.21132 10.2857 1.60927 1.39825 7.52798 4.5916 3.69553 5.77219 4.51456 0.61337 0.603983 1.65483 3.24838 5.90575 1.78965 4.37049 11.0877 4.59141 1.6311 1.90753 5.74166 1.22862 3.78985 0.308371 3.94222 9.698 2.82807 3.58554 8.06408 3.34477 1.02797 9.69339 0.475568 3.67585 8.05448 5.80066 0.954969 1.95753 3.39163 1.31969 3.64238 2.75604 3.85406
5.9515 0.203996 2.5257 2.88851 4.52317 4.58074 2.41139 1.55277 2.32841 8.88543 1.79187 0.353762 9.26235 4.61866 2.64853 1.05166 4.52357 1.89437 4.3825 1.58659 4.51728 10.6415 1.62924 3.04255 7.28052 4.63649 0.377542 1.27961 4.79617 3.4131 4.15886 1.61011 1.19223 10.2975 1.61742 1.5449 7.53761 4.52214 3.71115 5.81883 4.58747 0.761232 0.704864 1.7163 3.37708 5.84416 1.66469 4.21787 10.9225 4.39345 1.6315 1.72009 5.76896 1.09199 3.55978 0.336042 3.78454 9.72093 2.80035 3.6869 8.03273 3.44572 1.14867 9.90812 0.431424 3.76536 8.0419 5.95024 1.04613 1.86033 3.29057 1.29987 3.44999 2.76463 3.88675