-28926.7107038084
-28926.6614768075
-28926.8585675353
-28926.8128793731
-28926.7170131727
-28926.5337696308
-28926.3784684922
-28926.3242265719
-28926.2473363563
-28926.7012652726
-28926.6039277534
-28926.9687984819
-28926.2534989153
-28926.1669365543
-28926.4480144951
-28926.2094661568
-28926.490461375
-28926.6092833592
-28926.491095672
-28926.4915852046
-28925.8089734321
-28925.7054349859
-28926.2726315016
-28925.8347586541
-28925.7132860103
-28926.0592497348
-28925.9498124078
-28925.8289648092
-28925.6955470543
-28926.1245534851
-28927.3957318145
-28925.6008814195
-28925.72828138
-28925.465683905
-28927.364165673
-28924.9642216235
-28926.3260787138
-28926.3420272977
-28925.9311482653
-28926.1623299415
-28926.0921388931
-28926.1026239782
-28926.5820190632
-28926.2912201326
-28926.2890749243
-28926.0936423213
-28926.401996395
-28926.3822232531
-28926.1609077393
-28926.2290825612
-28926.2010679117
-28926.3607707614
-28926.3898783557
-28926.7391433635
-28926.3550967826
-28925.8919183135
-28925.8941511425
-28925.8627337111
-28926.0551975536
-28926.0595184471
-28926.0175948418
-28926.1326183909
-28926.0865914472
-28926.6871782186
-28926.2401654801
-28926.2121355922
-28926.1180328245
-28925.9231558777
-28925.9221494652
-28925.7682536579
-28926.2199331463
-28926.2097637131
-28927.2406444212
-28925.9988754602
-28925.954549091
-28926.1561407154
-28926.1361664815
-28925.6606729627
-28926.0088786319
-28925.9832984475
-28926.0714398843
-28926.959546344
-28926.0538250121
-28926.0132177569
-28925.7807315676
-28925.7719292337
-28925.883973818
-28925.9420461468
-28925.8944375422
-28925.4652094748
-28926.935051077
-28925.4526482983
-28925.9426615319
-28925.8925862166
-28926.101259328
-28926.0785700795
-28925.7911037255
-28927.0582368126
-28926.6850346429
-28926.5992682145
-28927.1732366878
-28926.9952091573
-28926.9481096774
-28926.8661664465