2.51967979548373e-05 -1.82548230080964e-05 1.97974841073722e-05 0.606346287502717 -0.741825099232763 0.467111867326485 -0.260089061795327 -0.306940964931248 0.49482628819534 -0.606392053115329 0.741905317609925 -0.467428112851836 0.259672543298523 0.306916025243476 -0.495054087817666 -2.66409575718225 -1.97636355517522 0.0958766444301714 0.613154050933821 1.0818114075716 -1.45257611883263 2.66313905019052 1.97632704552921 -0.0958465625387355 -0.613172048646646 -1.08196541657134 1.45248381627686 0.216049429843386 0.237787324503464 0.596318219026875 0.441998373071008 0.0584614563487037 -0.387494356662313 -0.216272344372232 -0.237792723817312 -0.596398437404038 -0.441948236585282 -0.0584915382401395 0.387635253042714 0.991106791586931 -0.582330139509192 -0.193201333412196 -0.496954903402157 0.126928355477127 0.0883597711137671 -0.991123246638656 0.582313684457467 0.193320375427024 0.498813295806418 -0.12677974579123 -0.088155368518113 1.47670282420494 2.59176526333069 -0.997510377810024 -0.380641084728781 -0.0803081086162805 -0.477194186050985 0.565218171265476 -0.471915713989629 0.165295365456848 -1.57826263212484 1.31758890177289 -1.86479213383121 -1.47695402085394 -2.59183185486814 0.997591881738103 0.380727730860524 0.0804839719815979 0.477312713845446 -0.565307902719417 0.471879204343613 -0.165347815934223 1.57825877547209 -1.31760484260425 1.86484638407986
-1.13128480613555e-05 -2.03117044737974e-05 2.13401452066479e-05 0.575419017784437 -0.738240469058413 0.428806049570368 -0.306758416701167 -0.30766858674974 0.498233255233091 -0.575635247448519 0.738196760327266 -0.429015594369687 0.306908054827797 0.307964263460434 -0.498573154895298 -2.81977982977024 -1.97603342569998 0.0559410052226703 0.773244992062079 1.06224943639205 -1.47641871745249 2.81960422351511 1.97597634723931 -0.0556905799042212 -0.772956000216148 -1.06243327017304 1.47624311119735 0.261166096352805 0.235831230229583 0.616254028412816 0.406138187377611 0.0623016540451674 -0.373016996465977 -0.261088706187658 -0.235851541934056 -0.616023143468291 -0.406129188521198 -0.0623456198864968 0.373163549270408 1.235158091484 -0.576425089931348 -0.225921689548201 -0.666157572313287 0.11385635954223 0.0281075423389875 -1.23546328127148 0.576379581428919 0.226041245783395 0.665842869449035 -0.113868700831025 -0.0280481498866654 1.44785737564013 2.55736289237611 -0.982489486686377 -0.349277499029589 -0.0747375593867957 -0.462996047513617 0.598827871525214 -0.485973470366963 0.151982457280281 -1.58403192752595 1.31316043597723 -1.86009010280061 -1.44770053842837 -2.55725002100568 0.982376615315946 0.349412224765592 0.0748617436052874 0.463157512708675 -0.598564333587421 0.485805577417325 -0.152168347942744 1.58397484906528 -1.3130982153129 1.86012481267535
-2.21114757562858e-05 1.00272971452924e-05 4.11376293140201e-06 -0.264496958776325 -0.598866180942512 0.589366216782989 0.181135666734394 1.01270404697679 -0.565765558845536 0.264615229460602 0.598826843084481 -0.589267229362452 -0.181347782635545 -1.01264182631245 0.565994129798412 -0.599481959831307 -1.24101840388997 0.394561544268279 0.489766874010082 0.131026177577169 2.633526384839 0.599663479620655 1.24087210819572 -0.394614251855837 -0.490314518700325 -0.13110948127653 -2.63337828937347 0.225428037996433 0.0321765680985105 -0.917261661646066 -0.545690652850477 -0.617017388546774 1.03839038272047 -0.225309510201972 -0.0321889093873047 0.917229779983348 0.54573487580199 0.616998362393216 -1.03860172729107 -1.56363486247133 -0.440701252196701 0.42019800063641 -0.819949313952835 0.025873511957053 -0.548674159416476 1.56398993163434 0.44059635124195 -0.420333497702963 0.819844412998085 -0.0258778828301676 0.548579799979237 0.390616959837431 0.555150250711236 -0.103316127581429 -0.95349851375787 -0.729546288213078 -1.19024325646841 0.340802118950168 -0.581430253867948 -0.334508318775306 0.53931560585772 -1.32330060449296 1.11435898566448 -0.390536741460268 -0.555052034621249 0.103319470013811 0.953606242924637 0.729757632783678 1.19024685601097 -0.340884394208796 0.581514328897859 0.334601135551446 -0.539351858393553 1.3232448115832 -1.11441246458259
-2.57110183212626e-07 1.51695008095449e-05 0.0001018156325522 -0.753305583133573 -0.143202658743936 0.212570729064519 -0.81608340523805 0.0764673966994503 0.185522223570185 0.753208138374136 0.143109584857613 -0.212274281023275 0.815923996924458 -0.076424716409037 -0.186968725460939 0.419552396966363 -1.97087348143309 -1.32907735608938 -0.544744487376255 0.991964768268311 -0.18013576523188 -0.420217026789968 1.9707017318307 1.32908146985231 0.544902867249114 -0.991983280201503 0.180001039495877 0.441575683929807 0.203869349134055 0.240065320726728 0.61530194940438 -0.420968045635132 -0.995821935236867 -0.441764145694102 -0.203824869072359 -0.240141168230776 -0.615304777616395 0.420962646321284 0.996038164900949 1.61506718352118 0.0516518931463173 -0.442445744789798 0.196725028473125 -0.623052278767141 -0.508103972276807 -1.6150286169937 -0.0516133266188354 0.442676629734323 -0.195524838137889 0.623131725813754 0.508360825349836 -0.0368400326016211 0.156599127730047 0.539048211267179 1.51726889758168 0.511371842705439 0.639572379369102 0.343353166188003 -1.12541780886482 -0.473675376083537 0.148917703896386 0.566755690161088 -0.558811242610001 0.0367793545983829 -0.156543849040656 -0.538899858691465 -1.51734268820426 -0.511314250024399 -0.639475963050397 -0.343518745145992 1.12544660520534 0.473847382796106 -0.148901505954844 -0.566829223673486 0.558944682795088
1.59408313591828e-05 1.05415175117177e-05 0.000108243387132515 -0.731501868266593 -0.135890188023186 0.209379991690851 -0.821686607460803 0.0656299453668549 0.176798217943597 0.731453017331782 0.135980433697494 -0.209341682273552 0.821422041082277 -0.0656273742650228 -0.178250633368565 0.231099888638104 -1.97718090844766 -1.36094539196803 -0.42222197199866 0.960377239599541 -0.196155786527493 -0.23141407728199 1.97711483113057 1.3610469504904 0.422689655421923 -0.960425576313985 0.195973238297412 0.470212101915663 0.199706735267842 0.24578370831156 0.584308602369013 -0.421719321590479 -0.985109439453313 -0.470297205386306 -0.199651713688635 -0.245825103051057 -0.58440193336552 0.421733205540372 0.985358322110663 1.78187872772843 0.0203674973835546 -0.482125045144636 -0.0402431429866234 -0.65285340588295 -0.564069145856699 -1.78215897782813 -0.0203374154921187 0.482337675266153 0.0410345281305519 0.652924368293517 0.564276119554185 -0.0561047844093767 0.13698213497129 0.546168106460703 1.55358725362156 0.525721162030536 0.64561215468295 0.364268051151618 -1.12435054449431 -0.474906933861125 0.142023808553906 0.565447256438719 -0.562330309687632 0.0559823999621675 -0.13710374808795 -0.545945191931858 -1.55362170638611 -0.525705735419543 -0.645426006910304 -0.364291191068107 1.12438216904684 0.475039602715663 -0.142032550300136 -0.565531074358446 0.562548596233179
3.59954256497676e-06 1.2341288794206e-05 -6.5305986536007e-05 0.479059006209826 0.204638622802227 0.634060451261389 -0.0362214255008115 0.350495429967467 0.594098586815201 -0.479370366641696 -0.205450576760812 -0.634084619618612 0.0366104332080122 -0.350493887306368 -0.593240353023637 0.683148184550527 0.792019177640265 1.84248988231898 0.118846868198387 -1.62417274065965 -1.68371071734547 -0.682234672069573 -0.792109423314572 -1.84250299493832 -0.119003448299964 1.62425964390158 1.68381021898637 0.240389536667759 -0.721839410471279 -1.68203821560367 -0.666120805557088 -0.503214507922652 1.45616229166808 -0.240408305711134 0.72195793826574 1.68220276612093 0.666167599610432 0.503243818483538 -1.45620317218721 0.346324588575392 0.213980207088891 0.0619324438220741 2.9707227905798 0.457108995648598 0.466814647954691 -0.346359041339942 -0.213892275406232 -0.0619972355882437 -2.97213201149398 -0.456991239184686 -0.466933175749152 0.791518069893183 0.993113022346539 -0.363779027583147 0.68388789054763 0.279494195763117 0.636811273111581 -0.0622409760419293 1.02935913042494 -0.250228886269123 0.34333928223811 -1.60377541849485 0.772550537457221 -0.791260702599787 -0.99272092931714 0.363482836652086 -0.683840325163736 -0.27947362694846 -0.636860638266758 0.0624770031901184 -1.02953447956989 0.249989516688552 -0.34330251548191 1.60398676306545 -0.772761367807456
2.69965692373257e-05 -2.23685859394984e-05 1.54266109927576e-06 -0.445735212473821 -0.94965137408646 0.915797933373037 -0.106480382606226 0.0890560254899068 -0.333143063702447 0.445880993947702 0.949726964480324 -0.915753967531707 0.105987245274825 -0.0885762578880321 0.332936090004961 1.34272990681797 -0.0560525910421846 -2.70138727526559 1.73196361386972 2.64751549279742 0.450755031690864 -1.34430907756326 0.0557551145602076 2.70129651537092 -1.73146661988557 -2.64742833244531 -0.450752717699215 0.532883994624656 0.216501943765841 1.22703443813522 -0.604442386596028 -0.0592057903291042 0.426220549567982 -0.532993266452522 -0.216519427258299 -1.22716607854902 0.604430816637783 0.0591294286046901 -0.426178640608119 -0.0965055359383095 0.013858753095527 -0.288175263989108 2.09626071847204 -0.455625212781277 -0.428260718871775 0.0962659092475553 -0.0138965482924592 0.288271166087446 -2.09419483814992 0.455748368559036 0.428416013422435 -0.254059056668442 -1.23011513235047 0.610460564654486 -1.12264487553888 -1.77862191303768 -0.764195484943544 -0.755496419004728 -1.14246215713036 0.0773806520702215 -0.138031915849347 -0.128009246687353 -0.462811185291887 0.253923559601889 1.23001614492993 -0.610381888938423 1.12254794499981 1.77849361505625 0.764109353032168 0.755419800170131 1.14242693303526 -0.0773168887447848 0.138038343603927 0.127957310430344 0.462843581174972
1.13128480613555e-05 -3.21387729015782e-05 1.0284407328505e-06 -0.422762674713956 -0.942598841760938 0.889367520759145 -0.131857414799496 0.0848561306471286 -0.302096237748973 0.422969391301259 0.942690372986161 -0.889250792735967 0.131447581167455 -0.0844591525242483 0.30171108669452 1.0798478571024 -0.0921140940090378 -2.70831382360134 1.83043090050594 2.55808202955855 0.382552698940967 -1.07999980922068 0.0918960645736735 2.7083665311889 -1.83037382204526 -2.55807457336324 -0.382629831995931 0.553233494295386 0.201919168394387 1.22719024690625 -0.607147699943791 -0.0654072879481927 0.41487350585226 -0.553192099555889 -0.201947193404357 -1.22720515929687 0.607115046950523 0.0653262982404808 -0.414820541154518 0.0797321818058842 -0.0403151338379229 -0.325109141807602 1.8027882133782 -0.494440880030704 -0.469956020173183 -0.079692072617303 0.0402079188915233 0.325138195258305 -1.80261414978416 0.494419539885498 0.469976846098023 -0.269241927207514 -1.22078794623407 0.613240182845197 -1.05111065192473 -1.71988200636055 -0.722740324553256 -0.714468832849123 -1.15622475101736 0.0644071293354956 -0.138136302583731 -0.148056384782624 -0.465577690863255 0.269243726978796 1.22079591664975 -0.613195445673318 1.05116901593632 1.71988380613184 0.72281822893877 0.71450302850349 1.15619312646483 -0.0643883602921211 0.138104935141379 0.148070525842701 0.465640168637776
2.82821201533888e-06 -3.85665274818939e-05 -2.18543655730732e-05 0.524658268533135 -0.146879848584243 1.18164883437416 0.320860653140196 0.010162279991479 -0.127349501957229 -0.524510430177787 0.147380699221141 -1.18141409277689 -0.320912075176839 -0.0101172857094168 0.127318648735243 3.38310952674002 0.271494212412456 0.725966543132208 -1.07439840676921 -1.21592522133897 2.00050851537054 -3.38079090710781 -0.271590371620978 -0.72575622700234 1.07438657970078 1.21590233853266 -2.00045966443573 -0.916874453710148 -0.0277334470224131 -0.907811319751903 -0.105690797233581 0.200978402234012 -1.87533030891054 0.916943102129066 0.0277054220124429 0.907739328900603 0.105690283013214 -0.201049878864945 1.87522540795579 -1.05100549385979 -0.410795481236324 0.0703296624057985 4.09745777491322 0.319524194407857 -0.226615115712326 1.05109831063593 0.410638644024564 -0.070372599806395 -4.1004047718332 -0.319977222550678 0.226448765423787 0.434679474595678 0.469497078496148 -0.665535879890279 0.0984814276962985 0.197929332571293 0.377564247166275 -0.956853030318246 -0.351608974170961 0.45253140594668 -0.461376253359377 -0.222053209731584 -0.232102104132267 -0.434450646532619 -0.469249224279531 0.665478801429606 -0.0984719146195196 -0.198003380304059 -0.37757658845507 0.957028122353013 0.35175295587356 -0.452587713076804 0.461343086145743 0.222057066384332 0.232173323653016
-7.71330549637878e-07 1.20841786109934e-05 2.31399164891363e-06 -0.190364636760811 1.41724609433702 0.332020263532357 -0.197559093907467 -0.4315087918163 -0.153807939581091 0.190543071227961 -1.41754922724303 -0.332134677563887 0.197463191809129 0.431233683920262 0.153514319751862 0.00759812013429952 -0.157538865449689 0.552750898481496 -2.0866782219437 -1.94536069506308 -0.11682469660742 -0.00705664608845373 0.157466617488206 -0.552774552618351 2.08656663612419 1.94578235576355 0.117041954712235 0.454170740474844 -0.147513368075679 -0.471328217220989 0.979091004284672 0.474174684059336 -1.56081462087167 -0.454076123927421 0.147573017638184 0.471508965679787 -0.979091261394855 -0.474135346201304 1.56083133303357 -0.45904117867544 -0.794677954044867 -0.303866955580758 1.00093637100133 0.917599504426807 0.36407933227714 0.459046835099471 0.794737346497189 0.303848957867933 -1.0018190302603 -0.917541397525402 -0.363987801051916 0.801590104210355 0.0129755796161916 -0.150817233929961 0.486521372167389 1.03702692741889 1.271799377914 0.506510660471438 -1.13557700353411 -0.721487940850827 -0.95690779478727 1.10746946119512 0.451232228190907 -0.801496773213849 -0.012743923341117 0.150768382995151 -0.486452466638288 -1.03705083866593 -1.27177238134476 -0.506454610451498 1.13551966796325 0.721464543824155 0.956960245264645 -1.10761935643193 -0.451245597920434
-5.14220366425252e-07 -2.69965692373257e-05 -2.3397026672349e-05 -0.211362568313603 1.40932221560059 0.327460414433081 -0.212985447790041 -0.422007799216043 -0.149157844807507 0.212056765808277 -1.40946928262539 -0.327418505473218 0.212357841832819 0.422395264262145 0.149173785638866 -0.211778572590041 -0.17780840385344 0.573963259927087 -1.92252751102252 -2.00204603426615 -0.125937195720842 0.210414603068098 0.177641796454718 -0.573941405561514 1.92245552017122 2.00240855962448 0.126088890728937 0.448916950991077 -0.161667283661534 -0.472308064129212 0.975931377243172 0.466712575211956 -1.56124476620818 -0.448978914545231 0.161633602227533 0.472199563631896 -0.976025993790594 -0.466724659390567 1.56115452053387 -0.208718961409811 -0.843477466818623 -0.3184039653396 0.766812866608649 0.882501907536818 0.372715406221068 0.208638743032649 0.843398276882193 0.318307291910712 -0.764896881523348 -0.882595752753691 -0.372817736073987 0.775847461336557 0.0146177423563706 -0.138902490929705 0.509052965963044 1.05724684355728 1.26586938864839 0.511059710943019 -1.1578046930932 -0.70570600358487 -0.961709327458766 1.08121259795489 0.443760092046381 -0.775984758174392 -0.0147444976766945 0.138957769619096 -0.509058108166709 -1.05727589700798 -1.26587247397058 -0.511197007780854 1.15794507525324 0.705810390319255 0.961679502677513 -1.08138768998966 -0.44372718194293
-1.54266109927576e-05 3.47098747337045e-05 3.85665274818939e-06 0.387935814846889 0.0662130712623811 0.41044863959917 -0.404331988340542 0.445459333247233 0.242934670371381 -0.388016804554601 -0.0662423818232673 -0.410347852407351 0.404557731081403 -0.446236834441268 -0.242958067398053 -0.267366051310794 -0.617686389243493 -0.140310683403161 1.26412155362291 -0.623927481830797 -0.303211324613566 0.26881589563393 0.618250746095645 0.140444380698431 -1.26417297565955 0.624052951600204 0.302933902725879 0.343221011553832 -0.181898512647986 0.305881928086595 -0.576155895569524 -0.15527166785412 0.529391409895896 -0.343231553071344 0.182062548944876 -0.306104071284891 0.576153581577875 0.155261640556975 -0.529151526094959 -0.707942605068637 -0.161667026551351 0.221476768700822 0.797571986267108 -0.184886904307466 0.0580940458968928 0.708034650514227 0.161729761436055 -0.221476254480455 -0.799581045238731 0.184737266180837 -0.0579824600773785 0.323419156573345 -0.395434176230103 -0.696232264664035 -0.20111107108855 0.573631587790743 0.201612435945814 -0.106902814637245 -1.4493067057429 -0.225881837469804 0.268216057576495 -0.159848229115305 0.51285408291166 -0.323375190732016 0.395453716604027 0.696269288530417 0.201157865141894 -0.573620274942681 -0.201556128815691 0.107175865651817 1.44919126327064 0.225723457596945 -0.26817800526938 0.159947473646025 -0.512856139793125
-3.93378580315318e-05 2.64823488709005e-05 -8.48463604601665e-06 0.48269351575972 -0.628067470000886 0.361010465130314 0.292406783384422 -0.383203701924861 0.414088291352728 -0.482391925514811 0.628264930621594 -0.360785236609819 -0.292399070078925 0.382642430394908 -0.414180593908501 2.03354845946428 1.52494955008479 0.498880144454054 2.4865141245104 -0.373131410497506 0.166603799179217 -2.03355617276977 -1.52466672888325 -0.498837978384007 -2.48631743522025 0.373057619874924 -0.166267241949391 -0.544589449935777 0.407142202643056 0.642268436750269 -0.751302694806347 0.468581509133728 1.68385187083605 0.544583022181197 -0.407100807903559 -0.642302632404637 0.751350260190241 -0.468494348781619 -1.68391537705131 0.392275577629335 -0.357628180670152 0.129246460888972 1.95567055629972 0.441012612628571 -0.409446681215191 -0.392520603633937 0.357656719900488 -0.129296854484881 -1.9557965402895 -0.440965047244677 0.409436139697679 -0.336277493945992 -0.545516846366625 0.0856721983686455 -1.15311423202086 -1.57787079620562 -2.27817928571431 -1.12644367849584 1.48873943743204 2.42750862301402 0.470933038869391 -1.89505168840368 -0.941684557949434 0.336190590704066 0.545404489216561 -0.0856068923821095 1.15304789759359 1.57781243219404 2.27798902417874 1.12651618356751 -1.48878263194282 -2.42765928958139 -0.470981632694018 1.89518898524152 0.941615138199966
-3.59954256497676e-06 -4.62798329782727e-06 1.72263822752459e-05 0.496838175378979 -0.604538545804549 0.339805302769852 0.284604260654468 -0.382720334780421 0.420496762669303 -0.496327040334752 0.604524661854656 -0.340052128545736 -0.284790408427114 0.382878457543097 -0.420576466826099 1.77363397548335 1.44780903892569 0.511184409381877 2.55691783464897 -0.446167414691801 0.17146755251505 -1.77493392456967 -1.44759872279582 -0.510987720091719 -2.55696977090598 0.446154816292824 -0.171081630130048 -0.549476857408466 0.387058297791585 0.637846141599012 -0.738583968263185 0.474107064081151 1.66412740602071 0.549224118098368 -0.38696111014233 -0.637869024405318 0.738578054728971 -0.474083924164662 -1.66402996126128 0.536612349391423 -0.400373005739434 0.127127358758933 1.64148782594811 0.387442677515488 -0.409578064518812 -0.536641659952309 0.400484848669131 -0.127089306451818 -1.64006729218586 -0.387385084834448 0.409558267034705 -0.352801194090518 -0.534670910397984 0.093318655217389 -1.11939500282307 -1.54307787488274 -2.25068855070485 -1.08082667556989 1.43695667520246 2.40049148496204 0.466280115883792 -1.9049959389598 -0.945378717061833 0.352663640142499 0.53467862370348 -0.0932353515180281 1.11927981746099 1.54297940168257 2.25046640750656 1.08084930126602 -1.43744441322002 -2.40056476136426 -0.466151817902369 1.90494760224535 0.945224708062088
1.2341288794206e-05 -3.3681434000854e-05 0.000176891806050287 -0.184968922455911 0.915129704006867 1.1205692250298 0.362355408498699 -0.274974970072789 -0.0843781628165363 0.184316376810918 -0.914955897523015 -1.12160949283108 -0.362456709910885 0.275319754828477 0.0819171041428251 0.0884127358115089 1.47411372465999 -0.327795171891624 1.45002738558644 -1.89856509905728 1.98309932775503 -0.087593068547427 -1.47417851642616 0.327709554200614 -1.45015799755952 1.89847099673023 -1.98304019241289 -0.517966718904843 0.0481919614108249 -0.317644718968573 1.17273508143236 0.989811213373722 -1.29865016567745 0.518266509378469 -0.0482642093723077 0.318334802700316 -1.17266848989491 -0.989858007427067 1.29910499359155 0.727982801188962 0.46063217648916 -0.750538049121472 -0.332923491605983 0.221765246326386 -0.090024816660252 -0.727976887654748 -0.4606545450751 0.750899803149253 0.332074770891198 -0.221823096117609 0.0904163954692849 0.0931294221225445 -0.203918714289231 0.516619461544809 -0.780237103494546 -0.216618157568653 -1.24802439927233 -0.528947637719671 0.581320210709533 0.56146179148874 0.828257058192802 -1.00226331665689 0.503857283380684 -0.0930450899824507 0.203840038573168 -0.51617620358895 0.780499870101789 0.216708917463327 1.24837972554553 0.528999059756313 -0.581332037777961 -0.561139118208808 -0.82812644621973 1.00213630422639 -0.503525868354523
-6.22206643374555e-05 9.92445307200736e-05 5.73355708564156e-05 0.749631221505282 -0.579386485021591 -0.239858089919059 -0.0880674368354543 0.666037501857727 -0.585936881159299 -0.749794486471622 0.579706330089508 0.240396478642706 0.0878692048841974 -0.666074782834293 0.586704869276555 -2.72775495299478 -1.41788295626084 -0.155688186350925 2.41087565104163 -0.535940006262322 0.453091906146083 2.72817841346653 1.41750551851188 0.155378368580153 -2.41071778538914 0.536646287935607 -0.453199121092483 1.30096441443654 -0.562305627110043 1.4070506471319 -0.692172494871107 -0.212180950026769 0.0715604488528373 -1.30086491279564 0.562333137899647 -1.40719822837707 0.692112331088235 0.211871646476364 -0.0715064557143626 0.328433833586724 -0.779427977747976 -0.556229856370546 -1.02003040164744 0.0649941118837701 0.441595738524097 -0.328190350243222 0.77949714038726 0.556118784771398 1.019213048375 -0.065053247225909 -0.441730721370284 0.680485037272811 1.45033848890813 -1.07595906558131 -1.10047940664412 -0.204052925804868 -0.520305136021162 -0.22903477964654 -0.157949984632646 -0.459350739336028 0.76782536651014 -0.286748816692645 -0.198401386867672 -0.680288347982653 -1.45014822737255 1.07581431254816 1.10049020527181 0.203745679135929 0.520061138457293 0.229233525818163 0.158160300762514 0.459211899837094 -0.76785416285066 0.286216341503211 0.198321939821059
0.000377437748956135 -3.90807478483191e-05 -0.000265851929441855 -0.126988262149815 0.0276365164833419 0.523620314723505 -0.260117086805297 -0.437150046346168 -0.634533533998501 0.126362713074059 -0.0277822979572235 -0.522782649746599 0.25978515755877 0.437889495233087 0.635882591129817 -1.3348479370414 -0.4652339345483 -1.78823474856763 -1.13395772360023 -0.298187648743774 0.0270284509000441 1.33594348353207 0.464789133931342 1.78754106529332 1.13464626467088 0.298192533837255 -0.026408044027952 1.04621810224837 -0.1274112084012 1.93281706055469 0.398083953778292 0.424055938935515 -0.178557108706955 -1.04600418657594 0.127564446070395 -1.93239977072733 -0.397396955368748 -0.423743550062912 0.177339177769077 -0.0369894136180676 -0.551462005133051 -0.371654569605133 -1.10060821884591 -0.388727714211184 0.464007518974375 0.0369099665714549 0.551779021988952 0.371686708378035 1.10019298590002 0.388005234596357 -0.46423994658 -0.191577682605209 0.183097931652673 0.195172340076704 -0.262331833923491 0.516523045226104 0.658528598957002 0.512569461938843 -0.0463040013354946 -0.063775152505159 -0.0870909323596128 -0.0915255687996641 0.0547922369240763 0.191317229989614 -0.183139840612537 -0.195117832717863 0.261489283853103 -0.516482421817156 -0.658756655689512 -0.513037916692657 0.046442326614063 0.0633576055676217 0.0870528800524973 0.0912139512576104 -0.0550467760054568
0.000615264668427814 -0.000148352575713685 0.0012014758861526 0.43652835392316 -0.398581976203175 -0.304315355740281 1.43385078418926 -0.763140047641456 0.590833544598584 -0.436170456548128 0.396607627106285 0.302878881146672 -1.42848052379249 0.763143904294204 -0.593021809367906 -0.366176580041605 1.27932422164609 -0.593282261983501 -1.13562071226525 0.27388508000615 0.00369647310404792 0.360931018083701 -1.27977673556854 0.592533814240169 1.13399860411936 -0.271888619433504 0.000103358293651476 0.541798518897004 0.277461225544455 1.48219289794708 -0.302302183005726 0.363591851369768 -0.788377211895058 -0.541966411846642 -0.277217227980586 -1.48155603602326 0.302315552735253 -0.362171317607519 0.786410318993481 -0.813624917666171 -0.328281624358262 -0.51143997690399 -0.645466373209068 0.119030959089568 0.258852361814075 0.813991556787433 0.329148857006239 0.511120903166624 0.645668718923256 -0.117306778200944 -0.25809491521433 -0.457431411818346 -0.918804836965708 0.0502105334592273 0.00547284735986395 0.146973436690933 0.121445995040484 -0.0786582325706051 0.384728365311312 0.602719748368503 0.0995967716710749 -0.563265419423976 -0.566059692895131 0.456849314363553 0.91736759104155 -0.0501010045211787 -0.00590736356949329 -0.147449347640059 -0.122265405194382 0.0790703801942949 -0.384632463212974 -0.602561368495644 -0.0988827766922934 0.561401884816051 0.566874217955549
0.000613464897145325 -0.000110557378781429 0.00119016303809125 0.41039336090978 -0.404554902869387 -0.307267494863928 1.36257135676667 -0.747990344316019 0.612007853737059 -0.410941005600022 0.402324472030018 0.305563882789961 -1.35728362873872 0.748020683317638 -0.614136211833693 -0.512102549846129 1.2172128291365 -0.561608087182987 -1.01136476003244 0.196727599574957 -0.0462394666795083 0.507298703182985 -1.21766662860987 0.560976367462834 1.00986323656248 -0.194723425696815 0.0499883902609316 0.524564937536629 0.269743806285145 1.45753217472424 -0.301735255051742 0.3585908011961 -0.802092240398169 -0.524782452751626 -0.269457899761412 -1.45696216144806 0.301899034238448 -0.357159983026521 0.800185768389647 -0.594261851781541 -0.380244620826267 -0.549444461525382 -0.807701870375502 0.0569668748536887 0.257922651391578 0.594567812899564 0.381165846612718 0.549170382070077 0.808199121469835 -0.0553576222169608 -0.257197600674918 -0.4662983707068 -0.901574083817348 0.0546449127890954 0.0714684034072472 0.187144588826256 0.146834082971631 -0.0623998701351547 0.348952511758008 0.601943275615201 0.0971969052209682 -0.578413065867948 -0.567150097182136 0.465730414312083 0.900159206479129 -0.0545194430196877 -0.071820130137882 -0.187609958257871 -0.147611327055483 0.0627454262213924 -0.348797217207348 -0.601684365660706 -0.0964201753574829 0.576650832672209 0.567953309394492
-0.00086851819889225 -0.000204916816020463 0.000514220366425252 0.148312466525104 -0.370771396125798 -0.234906147790383 0.174370069373337 -0.595610908912857 0.0361129250034958 -0.149382301997452 0.372947576716509 0.234172355327495 -0.174056137839635 0.59123900735751 -0.041860623149214 0.190565182703717 0.414150769127249 0.474698160392357 2.4882203076862 1.0849036717451 -1.13925059383185 -0.191544515391574 -0.412002613546507 -0.472987092123076 -2.49201499688024 -1.08830729635046 1.13450125452754 0.217478705351865 -0.549981050477746 -0.196356846690765 -1.29370182309134 -0.376533749551959 1.19041911983372 -0.217172230013476 0.547921855020396 0.199756871753569 1.29543268884472 0.377543678351618 -1.1867727832154 -0.346615123082422 0.0161076958680878 -0.211328886879602 0.165363756765582 0.0836024613937839 -0.330509998316166 0.352363849668873 -0.0156364129022591 0.215020217779986 -0.166347717436737 -0.0836363999379679 0.330831643155365 0.261475142793027 0.35618270722013 -0.156929257205292 -1.23310300978959 -0.469866802939608 -0.113703893203585 -0.590531954353675 0.220338541919739 0.508764745447663 0.600610159315244 -0.677175000774132 -0.509507793877148 -0.262373999993538 -0.348381984261459 0.157032101278577 1.23379077952968 0.471565787030277 0.115281778397961 0.592052761087378 -0.224970381870315 -0.513389386313109 -0.60232251313544 0.676575162716696 0.51039790933143
0.00292462833404362 -0.0048568113608865 -0.00203734109177685 -1.97096038467501 0.536742961364495 -0.0554609805106123 -1.32179342459896 0.0853011883742697 0.532068698233689 1.96795888039619 -0.532436880016049 0.0619478704330669 1.33436894077008 -0.0909406431328554 -0.53548929211115 0.187642868361323 -0.741132187289005 -1.87394345658229 -1.0477875028067 -0.803654441871369 0.189355222181519 -0.181275277563879 0.755028478471281 1.88751527471335 1.05996064154109 0.782628228198424 -0.209759486321273 0.629020063229689 -0.326846178205386 0.132651113935073 1.67099430479396 0.93563552666899 -1.41254226353514 -0.630165746206085 0.324496448241006 -0.143985559251819 -1.67913724140648 -0.947010081174317 1.44424163513361 0.0125102101845767 0.383614563997635 -0.156492684114197 0.603864917124532 0.301358845743519 -0.120149902606909 -0.0265952202413308 -0.396127602394227 0.171134594827789 -0.598491314295388 -0.295200799745393 0.117611710878234 0.56636051180949 0.58474209013791 0.801883209819217 -0.727147193093521 -1.44283601376199 -0.988368311025533 0.184122001512409 -1.13076595778583 -1.38783937424226 -0.437114822251068 -0.0468871272310209 -0.338902074696226 -0.56531613024528 -0.588992121466415 -0.794229296775161 0.714144359797909 1.44763677510293 0.972489957440871 -0.174879147536098 1.12916698955643 1.37513504586935 0.426791591284898 0.0813352637982149 0.33316491806802