10.056754 0.000000 0.000000 0.000000 6.466798 0.000000 0.000000 0.000000 5.024008
9.689292 0.000000 0.000000 0.000000 7.152591 0.000000 0.000000 0.000000 5.147985
10.063391 0.000000 0.000000 0.000000 6.474682 0.000000 0.000000 0.000000 5.049333
10.335582 0.000000 0.000000 0.000000 6.412617 0.000000 0.000000 0.000000 5.070544
10.078089 0.000000 0.000000 0.000000 6.095691 0.000000 0.000000 0.000000 4.731674
10.015017 0.000000 0.000000 0.000000 6.305001 0.000000 0.000000 0.000000 5.004001
10.151542 0.000000 0.000000 0.000000 6.267245 0.000000 0.000000 0.000000 5.041898
9.220949 0.000000 0.000000 0.000000 9.016845 0.000000 0.000000 0.000000 5.139802
8.851470 0.000000 0.000000 0.000000 8.746207 0.000000 0.000000 0.000000 4.886649
10.269556 0.000000 0.000000 0.000000 6.274762 0.000000 0.000000 0.000000 5.091891
10.173503 0.000000 0.000000 0.000000 6.022338 0.000000 0.000000 0.000000 4.805619
10.279359 0.000000 0.000000 0.000000 6.252920 0.000000 0.000000 0.000000 5.044109
10.059165 0.000000 0.000000 0.000000 6.510583 0.000000 0.000000 0.000000 5.082769
10.335370 0.000000 0.000000 0.000000 6.335224 0.000000 0.000000 0.000000 5.037726
10.154642 0.000000 0.000000 0.000000 6.268545 0.000000 0.000000 0.000000 5.093613
10.301999 0.000000 0.000000 0.000000 6.383691 0.000000 0.000000 0.000000 5.067976
9.990493 0.000000 0.000000 0.000000 6.684254 0.000000 0.000000 0.000000 5.117522
10.403134 0.000000 0.000000 0.000000 6.184669 0.000000 0.000000 0.000000 5.027622
10.204624 0.000000 0.000000 0.000000 6.209753 0.000000 0.000000 0.000000 5.081268
10.399335 0.000000 0.000000 0.000000 6.392243 0.000000 0.000000 0.000000 5.095300
10.472239 0.000000 0.000000 0.000000 6.341636 0.000000 0.000000 0.000000 5.089732
10.151353 0.000000 0.000000 0.000000 6.570568 0.000000 0.000000 0.000000 5.201480
10.001639 0.000000 0.000000 0.000000 6.193277 0.000000 0.000000 0.000000 4.822368
10.281827 0.000000 0.000000 0.000000 6.310397 0.000000 0.000000 0.000000 5.026665
10.277484 0.000000 0.000000 0.000000 6.362985 0.000000 0.000000 0.000000 5.177829
10.493175 0.000000 0.000000 0.000000 6.285678 0.000000 0.000000 0.000000 5.129781
10.069033 0.000000 0.000000 0.000000 6.422806 0.000000 0.000000 0.000000 5.329741
10.563056 0.000000 0.000000 0.000000 6.319948 0.000000 0.000000 0.000000 5.102093
10.156380 0.000000 0.000000 0.000000 6.501307 0.000000 0.000000 0.000000 5.254520
10.005017 0.000000 0.000000 0.000000 6.246245 0.000000 0.000000 0.000000 4.878775
10.171212 0.000000 0.000000 0.000000 5.925598 0.000000 0.000000 0.000000 4.888108
10.299020 0.000000 0.000000 0.000000 6.249206 0.000000 0.000000 0.000000 5.038037
10.270207 0.000000 0.000000 0.000000 6.451713 0.000000 0.000000 0.000000 5.223864
10.542061 0.000000 0.000000 0.000000 6.348777 0.000000 0.000000 0.000000 5.061852
10.386940 0.000000 0.000000 0.000000 6.736806 0.000000 0.000000 0.000000 5.268776
10.480738 0.000000 0.000000 0.000000 6.339277 0.000000 0.000000 0.000000 5.064399
9.964954 0.000000 0.000000 0.000000 6.940335 0.000000 0.000000 0.000000 5.309178
10.485554 0.000000 0.000000 0.000000 5.972858 0.000000 0.000000 0.000000 4.927612
10.399562 0.000000 0.000000 0.000000 6.210812 0.000000 0.000000 0.000000 5.051847
10.514642 0.000000 0.000000 0.000000 6.301130 0.000000 0.000000 0.000000 5.197845
10.397134 0.000000 0.000000 0.000000 6.265300 0.000000 0.000000 0.000000 5.079291
10.472588 0.000000 0.000000 0.000000 6.595281 0.000000 0.000000 0.000000 5.362256
10.406300 0.000000 0.000000 0.000000 6.218700 0.000000 0.000000 0.000000 4.946900
10.406300 0.000000 0.000000 0.000000 6.218700 0.000000 0.000000 0.000000 4.946900
10.406300 0.000000 0.000000 0.000000 6.218700 0.000000 0.000000 0.000000 4.946900
10.406300 0.000000 0.000000 0.000000 6.218700 0.000000 0.000000 0.000000 4.946900
10.406300 0.000000 0.000000 0.000000 6.218700 0.000000 0.000000 0.000000 4.946900
10.406300 0.000000 0.000000 0.000000 6.218700 0.000000 0.000000 0.000000 4.946900
10.406300 0.000000 0.000000 0.000000 6.218700 0.000000 0.000000 0.000000 4.946900
10.406300 0.000000 0.000000 0.000000 6.218700 0.000000 0.000000 0.000000 4.946900
10.406300 0.000000 0.000000 0.000000 6.218700 0.000000 0.000000 0.000000 4.946900