5.00981 6.21549 2.45595 0.281751 2.83752 -0.142057 2.92963 4.9241 0.0447888 2.44316 1.58633 2.47567 7.37779 1.25974 4.98073 8.03249 4.81723 2.51032 1.16786 4.759 2.2545 4.11474 1.57292 4.6758 9.19415 1.44382 2.62049 6.32685 4.65688 0.25079 1.35832 4.65139 3.77395 3.96699 1.53107 1.17532 8.92943 1.42776 1.11232 6.41791 4.82332 3.74134 4.72101 4.70743 0.680612 0.601474 1.22922 3.13452 5.58335 1.43291 4.22033 9.82731 5.09923 1.79055 2.17567 5.91626 1.61702 3.30426 0.310626 4.06353 8.81276 2.83714 3.20844 7.04174 3.49254 0.872542 8.32929 0.405223 3.42578 6.9971 5.9461 0.963002 1.74429 3.46422 1.54979 3.42527 2.77993 4.02877
5.23836 6.72586 2.41539 9.84116 3.23534 -0.0522531 3.0924 5.34706 4.9549 2.50222 1.89999 2.44057 7.31709 0.886595 5.07131 7.87665 4.24216 2.57459 1.38981 4.81598 2.17079 4.17904 1.3042 4.89335 8.97724 1.37804 2.6688 6.31915 4.98486 0.129438 1.71605 4.62628 3.77231 3.9577 1.25264 1.29636 8.71398 1.56902 1.1591 6.39992 5.02092 3.73095 4.83465 4.78059 0.58428 0.768808 1.25643 2.93685 5.63573 1.57908 4.55481 9.56764 4.87035 1.83661 2.17875 5.9494 1.45667 3.77984 -0.114072 4.2255 8.43869 2.71174 3.52588 7.27889 3.95932 0.737692 8.21564 0.219992 3.38502 6.70991 6.43264 0.75618 1.86449 3.44377 1.51774 3.30631 2.36247 4.17632
5.17008 -0.210008 2.57593 10.3659 3.00293 -0.0377788 2.8578 4.76751 5.07648 2.5123 1.70471 2.53299 7.36345 1.37179 -0.0310767 8.12757 4.54026 2.4509 1.26997 4.90877 2.13054 4.00872 1.56788 4.6994 9.17691 1.56183 2.68282 6.29285 4.52154 0.257195 1.35672 4.72127 3.69993 3.94434 1.53179 1.18134 8.98417 1.48271 1.13294 6.50638 4.66505 3.77039 4.75847 4.50537 0.524031 0.534135 1.39064 2.93784 5.55245 1.61822 4.32223 9.81852 4.75551 1.64669 1.99724 6.08566 1.43032 3.45483 0.297143 3.9626 8.71806 2.85207 3.33966 7.06346 3.31288 0.846599 8.21626 0.476988 3.45777 6.8451 5.78392 0.979377 1.94783 3.70089 1.51759 3.26945 2.7939 4.1663
5.26994 6.01459 2.58057 0.0538149 3.17429 5.02517 2.90977 4.76868 0.0225341 2.37316 1.51219 2.54277 7.35928 1.53193 0.0694815 8.21951 4.95274 2.36941 1.18094 4.60904 2.27162 3.99046 1.59982 4.77543 9.17292 1.47761 2.58463 6.42329 4.62824 0.0472145 1.23493 4.59404 3.82531 3.81112 1.50447 1.26981 8.98783 1.61185 1.08186 6.73425 4.70311 3.57264 4.90499 4.63724 0.368453 0.405499 1.35012 3.08687 5.48383 1.55862 4.41069 10.0525 4.88207 1.72492 2.08273 5.77439 1.55363 3.34133 0.290456 4.03823 8.54522 2.74423 3.33826 7.17453 3.4001 0.767378 8.34152 0.34026 3.21188 7.00897 5.76843 0.933486 1.67833 3.21285 1.63754 3.1563 2.81435 4.10021
5.17671 0.0743697 2.33185 10.1553 3.07926 0.113432 2.99035 4.69678 0.263669 2.39457 1.60121 2.46528 7.41424 1.52228 4.78796 7.98977 4.5752 2.45017 1.2006 4.69946 2.24318 4.15315 1.76557 4.56041 9.26656 1.52293 2.72726 6.20845 4.49245 0.358454 1.34889 4.74889 3.84853 4.00257 1.52493 1.27436 9.12768 1.41841 1.17587 6.31921 4.50084 3.59615 4.76946 4.48503 0.943282 0.665789 1.52289 3.22527 5.63434 1.74417 4.00325 9.79273 4.73344 1.73233 1.96671 5.89222 1.51282 3.47458 0.509953 3.80022 8.60503 2.85229 3.44018 7.10163 3.37257 1.05193 8.3727 0.381283 3.29206 6.94265 5.76088 0.970473 1.9805 3.50879 1.67443 3.32165 2.9677 4.04209
5.35573 -0.0603107 2.44454 0.28984 2.87522 0.0411586 2.88497 4.76056 -0.0350566 2.51124 1.5336 2.51289 7.34787 1.54908 -0.0849748 8.06502 4.68464 2.37469 1.30953 4.82724 2.23473 4.03734 1.44059 4.71444 9.08679 1.52765 2.76299 6.34179 4.6045 0.160508 1.35329 4.70778 3.959 3.95147 1.48562 1.30762 8.85647 1.67876 1.21949 6.43242 4.75388 3.64729 4.86139 4.6028 0.717566 0.585694 1.4611 3.11761 5.55922 1.5765 4.15997 9.85424 4.73325 1.67898 2.14884 5.98155 1.49625 3.47501 0.183924 3.92653 8.40888 2.6851 3.52222 6.99722 3.41653 0.931743 8.28617 0.243348 3.34756 7.01274 5.96975 0.796961 2.11346 3.57924 1.70092 3.25371 2.72185 4.15489
5.42275 6.31648 2.50649 10.1649 3.14658 5.06569 2.99733 4.46574 4.83422 2.39353 1.45165 2.40958 7.35965 1.43909 0.0957703 8.04133 4.65309 2.51692 1.28075 4.72907 2.19721 4.11281 1.51599 4.66781 9.16343 1.6063 2.81877 6.31639 4.71921 0.262168 1.54868 4.8149 3.63831 4.10033 1.48204 1.1402 9.0617 1.6563 1.2736 6.38831 4.81515 3.81127 4.76902 4.58905 0.492919 0.50298 1.77711 3.17589 5.64538 1.78803 4.29286 9.89387 4.75056 1.79083 1.91908 6.01859 1.5013 3.65917 0.245818 3.88567 8.38945 2.79883 3.39497 6.99034 3.46986 0.907726 8.27544 0.434923 3.46019 6.94775 5.88785 0.93543 1.94604 3.58767 1.42804 3.18861 2.62355 4.02349
4.8533 7.45058 0.844606 0.660182 3.40099 4.06084 3.42641 4.13997 4.76671 2.2504 -0.0859694 2.45406 6.8783 1.86854 0.802582 8.05755 6.47326 2.3584 2.07529 5.49874 2.13659 3.75457 0.955318 4.86283 8.61285 0.805052 3.25567 6.54925 5.19779 -0.0102785 2.75644 4.37774 3.03933 3.05839 -0.205555 0.5307 7.62078 1.78756 2.54089 7.12604 5.5767 3.74435 4.98768 5.17961 -0.0232116 0.855603 1.19111 2.72121 5.2559 1.05068 0.403413 9.80163 5.55619 2.5419 2.59442 6.90891 2.29059 3.85963 0.466297 3.39195 8.48116 1.02125 4.74941 7.11932 3.68991 0.371473 8.25743 -0.56855 2.60922 6.89721 6.30769 1.02201 1.99447 5.01858 0.664677 2.99681 2.35569 -0.0795269
5.26862 7.40246 1.11371 9.59912 3.24396 3.18373 3.75555 4.42147 1.03881 2.35741 -0.0172503 2.06475 6.61734 1.91073 3.86114 7.99961 6.4769 3.29449 2.42739 5.8902 3.51105 3.43409 1.42302 4.49927 7.9335 0.308621 1.58809 6.98112 4.545 0.721732 3.43654 5.88991 4.74172 3.56301 0.112765 0.394629 7.20115 0.569415 0.293905 6.87735 5.87091 4.7887 5.60617 4.1233 1.20098 9.42482 -0.0779604 1.47528 4.69237 1.7141 3.6618 1.00285 6.25519 3.89743 3.06777 7.09612 2.64791 2.17805 1.4315 3.51316 8.02446 1.52751 2.63969 7.57695 3.41885 4.75146 7.0738 -0.841086 2.36521 7.8505 4.83704 1.96797 2.51943 4.57441 2.75548 3.13311 2.49025 0.683688
5.24777 0.0905698 2.16578 10.3957 2.90816 0.160714 2.95264 4.67069 -0.19476 2.18982 1.68529 2.33673 7.34408 1.32367 0.0997206 8.34296 4.90552 2.7216 1.21038 4.76861 2.2737 4.08395 1.48399 4.66394 9.14487 1.55953 2.88311 6.41498 4.59476 0.181907 1.30273 4.57394 3.82029 3.86573 1.54419 1.09878 8.9152 1.50017 1.31442 6.66864 4.68092 3.70598 4.74641 4.83946 0.428376 0.377712 1.56987 3.14402 5.61473 1.28052 4.28527 9.94028 4.9117 1.80135 1.96965 5.91336 1.60448 3.31933 0.218504 3.9722 8.51835 2.83503 3.53867 6.98877 3.25411 0.653491 8.4273 0.380857 3.44846 7.09738 5.68679 0.982475 1.89013 3.53642 1.46152 3.46287 2.71854 3.98782
5.09917 6.04393 2.43681 10.2598 3.1364 0.095931 2.96263 4.64756 4.78782 2.31102 1.71597 2.33683 7.47508 1.51221 0.275276 8.05136 4.62485 2.58577 1.12712 4.78253 2.09672 4.0987 1.64592 4.64923 9.27623 1.60195 2.74561 6.2716 4.44097 0.354128 1.26962 4.58237 3.58331 3.97591 1.72967 1.35384 9.08736 1.56334 1.21402 6.19667 4.65382 3.59941 4.92457 4.5306 0.919258 0.6186 1.49991 3.14823 5.66621 1.63987 4.28087 9.92492 4.7808 1.57396 2.0131 5.93861 1.46446 3.50103 0.359263 4.0261 8.47721 2.68082 3.58998 7.18398 3.35192 1.04561 8.49965 0.265763 3.32083 7.0877 5.70217 1.079 1.83979 3.55858 1.2989 3.37849 2.76196 3.91196
5.15862 -0.0577649 2.30506 9.93001 3.08592 -0.0315091 2.97775 4.8481 4.92978 2.221 1.59799 2.3224 7.45617 1.45457 0.0247845 8.01058 4.39252 2.48023 1.27074 4.73646 2.34062 4.0602 1.68101 4.6148 9.26179 1.44443 2.79194 6.32571 4.58928 0.143939 1.3239 4.66398 3.87467 3.7667 1.6037 1.0846 9.15728 1.5092 1.21029 6.41318 4.57887 3.59901 4.88406 4.54739 0.690365 0.448278 1.70846 3.2956 5.63617 1.40801 4.41296 9.9946 4.68316 1.98012 1.93642 6.01864 1.82276 3.53592 0.389069 3.85799 8.53133 2.72204 3.37385 7.25494 3.46687 0.7635 8.50485 0.334664 3.43859 6.97794 5.8449 0.82416 2.04866 3.64645 1.59173 3.69806 2.92853 3.83502
5.13398 6.24949 2.49807 0.213266 2.70922 0.164007 3.11605 4.66032 4.91697 2.23708 1.637 2.39738 7.44454 1.37725 0.0725479 8.08631 4.45996 2.50815 1.27874 4.94494 2.12049 4.08593 1.50056 4.84677 8.96246 1.47771 2.71796 6.38813 4.79418 0.0931414 1.58597 4.61894 3.73967 3.83013 1.55537 1.37972 8.98585 1.39561 1.08537 6.61228 4.88706 3.61661 4.92143 4.46054 0.47742 0.417995 1.57533 2.96178 5.59043 1.88304 4.49953 9.89137 4.91808 1.80453 1.98947 6.19825 1.49802 3.86995 0.089255 4.26251 8.42212 2.79166 3.36974 7.3387 3.71615 0.683803 7.98448 0.311901 3.2347 6.72967 6.17482 0.685413 1.96813 3.69735 1.42798 2.99242 2.45647 4.07504
5.251 0.103027 2.44442 0.184888 3.15873 4.94606 2.93991 4.764 0.116192 2.28859 1.46096 2.53601 7.37809 1.5586 4.94428 8.18162 4.61053 2.4764 1.24423 4.67843 2.1605 4.00416 1.44989 4.76158 9.23869 1.32623 2.76832 6.34246 4.70119 0.166249 1.4819 4.53077 3.67521 3.90459 1.39351 1.2415 9.08084 1.52394 1.13653 6.68698 4.75663 3.75067 4.8177 4.82683 0.455709 0.429536 1.58351 3.09755 5.60637 1.75033 4.49826 10.0226 4.73736 1.83816 1.88711 5.90492 1.52445 3.47933 0.228287 3.86274 8.48156 2.51386 3.63303 6.97229 3.47559 0.865062 8.56572 0.15479 3.43086 6.82142 6.07032 0.797919 1.81606 3.51934 1.37555 3.14961 2.46851 3.98893
5.20243 0.0684936 2.25749 10.2081 3.18631 4.96324 2.9963 4.62309 0.0326266 2.44087 1.74878 2.29945 7.39635 1.32089 5.0012 8.08356 4.60117 2.50099 1.28494 4.80691 2.16563 4.07722 1.34999 4.64023 9.22948 1.56991 2.84972 6.3604 4.52796 0.309463 1.51276 4.66011 3.72368 3.89269 1.62646 1.02971 8.87769 1.72798 1.27362 6.25548 4.70664 3.86388 4.87046 4.48348 0.869846 0.568443 1.75421 3.27623 5.49757 1.31081 4.32393 9.92917 4.75043 1.72823 1.91987 6.06921 1.46132 3.4451 0.0217492 4.22595 8.44593 2.9065 3.50248 7.16964 3.33046 1.09377 8.3989 0.353287 3.34488 7.01699 5.73334 1.00485 1.86121 3.62395 1.35384 3.24004 2.6031 4.00352
5.02306 6.11905 2.42376 0.20508 3.06574 -0.00547139 2.92244 4.62627 0.0228765 2.26263 1.57959 2.44017 7.39502 1.43859 -0.0283926 8.15177 4.55094 2.41711 1.17605 4.81449 2.37898 4.07864 1.59186 4.68782 9.21983 1.62939 2.71828 6.29983 4.5995 0.155303 1.50586 4.75256 3.8437 3.80408 1.44024 1.16388 9.04911 1.58266 1.28356 6.46587 4.72125 3.62565 4.81155 4.83044 0.443667 0.465287 1.52601 3.19143 5.56882 1.3076 4.40711 9.91738 4.77216 2.08761 1.99516 5.94327 1.56181 3.23956 0.488681 3.90003 8.72179 2.98076 3.34275 7.00953 3.32394 0.590024 8.40772 0.493187 3.43467 7.19939 5.76077 1.00028 1.92371 3.53937 1.51967 3.50365 2.98566 4.27584
5.13461 6.60588 2.59255 9.9774 3.42589 4.98924 3.08439 4.85419 -0.0591688 2.49149 1.76733 2.42476 7.34308 1.72406 0.116844 8.07947 4.91142 2.42677 1.35749 4.70061 2.24518 3.98871 1.1314 4.74828 9.07183 1.38921 2.76876 6.23757 4.69469 0.102554 1.55124 4.59997 3.74943 3.73308 1.19134 1.15137 9.03951 1.4339 1.07164 6.66117 4.73774 3.59025 4.76776 4.41875 0.345658 0.562382 1.53037 3.0623 5.51236 1.23349 4.55949 9.93302 4.47421 1.84827 2.05295 5.84295 1.56411 3.56473 -0.0757765 3.94964 8.30399 2.50651 3.71444 7.2096 3.65926 0.894422 8.34757 0.123903 3.25678 6.88204 5.97007 0.97958 1.96245 3.28821 1.56114 3.18278 2.19548 4.04722
5.24979 -0.0283031 2.45193 0.136813 2.79323 0.111693 2.84832 4.8793 4.82232 2.1711 1.5758 2.35102 7.57947 1.37277 0.141248 8.22942 4.60829 2.37513 1.10191 4.59388 2.31346 3.96687 1.74794 4.58273 9.33258 1.62871 2.88448 6.30195 4.54151 0.241778 1.27899 4.64062 3.83595 3.71965 1.55905 1.10509 9.1514 1.63519 1.36497 6.59721 4.61391 3.70496 4.88676 4.54718 0.695235 0.347991 1.42225 3.26942 5.51854 1.60052 4.35065 10.1213 4.73574 1.88627 1.92213 5.70621 1.58498 3.35856 0.562297 3.72917 8.67839 2.97477 3.56564 7.01782 3.25197 0.934076 8.28537 0.467096 3.28314 7.08735 5.82426 0.916735 1.73674 3.32014 1.61853 3.22192 2.9752 3.9031
5.30055 6.13721 2.32508 10.0257 3.40975 -0.104367 3.09038 4.65158 4.8756 2.15604 1.49822 2.43971 7.57659 1.41895 5.12848 8.01616 4.75158 2.31628 1.1888 4.67574 2.30332 4.08308 1.56953 4.7349 9.01638 1.5054 2.75909 6.47388 4.66705 0.12346 1.41802 4.661 3.83752 3.94569 1.46821 1.24781 8.97061 1.35931 1.27511 6.61459 4.90601 3.7237 4.84585 4.46891 0.333606 0.461798 1.51009 3.10732 5.62413 1.64552 4.37314 9.88377 4.56109 1.99841 1.77116 6.04956 1.8155 3.6147 0.276288 4.03662 8.37496 2.79581 3.59187 7.10062 3.50979 0.78907 8.30333 0.371875 3.61392 7.04861 5.85994 0.919791 1.90691 3.42531 1.68028 3.42123 2.71304 4.0923
5.31655 0.0246202 2.60329 -0.0700877 3.18698 4.98063 3.04207 4.83462 -0.0760625 2.37256 1.51878 2.52687 7.33417 1.48151 -0.1759 8.21954 4.53124 2.45573 1.15879 4.69077 2.24226 4.03774 1.47844 4.81446 9.21872 1.44521 2.8034 6.41122 4.6839 0.0561734 1.44635 4.71661 3.79245 3.84691 1.50846 1.18296 8.91514 1.47379 1.29662 6.3722 4.67479 3.62133 4.86574 4.61874 0.539614 0.318165 1.35949 3.23925 5.53722 1.82734 4.34791 9.98054 4.55684 2.08789 1.97745 5.83855 1.36426 3.31515 0.320955 4.09729 8.48694 2.72514 3.52216 7.15772 3.52095 0.747078 8.35856 0.32811 3.64241 6.90439 5.97763 0.684703 1.66489 3.46104 1.51753 3.07661 2.69309 4.20231
5.61865 0.167827 2.38813 10.3912 3.23475 -0.0304974 3.02091 4.88055 4.75158 2.20023 1.27021 2.38629 7.50643 1.47888 0.0371668 8.04806 4.44377 2.51433 1.20779 4.60027 2.14985 4.21591 1.64538 4.69438 9.16905 1.60184 2.89463 6.29235 4.66936 0.201962 1.34239 4.73717 3.75149 3.90951 1.43294 1.07323 8.85331 1.90141 1.47663 6.46892 4.60245 3.66375 4.87674 5.00391 0.595827 0.18244 1.66992 3.33055 5.73335 1.38652 4.24517 10.0704 4.63998 1.7558 1.90827 5.76728 1.45103 3.23274 0.538985 3.86248 8.33785 2.75518 3.62349 6.72404 3.36296 0.796514 8.62305 0.478948 3.6911 7.23923 5.80798 0.756916 1.8037 3.22919 1.62063 3.66824 3.06565 4.22339
4.93178 6.13516 2.62025 0.375064 2.78165 4.99922 3.04421 4.7959 5.02171 2.61974 1.85904 2.49397 7.28549 0.927307 4.89819 8.38625 4.51369 2.68289 1.32798 4.72623 2.27201 4.07046 1.36573 4.74086 9.0512 1.6902 2.59505 6.27845 4.94111 0.169791 1.56259 4.60456 3.68638 3.98917 1.40505 1.18382 8.52964 1.98304 1.06165 6.55458 4.93046 3.85854 4.89388 4.29829 0.460244 0.462079 1.5289 2.84917 5.47379 1.74801 4.21294 10.0163 5.11633 1.85488 2.1905 5.74152 1.51903 3.3991 0.0102346 4.24669 8.51735 2.90812 3.47736 7.313 4.24587 1.13797 8.20268 0.481421 3.26843 6.20001 -0.0958394 0.748368 1.6481 3.26739 1.50142 2.92448 2.51257 4.27356
4.74731 4.12646 2.6559 0.29526 2.85345 4.837 2.85949 5.13986 4.67394 2.41381 1.56438 2.09895 7.5129 1.8431 0.326153 8.08038 4.57054 2.81728 1.1758 4.65552 2.09738 4.32582 1.76706 4.5225 9.14186 1.25567 2.83491 6.18834 4.9029 0.429582 1.08797 4.72582 3.66126 4.10497 1.52132 1.18856 8.98656 1.19104 1.23148 6.48226 4.55312 3.73168 4.70275 4.66767 0.708299 0.644756 1.52659 2.94015 5.86153 2.03488 4.14466 9.71838 4.62765 1.73051 1.94242 5.97444 1.46223 3.71759 0.428011 3.91884 8.54072 2.58984 3.37937 6.95945 3.74133 1.30528 8.49649 0.166239 3.68849 6.59234 0.0935829 0.842531 2.06302 3.56914 1.46854 3.35806 2.85928 3.96602
5.30661 6.21045 2.61841 10.344 3.25627 4.96454 3.1113 4.53393 -0.0262511 2.2329 1.7578 2.31489 7.29373 1.21868 4.90651 8.20761 4.91749 2.48353 1.20307 4.7833 2.1694 3.9026 1.45885 4.79916 9.35531 1.67942 2.78231 6.33753 4.50085 0.215979 1.67339 4.48707 3.6015 3.87365 1.4102 1.25136 9.05805 1.48521 1.31731 6.687 4.95361 3.89036 4.90307 4.58986 0.818159 0.553005 1.67017 3.0889 5.50429 1.49786 4.3208 9.97973 4.82866 1.86503 1.66178 6.15503 1.51114 3.49224 0.0521357 4.18362 8.63595 3.0541 3.36695 6.92471 3.23089 0.747599 8.55141 0.443963 3.54363 7.059 5.6891 1.15003 1.77251 3.60002 1.4059 3.27887 2.63018 3.93596
4.75843 5.77526 2.45268 0.196749 2.93773 5.06346 2.87346 4.83338 4.93934 2.35876 1.55641 2.35136 7.57948 1.51042 -0.027171 8.31439 4.57492 2.40256 1.31738 4.62129 2.11192 4.017 1.78309 4.78494 9.14763 1.28263 2.91826 6.36872 4.9214 0.147213 1.28121 4.87729 3.62522 4.07024 1.55502 1.25248 8.50209 1.3174 1.59418 6.38536 4.88599 3.68966 4.79744 4.56839 0.571592 0.426805 1.55205 3.12521 5.53105 1.92143 4.4334 10.2129 4.55927 1.5736 2.12022 5.78173 1.50525 3.39458 0.534975 4.05638 8.42665 2.3445 3.78907 7.34256 3.7634 0.712572 8.6878 0.0450862 3.78276 6.90814 6.27697 0.73512 1.84664 3.33147 1.59947 3.19174 3.05983 4.20932
5.52385 0.585521 2.12957 9.95164 4.73027 4.71374 2.93777 4.52012 0.0394349 2.08742 1.47427 2.23403 7.72714 1.44727 0.101365 8.00391 4.46412 2.57694 1.11252 4.65358 2.20022 4.18137 1.45709 4.38531 9.35078 1.56444 3.02963 6.28058 4.50544 0.256802 1.6238 4.79127 3.64689 3.77856 1.23519 0.799015 8.91221 1.56051 1.56516 6.54643 4.44101 3.89453 4.79392 4.6397 0.513305 0.465516 1.43181 3.35557 5.73141 1.65724 4.37377 10.0427 4.57216 1.87369 1.67014 5.86595 1.35643 3.55372 0.434674 3.39381 8.80578 2.77846 3.83212 6.95989 3.3226 0.965763 8.64089 0.371985 3.87306 7.10556 5.69799 0.914142 1.58926 3.28271 1.37676 3.41687 2.80241 3.97371
5.86668 0.884007 1.90623 0.589554 5.92752 -0.116335 3.13371 4.23175 5.07147 2.19396 1.16702 2.42054 7.32231 1.69444 4.63526 8.12556 4.76933 2.98304 1.38401 4.5009 2.32762 4.02052 1.32705 4.72657 8.81583 1.54548 2.56107 6.38846 4.47319 0.349907 1.47635 4.44364 3.84627 3.7542 1.26953 1.01962 8.60823 1.24603 1.03991 6.78826 4.62207 4.21589 4.80157 4.72437 0.685371 0.359533 1.84594 2.74474 5.59306 0.962773 4.53246 9.95854 4.34106 2.13256 2.11827 5.85255 1.8877 3.03255 0.268397 4.07578 7.97579 2.83952 3.0409 6.66176 2.99426 0.89182 8.2506 0.387306 3.36728 7.09134 5.57092 1.24536 2.13092 3.3544 1.41303 3.7615 2.7126 4.17743
4.97192 -0.20251 2.22872 10.2682 2.99153 0.463274 3.18108 4.85707 4.81823 2.10581 1.67648 2.37482 7.51482 1.5241 -0.0769561 8.13343 4.47008 2.48142 1.08774 4.8036 2.36207 4.11091 1.61912 4.67219 9.21647 1.4123 2.83833 6.5046 4.6632 0.250253 1.40905 4.66805 3.87183 3.71634 1.30618 0.982006 8.77082 1.63751 1.35392 6.5914 4.71888 3.86223 4.97777 4.68491 0.632084 0.242809 1.20356 2.96821 5.64363 1.513 4.25417 10.1895 4.83106 1.90311 1.86876 5.91831 1.41543 3.17097 0.540228 3.83056 8.94499 2.77602 3.47882 7.24768 3.3645 0.832658 8.46032 0.448096 3.72367 7.01768 5.80723 1.10261 1.50374 3.2687 1.5768 3.50547 2.83879 3.95825
5.03465 6.28723 2.51682 0.759062 2.51385 -0.0328968 3.00774 4.82322 5.14686 2.28905 1.69859 2.56656 7.1855 1.92901 4.99567 8.03777 4.82085 2.28773 1.41708 4.51265 2.27889 3.95678 1.56021 4.7491 9.15123 1.1334 2.6522 6.3547 4.84994 0.105606 1.64147 4.7101 3.90634 3.47446 1.28172 0.935397 9.06953 1.46488 1.14062 6.52508 4.89183 3.79724 4.8359 4.98698 0.432769 0.53016 1.51999 3.04983 5.46371 1.64651 4.78051 9.99268 4.35441 2.22696 1.59494 5.72536 1.24393 3.52667 0.236782 3.86045 8.29416 2.16896 3.38469 7.005 3.50858 0.807517 8.92362 6.32114 3.32089 6.93199 6.02961 1.11632 2.50855 3.34888 1.91506 3.15666 2.65722 4.16464
5.08755 6.12717 2.54306 10.083 3.14755 0.0589131 3.05485 4.91558 4.67215 2.48527 1.61384 2.42304 7.45791 1.1901 4.86017 8.0444 4.55951 2.37187 1.1129 4.76179 2.28843 4.30709 1.69971 4.61765 9.01148 1.44944 2.90513 6.13126 4.60256 0.437617 1.11151 4.82242 3.80408 4.31773 1.7475 1.33121 8.87345 1.43654 1.26306 6.39138 4.70605 3.83235 4.65142 4.5575 0.816873 0.529604 1.66404 3.32831 5.69049 1.66313 4.02303 9.79106 4.71012 1.56628 2.00326 6.01719 1.82013 3.57331 0.387925 4.21975 8.07095 2.42142 3.55477 6.96457 3.40123 1.14344 8.52142 0.0420889 3.38383 6.96575 5.77748 1.05394 2.00555 3.49214 1.51053 3.45065 2.93923 3.99206
5.05573 0.23225 2.50275 0.139319 2.93383 0.230385 3.11804 4.60412 4.81213 2.37179 1.66809 2.29107 7.38062 1.19845 0.138194 8.09613 4.48574 2.58946 1.11127 4.87941 1.85553 4.17232 1.69496 4.68026 9.13167 1.53782 2.81867 6.32136 4.49094 0.577633 1.30762 4.91727 3.32325 4.02327 1.62527 1.25478 9.06205 1.71574 1.19619 6.50893 4.79114 3.95752 4.7962 4.47739 0.858288 0.444043 1.72682 3.24123 5.62988 1.5753 4.29034 9.79407 4.64615 1.40412 1.52939 0.31871 1.0184 3.38423 0.519171 3.8959 8.22267 2.63882 3.63784 6.76936 3.37108 1.5154 8.69517 0.127497 3.47474 6.99983 5.74748 1.25299 2.14388 3.73251 1.4225 3.36166 2.93923 3.98402
5.39355 0.307421 2.50727 10.0837 3.25219 0.202858 2.87569 4.60746 -0.0736703 2.31948 1.53309 2.517 7.46503 1.52903 0.0608237 8.10838 4.48582 2.61485 1.18809 4.87661 2.1273 4.18156 1.32777 4.69604 9.11334 1.47357 2.62181 6.39812 4.62653 0.271052 1.28132 4.95652 3.7043 3.82358 1.68123 1.18246 9.01519 1.4247 1.07528 6.65548 4.69816 3.87419 4.76713 4.59054 0.569653 0.332583 1.80894 3.02442 5.67594 1.73343 4.27568 9.97679 5.09974 1.72392 1.98274 6.06118 1.40501 3.71496 0.0918011 3.94184 8.52841 2.70617 3.47531 7.35784 3.4902 0.920044 8.41617 0.182183 3.12427 6.81472 5.98317 0.973594 1.74656 3.44855 1.51149 3.36949 2.51445 3.84974
5.30851 6.21421 2.48761 0.128729 2.83681 4.8649 2.67508 4.60816 -0.11527 2.50153 1.67397 2.69089 7.4034 1.46618 -0.00553314 8.1794 4.58102 2.43848 1.24867 4.68835 2.12262 4.12445 1.72317 4.73922 9.25004 1.52679 2.85178 6.24523 4.58361 0.133512 1.14328 4.52614 3.69029 4.13967 1.72258 1.05053 9.11691 1.55288 1.2423 6.57243 4.80307 3.79461 4.73529 4.66002 0.226487 0.4365 1.55375 3.21396 5.50235 1.38018 4.23114 10.2179 4.97197 1.44281 2.1133 5.92363 1.54576 3.10122 0.554426 3.99342 8.70639 2.87152 3.51358 6.93297 3.42571 0.871929 8.36225 0.417916 3.50591 6.72194 5.85633 1.00359 2.03511 3.46439 1.45156 3.3263 2.99768 4.04013
4.85665 5.59843 2.5794 10.2381 3.04257 0.118409 2.79857 4.71862 4.76435 2.28345 1.67426 2.48772 7.39757 1.61101 0.119216 8.44472 4.83867 2.61243 1.16847 4.68428 2.13308 4.02804 1.58076 4.74559 9.29743 1.43902 2.87773 6.46038 4.70113 0.155138 1.29483 4.19738 3.5297 3.77751 1.68673 1.18558 9.04383 1.45624 1.34444 6.55211 4.77506 3.68886 4.79297 4.78409 0.239058 0.328505 1.77742 3.14869 5.46642 1.44102 4.51898 10.1388 4.65101 1.625 1.83855 5.96967 1.55969 3.27829 0.367744 3.95029 8.64459 2.63535 3.68292 7.27035 3.48519 0.70164 8.84793 0.230816 3.6598 7.04122 5.86177 1.03266 1.78189 3.53421 1.21562 3.3463 2.76324 3.83872
4.69729 3.31754 2.17405 0.236236 2.66175 0.122875 3.13971 5.66699 -0.0731894 2.27237 1.22898 2.63922 7.24811 1.39525 0.059641 8.17494 5.11974 2.13909 1.27084 4.96488 2.14484 4.07 1.62038 4.67327 9.23821 1.297 2.91221 6.30627 5.03881 -0.00645469 1.64184 4.81635 3.66261 3.89826 1.20776 0.964895 8.86225 1.66128 1.44186 6.66483 4.56864 3.89145 4.79268 5.01892 0.460658 0.357145 1.61268 2.88979 5.67949 1.61525 4.40206 10.0262 4.83202 1.93571 1.73459 6.25888 1.48026 3.53261 0.141397 3.94711 8.50344 2.24095 3.94282 7.12627 3.90655 0.994111 8.57175 -0.183296 3.30119 6.79316 6.43157 0.783737 1.99023 3.83295 1.23434 3.27816 2.78434 4.20991
4.88541 5.83399 2.52632 10.306 2.96538 0.192338 3.07079 4.5662 4.84549 2.2067 1.80914 2.29443 7.36974 1.28139 -0.0191834 8.18697 4.62627 2.48247 1.26798 4.90219 2.21641 4.02573 1.54392 4.67815 9.21834 1.53286 2.78388 6.3983 4.7815 0.256645 1.50615 4.61282 3.73151 3.63939 1.36574 1.03929 9.14294 1.26525 1.24979 6.57045 5.10026 3.90717 4.85446 4.18743 0.489115 0.318429 1.69579 3.05083 5.51839 1.39298 4.46699 10.171 4.87848 2.00402 1.79079 6.14551 1.4405 3.37291 0.34079 3.73556 8.59323 2.85467 3.24645 7.43808 3.59602 0.839136 8.81906 0.322365 3.62774 6.77831 6.02414 1.29838 2.01511 3.70744 1.5807 3.24913 2.79639 4.08159
6.1445 2.20649 2.42159 0.836065 2.91256 4.67036 3.10599 5.44116 4.89386 2.33915 1.06335 2.26502 7.39479 1.08197 4.92551 7.73296 4.88781 2.87826 1.18601 4.39327 2.3348 3.88047 1.36921 4.61443 9.07389 1.02229 2.56605 6.38535 5.07146 0.389215 2.0011 4.83622 3.58031 3.63844 1.03476 0.895562 8.21449 1.47185 1.38007 7.57363 4.44882 4.72865 5.06724 5.35839 4.94589 0.530699 0.640908 2.71351 5.4681 1.81083 4.66093 9.6694 4.6634 2.70666 2.09388 4.97901 1.20462 3.92955 0.162432 3.60641 8.92367 2.17738 3.67763 6.31992 3.99692 1.64197 8.12329 -0.0291134 3.50667 6.76612 6.27811 1.15342 1.17143 2.92236 1.81368 3.04575 2.34288 3.92094
5.42522 0.174497 2.35925 0.00414088 6.10887 0.0435767 3.00843 4.37783 0.130699 2.30137 1.53396 2.54806 7.65927 1.30258 0.0733152 8.15397 4.05738 2.41788 0.858754 4.41445 2.16901 3.95597 1.42578 4.55155 9.39031 1.1594 2.84442 6.15079 4.05757 0.131022 1.01404 4.15375 3.69152 4.05364 1.39415 1.1963 9.08683 1.2522 1.31946 6.30648 4.21242 3.60401 4.71017 4.07021 0.824212 0.298341 1.32101 3.33353 5.45928 1.59044 4.15459 9.97077 4.27871 1.5159 1.67678 5.61526 1.44879 3.44352 6.05206 3.94482 8.50427 2.29995 3.42974 6.83166 2.80888 0.847048 8.86731 5.84219 3.55499 7.1985 5.20233 0.733379 1.73686 3.07355 1.43849 2.97878 2.52785 4.0828
5.32313 6.1325 2.33041 0.119961 2.85563 -0.0310292 3.01237 4.91335 4.98085 1.94032 1.55406 2.29925 7.44521 1.42781 -0.0203557 8.14561 4.57902 2.41469 1.05657 4.66154 2.34571 4.18773 1.76195 4.81499 9.1561 1.5427 2.7554 6.37332 4.57757 0.267555 1.36089 4.74618 3.82029 3.93464 1.51183 1.37512 8.9002 1.60692 1.07731 6.59983 4.64263 3.70278 4.91983 4.64702 0.894183 0.301133 1.28378 2.98758 5.70981 1.73592 4.67075 9.9691 4.76403 1.91653 1.89629 5.80822 1.44743 3.54175 0.422257 4.02265 8.82611 2.84394 3.47782 7.38857 3.46984 0.91885 8.27885 0.278622 3.19801 6.87404 5.93515 0.907401 1.72888 3.47321 1.59812 3.60092 3.05064 4.17963
4.9525 6.14443 2.72778 10.3851 2.87879 0.247998 2.95206 4.69615 4.86891 2.32532 1.46807 2.28065 7.53458 1.22374 0.204934 8.25974 4.97806 2.56442 0.936626 4.81866 2.03449 4.24585 1.45009 4.80313 9.05294 1.9072 2.9771 6.49382 4.366 -0.12647 1.31386 4.68628 3.46152 3.87912 1.72029 1.04901 9.14354 1.44316 1.52567 6.49299 4.84902 3.5603 5.09586 4.80266 0.462851 0.0909796 1.8603 3.39439 5.73021 0.988988 4.54688 9.99333 4.79319 1.76012 1.4885 6.38632 1.72395 3.01142 0.303123 4.21914 8.55089 3.22224 3.43637 7.17476 3.11854 0.472118 8.04464 0.655632 3.63056 7.47812 5.47625 0.835267 1.72716 3.72067 1.1603 3.66524 2.59394 3.99181
5.37111 0.0822859 2.63231 0.0423276 2.92242 4.80909 3.0925 4.73059 4.99591 2.18675 1.47433 2.36428 7.25041 1.52501 -0.0153577 8.09568 4.61718 2.68162 1.29877 4.68931 1.98919 4.0515 1.50525 4.80881 9.21003 1.52981 2.64513 6.27255 4.68555 0.368159 1.69557 4.62046 3.56367 3.86879 1.61007 1.23879 8.94473 1.72972 1.15274 6.56097 4.76492 3.77963 4.81801 4.79621 0.762494 0.288904 1.49053 3.20905 5.59038 1.26249 4.44008 10.1126 4.33969 1.60631 1.74516 6.05533 1.25993 3.2968 0.544173 4.05531 8.54059 2.70902 3.45994 7.09842 3.43529 0.87179 8.59373 0.202016 3.10401 6.92831 5.96492 0.986135 2.16169 3.60789 1.24448 3.54899 2.86212 4.29632
5.26468 0.704099 2.71569 0.924993 1.25634 -0.296524 2.99036 4.71218 4.85476 2.13828 1.75586 2.45913 7.82877 2.02581 0.0233088 8.2012 4.77052 2.64491 0.83725 4.41633 2.25951 3.86779 1.59903 4.8542 9.29851 1.37756 2.72031 6.34642 4.97875 0.120568 1.36507 4.66819 3.8115 3.50888 0.896487 0.800654 9.1164 1.4662 1.14636 6.69056 4.94193 3.86705 4.78732 5.26747 0.117174 0.308155 1.17371 2.97906 5.39841 1.58873 4.75223 9.89048 4.21666 2.04978 1.18396 5.57177 1.24846 3.40511 0.605047 3.60603 8.64678 2.4623 3.67398 6.89491 3.44564 0.453842 8.76386 -0.0172901 3.11803 6.81472 5.85526 1.21518 1.57843 3.08934 1.58601 3.34611 2.8866 4.18033
5.09444 -0.0536849 2.57933 -0.0871049 3.39285 -0.126678 3.02163 4.73428 -0.11061 2.34054 1.61976 2.45552 7.4171 1.53795 -0.034921 8.08286 4.55779 2.47904 1.17946 4.60899 2.22825 4.10923 1.58717 4.66279 9.33461 1.34975 2.62846 6.31913 4.66437 0.481063 1.42893 4.80497 3.6594 3.87134 1.64005 1.21077 9.10178 1.41617 1.09407 6.36566 4.93771 3.90025 4.81899 4.65115 0.838175 0.418851 1.40518 3.18189 5.53188 1.66682 4.25295 10.0247 4.54788 1.89894 1.96435 5.8114 1.46257 3.4636 0.379202 3.94875 8.45045 2.67844 3.37087 6.93134 3.40761 1.10106 8.68127 0.161182 3.47259 7.02434 5.89179 1.11966 1.76012 3.37244 1.56312 3.28188 2.76112 4.00002
5.36992 6.24675 2.48702 10.1454 3.1456 0.136987 2.93873 4.72979 4.85011 2.32442 1.54794 2.47343 7.45271 1.5192 0.15461 8.12443 4.6947 2.50232 1.09509 4.66561 2.10395 4.11018 1.58158 4.76038 9.33961 1.53153 2.76174 6.31303 4.46025 0.213557 1.32543 4.47272 3.6902 3.84579 1.69705 1.34076 9.07387 1.55582 1.24774 6.55133 4.53821 3.64442 4.81614 4.84807 0.609964 0.424662 1.65864 3.19857 5.67643 1.37756 4.32834 9.94222 4.62033 1.78736 1.61955 6.04852 1.5785 3.28305 0.373268 4.01959 8.56687 2.7645 3.51508 6.93561 3.3124 0.862849 8.52303 0.293071 3.33191 7.19609 5.65465 0.947764 1.91093 3.55423 1.28788 3.52223 2.8003 3.89596
5.39566 -0.0290014 2.61112 10.6444 2.82416 4.87164 2.86641 4.6637 4.81373 2.2539 1.61266 2.45403 7.44965 1.43182 0.0754143 8.05644 4.72304 2.5363 1.08213 4.83015 2.20774 4.03517 1.50663 4.79263 9.2554 1.64236 2.5831 6.41447 4.52543 0.260938 1.21296 4.88154 3.74609 3.87184 1.41393 1.37578 9.22827 1.42296 1.03987 6.47265 4.72623 3.66079 4.86907 4.5894 0.798807 0.369058 1.66277 2.89876 5.5241 1.5688 4.41017 10.0463 4.69822 1.7383 1.92325 5.91765 1.51671 3.3584 0.189399 4.02211 8.51527 2.93947 3.19458 7.14825 3.40955 1.01087 8.49017 0.542835 3.32292 7.03224 5.87617 0.88239 2.0275 3.60587 1.66415 3.16006 2.66246 4.08374
5.07539 -0.0523941 2.46438 10.1021 3.15398 4.90966 3.02346 5.00898 4.96058 2.05423 1.42985 2.12104 7.54606 1.52255 0.138369 8.19468 4.55559 2.50939 1.12467 4.60167 2.23634 4.14091 1.78339 4.6676 9.34382 1.4009 2.64567 6.38028 4.58956 0.362408 1.26538 4.60476 3.78917 3.83305 1.43849 1.20643 9.10249 1.34692 1.09956 6.66935 4.78623 3.76197 4.85884 4.64658 0.664899 0.43566 1.54267 3.17958 5.64405 1.80592 4.40781 9.99018 4.5294 1.90637 1.60689 5.88046 1.47652 3.41287 0.473639 3.97693 8.53656 2.62975 3.31648 7.18628 3.49852 1.09831 8.74715 0.167481 3.35693 6.90819 5.95573 1.06932 1.78772 3.36841 1.57982 3.44197 2.94245 4.02513
5.41598 6.51321 2.45226 0.285594 3.31613 4.87981 2.90105 4.53121 4.91964 2.24525 1.56866 2.49084 7.51288 1.38285 0.0248116 8.12363 4.59808 2.49571 0.968269 4.96561 2.15012 4.10747 1.43926 4.82636 9.12184 1.54997 2.65364 6.38736 4.55253 0.28604 1.18148 4.95713 3.69326 3.8633 1.52342 1.3473 9.28317 1.44186 1.10057 6.5159 4.62085 3.76759 4.90887 4.58816 0.698338 0.206026 1.75404 3.14132 5.60509 1.65275 4.35763 9.96203 4.67966 1.60806 1.63815 6.20962 1.34161 3.74919 0.13316 3.98127 8.3376 2.69116 3.26281 7.09281 3.42651 1.05743 8.58507 0.215749 3.32699 7.31734 5.62881 1.06411 1.77495 3.64188 1.54408 3.3227 2.60168 4.17558