-30088.7503931585
-30088.9315072746
-30088.1567014761
-30088.0220197531
-30087.9530262771
-30087.7738105621
-30088.1490353529
-30088.0206205445
-30089.0233494577
-30087.8016363648
-30087.5254338851
-30087.9541501066
-30087.108007525
-30087.4966794945
-30087.1280867948
-30087.6536071927
-30086.0331590935
-30087.5413503596
-30086.1990254546
-30087.3527014151
-30086.9409875378
-30085.8510263197
-30086.0676229738
-30086.6421619334
-30085.1969885265
-30086.9075503425
-30084.9718068212
-30086.0322760846
-30084.6193574028
-30086.0711687513
-30085.4172783077
-30086.2911548537
-30085.6578046405
-30086.8726395155
-30084.7718935941
-30086.0555639831
-30083.5798361324
-30085.8246749651
-30086.2444653131
-30083.7998537999
-30086.3234895803
-30082.5916802683
-30087.8347482481
-30088.1849852461
-30087.9810413348
-30087.8084072339
-30086.8772393255
-30086.510162027
-30085.2765009657
-30086.1080174361
-30085.9844733268