0.0135515064265879 0.0224868566237763 0.0373714793503216 0.158050257604099 0.205715143139338 0.17328506440018 -0.22272195331812 -0.0361247520719236 -0.477369792306119 -0.332227494340027 -0.0888721917089098 -0.0899885641244191 -0.162766172584585 0.174335616608787 -0.0454200565256096 -0.0390486090754176 -0.464227091070839 0.083626886861189 3.10612678324653 0.941467814064985 -0.355525533591839 -0.672572214274259 -1.23957421599086 0.121013792822503 0.161560582935501 1.07408241835404 1.59382268330269 -2.86950622475448 2.01035969204033 -0.143859832372228 0.032886963534727 0.159688049471163 0.493944914487287 0.0341773995442711 0.0629020063229689 0.988107601299756 0.599676849350182 -0.202129227414072 -0.315318128920682 0.356511808254642 -0.325955291420555 -0.14198807023844 2.58091624203985 0.00945676964874359 -0.599880223505103 0.42327278131745 0.0436778779241609 -0.954930103257998 0.529769618975402 -0.0391406545210077 0.125770074101754 -1.32201325380561 -0.181729848367799 -0.245372846238786 -0.989498310280753 -1.16720258450999 0.489774844425762 0.642638418303912 0.597861394346517 -0.113609790876529 -0.847618997649812 0.64086152982773 0.0895985279764855 0.747615220558711 -1.39796360192662 0.56207165684332 -0.477045062144721 -0.624189734217674 -0.457538626764746 -0.594890486179496 -0.677798235858239 -0.028905098127313 -0.184366770406827 0.00291254415543263 -0.135397564912151 -0.67247862616757 0.499099716550517 -0.653283551219465
-0.170939448198731 -0.0995633473472572 0.277034165530139 0.357689887114123 0.182602480329622 0.224588830358427 0.403829595042544 -0.0178331623076277 0.0833962590268473 0.408071398845186 -0.157428308070908 0.259885944750589 0.775521445624243 0.00254076283050717 -0.392498492158181 -0.582142191965264 0.872595452177636 0.0810699260891395 0.862835035402518 -1.06623721533368 1.56756247763008 -1.59284797859813 -1.27836931442563 -0.180778540689912 -1.58093863491172 0.650113639770636 1.51015517303255 -1.15888944095618 1.79131801388472 0.152342925757145 -0.662093174537062 1.04975079616572 -2.14425341949087 -0.0454449962133813 0.0968927438742277 -0.46010638616449 -0.408912920474841 -0.32300340940709 0.0318963179988087 0.622630360956489 -0.297178748384848 -0.495668838265728 0.109573161000091 -0.126350371785265 -0.207081683763113 1.27402338099879 -0.227021349801802 0.328040712116592 1.05106797163431 0.296570939911733 -0.247669611505425 0.305019066311734 0.537620992640166 0.604496379734502 -0.271365914431033 -0.260541575717782 0.499041352538928 0.194287881046453 0.837237916892419 0.536512847750519 0.426151644038881 -1.8152842825027 -1.36912278134511 -0.0787446215921645 -0.4414838955944 0.282198994890514 -0.193734837042362 0.455180669274503 -0.205823900746837 -0.00119016303809125 -1.32310365809262 -0.539222531971397 0.162247838455228 0.679408774045883 -0.14676594877308 -0.205704601621826 -0.0184345430261621 -0.049230686551004
0.355417033094523 -0.0985583036410791 -0.230305418171977 -0.157023616642531 -0.0366397437688985 -0.0951716483078024 1.07230321588621 0.326664658416038 -0.986327113281008 -0.63147546547937 -0.276616875702785 -0.815296133857053 -0.0903094376330684 -0.267027694309686 0.135896615777766 -1.53895922685786 0.39955076737352 0.313764154973345 -2.3122936932637 0.668584949552998 2.38338003093869 3.09397858419991 -0.818636509357352 0.857068053993059 -4.59415788212381 -2.30018791739731 -1.19593516170437 -0.878399971673844 0.643239541912263 -1.78436704008156 0.0518956336000028 0.864010543160166 -0.917937090097366 -0.507328013743871 -0.323413243039131 1.08658851477569 -0.598057312306125 -0.0193272295822763 0.253611170729285 0.551549679705526 -0.136231116126126 -0.393853719933895 -0.331312696308156 0.190718163262729 0.404035540299298 5.19061288376816 -0.525910652235563 1.42031753258568 -0.691418390703745 -0.341664466504663 -0.0304919821781014 1.07947479022656 0.840355892084238 0.402092044424393 0.00165527535952289 0.203313734028132 0.374481496069556 -0.70292407140251 0.286639544864779 0.176981794614411 -0.95475578255378 1.91219373853883 0.849426225127613 0.317966878028138 -0.00537128883749497 0.657442565543112 1.21787514496845 0.591688950178132 -1.05134642196273 0.853329157708781 0.696968114008389 0.707122423584189 1.48646915451427 -2.94380618260945 -1.25352064365887 -1.28411238458805 0.469462625731598 -1.26765579020135
-0.61428559285014 0.490185192278169 -0.289509151619615 -0.502926801627637 -0.525838661384264 -0.229192645299033 0.11370183632212 0.132719248133625 -0.719872774679886 -1.56422107368905 -0.217099210721443 0.28779448380777 -0.217435510841086 0.318336345361415 -1.09594783966499 0.540334276403609 -1.21375161185009 -0.130757497435712 -0.0877987566939971 0.359202980542329 -0.456153831317963 -1.19930973285903 -0.620261861948734 0.195790432957147 2.36384351366728 2.21854360715888 3.33986667924586 0.25004299560666 -2.23919366863378 0.232799129838956 0.409165659784939 0.600448951230369 -1.04444661308604 0.604114056892065 0.0353588208361332 -1.36422123281235 0.80133762201044 -0.654993076827645 -0.89292926812719 -1.11883141730147 -0.0121674823103543 2.17100881937634 -0.14176644126051 0.00844118442505372 -0.409510958760994 -1.87631555513261 0.0146457673663408 -1.07674196608919 0.592568524114902 0.0131686693637843 -0.0080089822070733 0.53143492163207 -0.538580270733732 0.479056435107994 -0.432774031027889 -1.66250812608684 0.88223631271756 0.236271402863243 1.14272698061907 0.509588269364493 0.81336549349131 -0.517174819540548 -0.37357184024135 -0.93511127900542 1.11130400246755 -0.935081968444533 -0.34298472729546 -0.94915438010231 0.366438832428482 0.665609156292495 2.00558952681119 -0.352399845094523 -0.113743231061617 2.27167619785032 -0.000385922385002151 1.22571469156479 -1.57162481852484 0.914152685310659
0.29696920358553 0.0196612157102695 0.898195141789567 0.869965215003371 0.506198528709018 0.55940902378597 -0.2307522756704 0.619024904857298 -1.31765035110668 0.36884281264152 0.0701810527199016 -0.183057565353909 0.109705572744446 -0.140315568496642 0.324810122664526 0.186980295419184 0.115250668065792 0.325891013874751 -0.924133702622973 2.14128302554422 2.73951028768144 0.639780124397137 -1.04994671412532 -3.6870849828181 -0.837522280755052 0.624248612449629 -0.922446802710915 1.05149348898753 0.093893039366686 1.58202286855433 -0.819702488176951 -0.107075078459997 -3.05159371338713 0.210383749846113 0.342337066743947 2.63161477062682 0.342052445771131 0.902229457674357 1.19070065548434 -0.371545554887451 0.215361917213476 -1.22670713687199 0.763368875704515 -0.0643256254074172 -0.372651128675265 -1.48885719389595 -0.0404449744804453 -0.0577562031161514 -0.929928709042403 0.119839570615771 0.848180012069582 1.54705382675594 -0.514672109017156 0.538417777097942 -0.354726692252597 -0.124390163748452 0.857396383697022 0.264036474438191 0.267667898665886 0.601309756123765 0.0380615630820643 -1.75026574515152 -1.3592137548841 -0.72135527199629 -0.212398465241767 -0.515558882039057 -0.0690250853361776 -0.0996024280951056 0.905378800308528 -0.309833711602573 0.284543839761413 0.0233630881281649 0.0606921442982564 -1.58141608852194 -0.696329452313289 0.307997430674069 -0.636867837351888 -0.636149728610175
-0.237289816298948 0.155006073034861 -0.191116941156892 0.337790844484381 0.290554561624558 -0.0243367643919911 2.23207711587264 -0.746408088248528 1.09875316887403 -1.12232760157279 0.798294208771752 0.14713567321654 -0.0662549802222448 -0.608912247131179 0.45723163720599 -0.879878869447683 0.24137478288983 0.439159619538158 0.532355890308337 -1.08252308855873 1.62386523688053 1.92038989695929 2.48924309199502 0.333041505180078 -0.366495139558605 -2.51427713920389 -1.48378955218483 -1.95331157036875 2.06753996834609 1.59182622273004 -1.39140215005103 0.704950613866591 -4.70394932966945 1.19058238480006 -0.518871232529385 -2.75575116662444 0.725522256735617 -0.488723006666239 1.09986388486551 0.43067086972921 -1.17245714532431 -0.262496898661114 -0.0955930518980879 0.479088573880895 -1.15917046238643 -0.306242139453276 0.141382061536608 -0.0706857600095479 -1.78417009368122 -0.352790909683189 1.2115980569555 1.19666406907378 0.183825039250798 0.80564010381632 -1.51560925134904 -0.589200123604634 1.49568424059079 -0.0562963314958701 0.805838849987943 0.91361018282408 -0.0928705121680494 1.3216520139982 0.4438256551431 0.833681825948405 0.405331118512506 -0.595303405133735 1.10534136020867 1.58019095849894 -0.534283188241699 -0.12261816036575 -1.72945653247321 0.168334664932604 -0.625496882389127 -0.0558057652663004 -0.185803759220803 0.110780036200091 -1.804846637505 0.13711737492766
-0.408173728698105 0.391131180203856 0.0292727656893071 0.143596294434435 0.210218170888124 -0.110574348053521 0.938631631633967 0.736069173561182 0.810359361229188 -0.055836618488286 -0.110170427955694 -0.248411374383993 0.462261740830362 1.02794553863764 -0.446971912455073 0.010185162797785 -0.3591942387961 0.360850542596355 -1.89437780261348 2.87906275315431 -3.95131917498718 2.1462179984008 0.397574104284981 -0.69287697677311 -0.532888365497771 -0.687745571736552 -1.26121080923876 -2.96795011436403 -4.35931009834502 -1.3384716479636 -0.447768696912849 -0.572758955828919 3.37189798009085 -1.12644830647914 -0.112539441183815 1.26341655750054 -0.755346266657732 -0.853890686348917 -0.58378975401929 1.53090370770762 -0.0953261715279132 -2.68737297050922 -0.0568061809891808 0.463996977456864 1.2070952863169 0.280852251750846 -0.69940114767213 0.549859180250903 -1.07240965950206 -0.687993425953169 -0.255905622004275 0.539089863116859 -0.299151811930822 0.806618665173627 -0.0337822211926733 -0.200116826010066 0.225798276660259 -0.682536776534848 0.0471586355844934 0.0069278338866642 -0.465145745755458 1.95254178248021 1.29813954485359 0.820962585184876 0.392642988081146 0.598265314444344 1.29304696345469 -0.232671088967716 -0.332653783023793 1.4446170160011 2.813298853382 2.10543749513126 0.782388087287303 -1.88515166079908 -0.677196855139705 0.106716666864599 -0.156219375989442 -0.047183575272265
-0.248269963783226 0.0552817747129131 0.274408042118805 -0.214411895086505 0.0521432307064366 0.00620149761908854 0.25039189412528 0.806378267152323 0.682020499286957 0.148251274301499 -0.66214665345517 -0.988986403905976 0.935761510658764 -0.244275242866652 -0.335455512690261 2.84048311305307 0.950144254307679 2.23663542231082 -1.75551644931309 -0.810592303055178 0.306013825610583 0.95410349401897 0.134009427032986 1.801762086637 -0.425022159004028 -0.288094017171213 -2.59725662262375 0.663079963420232 -3.28843332975527 -0.89788558112898 -0.303901922565675 1.01125703086567 -1.47584767573557 -0.239346440654466 1.37019981590259 -0.137847824958167 -0.080522795619263 0.543075070956655 0.0808956053849213 -0.54246006339841 -0.379177099345568 1.12052268808664 0.354697638801894 0.213789945553314 -0.000237826919471679 -0.317989503724261 -0.34296235870952 0.87571137048799 -2.01533785940769 -0.303633756644584 -1.24750272271059 -1.63975078955032 -0.208242793350501 0.814999685815809 1.51746095888854 1.21821478752048 0.399849786516596 0.210294275502355 0.664295066146095 0.449237824499726 -0.304463451205811 0.172521447156038 1.13899065543662 -0.709074918315505 3.41486032037513 -0.621194400583246 0.241945824606745 -1.16291810041694 0.718252723415463 -1.21785843280654 -0.236429268515735 -1.65311049178024 1.14449101358609 -0.466126621104414 -0.705532711321385 0.752965169251 -2.21313915110775 -0.244644710199928
-0.353658142331165 -0.0540756708434627 -0.440286790581362 -0.383154593879867 -0.230605208645603 -0.0924097707197323 -0.904117931970054 -1.22046038786065 0.213263641008278 0.118666376849772 0.966931492389997 -0.113417215349303 -0.254402041652847 0.172379265224722 0.389861313008969 -0.162586709676703 -0.989568244250586 -0.346530790942328 2.38969825658096 2.55080555426345 0.251073236110793 -1.55693714219864 1.3161521700691 -0.424405094564318 0.426487944158523 0.175500582848923 3.11253088368999 1.55922850815143 1.08782058677364 0.31379500819533 -0.851748958522756 -0.774644699899488 0.0292347133821916 -0.143541015745044 -1.22458932029287 0.951008915853823 -0.403166764990222 -0.134456798751776 -0.296039750273216 -0.0787003986406519 0.526541343514984 -0.566757747042553 -1.84961851925873 -0.352407301289836 0.61371095159066 -0.556594181500158 -0.664062124320104 -0.782927761561866 1.37430560841831 0.0458633144814682 -0.319820642449101 -1.07663937912609 -0.0448793538103135 0.298222358618508 -0.315182117633762 -0.996642116721316 0.173785915037078 1.22230001122154 -1.29237204922376 -0.199410544336781 -0.934751067638739 -0.466829817455501 -1.39067427112236 0.307909241881227 -0.612892312767311 -0.612711564308512 1.23071908417084 0.652936452472128 -0.536836806581367 0.613516319181968 0.454812230381959 0.622378650087124 0.464514540255671 -0.69021434371576 -1.23314466163927 0.117453073895192 1.79895675742796 0.38650808199951
-0.308754105943264 -0.159653082486246 0.823915495639074 -0.421004555281148 0.093596848435625 -0.450855818882683 0.774236923148913 0.171252608401884 0.360803234322644 0.932316491313898 -0.719173434981548 0.27960809557428 0.438804036154775 1.0350770037894 -0.154520649008956 -1.75508630397658 -2.05213803993092 -0.0832371078234387 -0.995497462185653 -0.592667511535439 -0.833314158386411 0.149393100625147 -1.90580943557948 -0.199307700263496 0.166314807333286 3.50533816517821 -3.30345627776038 -3.35783379595894 -2.33598074022271 -3.05209430691384 -0.35190182266964 0.0352379790500232 -1.14331473449789 0.0470887016146596 -0.0427587090191757 0.146868278625999 0.263105478464778 0.244105550145731 0.515320798009402 -0.701269824483719 0.698316914029522 1.31612543061004 3.22492428628974 -0.849003793096595 0.101174399755268 1.49197208376557 -0.0866859838210529 0.387621111982637 -0.983076726344834 0.189154162018246 0.321471804045693 2.3854122298268 -0.96715980623269 0.304367806217656 0.44538065753117 1.25326096237382 -0.00769325090208819 0.405973636860354 1.65230008048275 0.277096900414843 0.631756486909621 -0.500896916731173 -0.171721320265881 -0.615003958702036 0.0579624054830879 0.9047650783012 -1.39559253181703 -1.32829188447966 2.65171873007258 1.01679132755932 1.84167767125021 1.11745330671945 -0.750686144587003 0.0589216835766543 0.730122472133657 -0.737762758338004 0.70401730390153 -0.838916846388797
0.0733771894074177 0.709761402504683 0.0964003778733755 -0.0529821812342594 -0.0268978389269721 -0.432882274415021 0.362803037327672 -0.33681356867799 0.046686581288115 0.61392306749181 0.562592304964326 0.00304778411180247 -1.77714275815365 -0.814726634801237 -1.32631367873003 -0.399722516975906 -0.492023787198323 -0.568365714128365 3.41058174981629 -0.374792856501426 -0.887038873829788 3.56798563241979 -0.493221920652093 -0.371170431130144 -1.02560146509729 -3.36204783186179 1.12176967247522 3.25464776613022 2.04819988325465 -1.22579131039938 0.171014781482412 0.227313941190298 0.864940510692846 0.161737988961918 -0.137348516982368 0.579507583917884 1.6948983527476 0.714862982759988 1.48028925415057 1.6835801053724 -1.35230006205751 1.97527855020207 -4.16521942080909 -0.572379718308681 0.720995574849975 -2.15025745648925 0.855772732890034 0.222241671495879 -1.59771995945982 -0.0586733151396709 0.26565626859243 -3.4691380798226 -0.0317137697687278 -0.332613673835212 -0.376215961365508 -0.365447158451831 0.416251873544462 -0.44861227542397 -0.555361338171654 -0.520647092564835 1.04501611214186 0.541228505620822 -1.65910038771854 -0.516619718654992 -0.0133794997140186 -0.517936379903224 1.11882833197927 2.42474957363797 0.534534127780515 -0.651595879976857 -0.322283758004278 -0.932210047698048 0.425964467825503 -0.427777351727335 1.11537482799836 -0.953531166751138 1.65270760012314 -0.668904537510731
0.056606920597191 0.197178827946496 0.228741159817311 1.10829658465451 1.16955771378822 0.35739035375068 0.404264882582723 -0.55568761099415 0.137215076797281 0.256751000286678 0.814587281081936 0.671510349217591 -0.267754544797629 -0.449760529502198 -0.303757169532526 0.961739666460385 0.824543872926845 -0.357718426344459 -3.30589111119541 0.171536458044151 0.133187445777255 2.93096789983109 -1.61960132160213 0.322902107994905 1.37586266768785 2.43055692134619 -2.4069230961951 0.195300895168311 0.497960461328702 -1.02510035735021 0.716572765478352 -0.208362092475512 1.02364434238267 0.0402724535475096 0.0420028050805306 -0.349659307651659 -0.235594688861027 -0.637997579496924 1.28772426844183 -0.128060925834178 0.183284593645685 1.66867388539046 -0.665808673794668 -0.00645963624303401 -0.648456307529648 0.147656064227362 -0.802637056876397 -0.755552211914485 -0.14039784375527 0.790642866829528 0.284323239224217 0.825509064554625 -0.221034282075513 -0.26079997145191 0.242800201745561 0.44681636079423 -1.39108281920348 -1.36715563133335 0.192802812628217 0.340988523832997 -1.04059510254151 0.134435458606569 0.43391534313117 -0.213494268842619 -0.574443284639145 0.0169821276011939 -1.19671060601694 -2.29284973565824 1.17899340040194 0.59846020396322 0.282975981864182 0.241180664701504 0.210716707533373 -1.43937942445888 -0.735270846442307 -1.51031432423596 0.62932988100046 -0.0930520319573975
0.179240764684117 0.21785280066844 -0.429651427852772 1.01755185948127 1.09848783116495 -0.965572407961535 -0.673884247539193 0.0855284737762296 -0.0308928169537298 0.498449742007356 0.114437428556291 -0.166535407870482 -2.09069659699713 0.248392091120252 -1.68509114191914 -0.0502403582404799 1.17464078211033 -0.880092785120116 3.94031228804384 -0.785767800645633 2.76376503392499 0.512574604142508 0.787309947524542 0.583498448181711 -0.864540447247768 -1.59654393748181 -1.96421227080641 -0.269944609338234 -0.326138868091368 -1.4088977266881 -0.862663542910315 1.57978909528257 -2.46231954204973 0.964486374547645 0.0618483687921636 -2.65457445287752 -0.627759194891214 0.0439704693126568 2.44692224161786 -1.13093050830309 -0.884349244203201 0.88606982554926 -0.0952804059153013 0.0140826960651052 0.0808254143049043 0.118849953520586 -0.677751441804894 1.28665597563058 -1.28850485495806 -0.160746057875083 0.520852266491038 -3.29536964827798 -0.155998518342062 -0.044935660940437 -0.211950065082244 -0.671139853443582 0.896378401234987 -0.867213621822629 -0.605221430451162 0.153789941868266 -0.0612894112538593 -0.851465365990673 0.142068288615602 0.53305394445576 0.00281587072654468 1.05837889969396 2.51491091580551 2.29068101126284 -0.00448425870541141 0.0280360657080544 -0.148716643733114 0.935152673744917 0.265968143244667 -0.0862018453460635 -0.571125791945153 1.81683285713619 -0.769795344733915 1.5140277666121
0.466088568797299 -0.344245595633934 0.114252052114195 -0.682769461250655 -0.440358267212295 -0.18336661179413 0.279160466745307 0.0626536378859855 -1.63499733648309 -0.185997620298945 -0.225768194768824 -0.483310837309613 1.11470839840347 -0.352788852801724 1.2754552276091 0.0528929640006846 -0.219695766461708 0.158474232296217 -3.19830695457265 0.499339343241271 2.60422405147862 2.56413286061028 -0.0825516520749938 -1.51489859880264 0.819585760153773 3.52203670024732 -2.62404184729047 -0.577852822778728 1.36960126339607 1.47425025016727 0.00265234865002145 0.535661555933902 0.12362654650431 -0.966677467528983 0.127185208550156 0.164189277448667 -0.236328224213733 -0.379138532818086 3.17570954057009 -0.235414454622595 -0.417367217519239 -2.71494983743006 -0.772681149430294 -0.969336243933585 0.145514336401201 -0.730584756243074 -0.628658566312092 -0.110629369632729 -3.51201531663624 -0.843324229149428 -0.983521526961792 0.327336744434956 -0.51208738034532 0.228310757370613 1.05430498884096 1.65519462692536 -0.618896092655509 0.507207943288311 -0.873898743696341 1.36302901289279 0.8207692383271 0.304936791053106 -1.79579893015775 0.880134951190163 0.412360510921539 1.02915087117654 -0.454050155798917 -1.78755777745523 0.13307020353371 1.21041457878217 -0.601938904742086 0.86484075194176 1.4975909697095 -2.26280024010545 -0.957214270125659 -0.0443026556693676 2.45254626976545 0.767527890028163
-0.0716033862534338 -0.1648994157747 0.514655911075614 0.0539178051909701 0.296644987644498 0.494953814846214 0.912942981898644 -0.242137114583055 -0.699349211415121 -0.656260887141067 0.00149355305428214 0.224679847363285 0.621719419577367 0.554939677471185 0.967600235976533 -0.150872769729535 -0.197711046025746 0.100549622010061 -1.77937113211156 1.55948124746153 1.77879186286878 -4.52031583750515 2.40199377976255 0.878109694276997 -1.45456049522667 2.7800791892702 -3.06624565139787 -2.20737602635104 -2.13539263124681 0.00438270018304242 -0.721727310431398 0.0791606258686025 -1.98036573228711 0.0706482219227989 -0.27731518696039 2.39626922153332 1.82063628807645 -1.3438704475907 1.46182025835986 1.48926368509561 -0.587574930136547 0.486494118487969 -0.230372781039978 0.0358632710155963 -0.653250641116013 -1.05424173973589 -0.955881668046068 -0.878007878644445 4.91571478964015 0.389954644005475 -1.43998697582181 -0.15890103520035 0.221821039236143 0.942741280802437 0.344500134715315 -0.487606377140546 0.923962724351137 -0.221986361083949 0.0651265236281246 -1.25550142051034 0.894370884924463 -2.07560088681017 0.14717089731164 -1.63130523425216 1.67338980037095 -2.17058304491294 0.112757213508996 -0.270668374503977 1.26300466698703 1.23512646693147 2.01602125827467 0.424780475431808 1.45820837450609 -1.74478518448616 -0.25672400371744 0.929088730073847 -1.59252659086911 -0.609953029152824
0.102357363708229 0.177780893063836 0.110954614014493 -0.293897508226688 -0.155104032014665 -0.0942200835197324 0.462351729394486 0.764720503937664 1.13695845654851 0.225003291973766 -0.46110911587902 -0.598455318869739 0.70694244645594 -0.781246003853473 -0.104053519586883 -2.68868140423159 1.34124869505248 0.568293723277066 1.0369623927629 -0.225649924084546 -4.15205409387769 -1.22286282541259 -0.577049096346005 1.76012694911846 1.49454884202173 -0.815385351090628 5.20350824500719 1.78868880515118 2.60619942901625 -2.62253698138813 -1.16628984335959 -0.179761412805123 0.532806347349326 0.380613316828994 0.104274634344445 -0.305933607233421 -0.32781162694335 0.0781077596683468 -5.3158777363599 0.244421281450716 0.123150378445 1.52624924206093 0.313775467821406 0.245409098774619 1.10697092454987 -1.05732577638353 0.276651328467335 -0.587500368183415 -0.177447421156209 0.23156217274752 -0.448430755634622 4.07954002335531 0.709273664487128 -0.663047310426964 -1.4012461276357 -0.742340862260288 1.08709733582827 0.589836214197902 0.833716278712956 0.134915226208444 -0.27481504753883 -1.13163113355234 0.960014457131028 0.176981794614411 -0.983004221273168 1.37784575853097 -0.143478795080707 0.530939727419202 0.632146008837188 -1.66851062042412 -1.35992620720178 -1.35533087689722 -1.4623020828432 0.826425148137412 1.40075556140613 0.282645595278754 -1.43725260902334 -1.29120219789014
1.31750225564115 -0.394364083647572 -1.04731442006959 0.180909923993534 -0.51465796795708 -0.0550431764628918 -3.08566569775628 0.694281569704 -0.767209073400979 -2.28144278526983 -1.24193885834587 -0.568292437726149 0.161828748856592 -0.666119005785805 -0.0254546794685996 0.265111709224386 0.734963342663185 -1.00049337015566 2.23583246720864 -2.95631099348018 0.0846617553486199 1.57212875448394 0.430234039527931 1.85317049643981 -0.644679616048437 0.403761975064359 -1.70251678458637 5.7931711669416 1.55589636017699 -0.0715036275023473 0.343150563363632 0.247118881492983 1.38116350833514 0.610732844338508 -0.617503326793046 -0.106673215243636 -1.27970243072559 0.574926137563218 3.01456419058048 -2.72535122989193 -0.102440924517773 4.40052768892602 1.42164524957179 -0.49836926652001 0.440353639228997 1.1425534312454 -0.212282251438955 0.595261496173871 1.14074286133521 0.742741439925733 -0.119298096569926 -4.0207157845381 0.732684832219554 -0.153173134538739 1.00235741898395 0.753420768495652 -1.17155725968306 -1.25947814371409 -2.96772797116573 0.507066532687544 0.882826380588033 -0.374965891654729 -2.30472976878376 -1.3952300064587 -0.796197475227653 -1.36313957027157 0.223227174828133 -0.891860718205758 -0.205473459567118 -1.72333165368872 -0.996956305365201 -1.58733245094785 0.31041606616755 3.0036912580426 -0.598378957145324 -0.188539925790551 3.35797469233934 0.570814431513282
0.00572944332271015 0.272824500500398 0.119313523180918 0.105197917012362 0.589931087855507 -0.29709570179567 1.3734036658956 -0.0820837115415469 1.17253453548945 0.866803016860039 -0.656365016765268 0.0907580949027744 -0.96928944988024 0.965442053098647 -0.70512416324026 -1.0843873944972 0.058215144793186 1.01349466079017 4.14935186585212 -0.0683342302738853 -0.422326615843227 2.36944697300021 0.183860263345898 1.03825771386593 -5.31607622542134 0.187907691850032 -0.484630840990227 3.65387971687655 -1.1789954572834 -2.16349837381452 -1.07862504107104 -0.0932080978386075 -0.122567252549474 -0.148202680476872 0.0554571238578641 -1.3822852800645 0.490525349050559 0.38598229167484 -1.51101546370558 -0.825524234055435 0.0850919006851346 1.6096329026888 -2.86432519745256 0.775615290841116 -0.0791583118769536 2.34015209583515 -0.20521352117189 1.06773822458327 -0.942978593501543 0.289355142619871 -0.0455280428025589 -4.82064264297325 0.0522735855693254 -1.16599185265724 0.834697411172095 1.08060401815123 -0.355457142283104 -0.961929927995962 -1.10565554885255 0.515258577345064 1.51056577799514 -2.15410948125414 -0.602703807537144 0.282076610443305 1.87911317103615 -0.248996557160985 1.2012246895036 0.852819565325654 1.55859987375347 -0.346821068339175 -1.59653545284576 0.184909015783223 -0.534259019884477 0.0689204414916101 0.220634989960983 0.710007456950017 -0.6429127548694 0.995247036867204
-0.774951175237878 0.497715949544467 0.520696200609828 0.460420574808376 -0.0591137448835141 0.106553659008442 -0.20030683043546 -0.168027418263665 -0.352126022749401 2.64317932955754 1.89850390683368 0.193018270961749 -3.1530421925977 1.33284504871418 -1.73365539887525 0.0869960587020073 -0.79134812006208 1.69397198475748 1.03166643720909 0.208002909549564 1.0814452826707 4.40730999844898 -2.12464516847834 3.70856396752368 2.9936778448472 1.5385941303977 5.52506026743004 -5.76384260834254 0.176895662703035 -2.14597425794711 -0.401526144911142 -0.236024062866992 0.599627741305188 -0.694686004022194 0.109321450130726 -1.49788227554708 0.509543275082431 0.569965196578131 -0.840089783044613 -0.0444656635255244 -0.766434914639326 -1.21781369563466 2.98950494657366 1.12626267292686 1.09574626528135 -4.56364121736812 0.733803004406346 0.780212420916958 0.531785105701605 -0.39245041255392 0.587330932572678 -0.0915661922086117 0.107854379425315 -0.757418574734426 -0.103328983090589 -3.41867557838382 -1.99741470853594 -1.57284249235254 -1.02622521440176 -0.811091868141161 1.07253384372055 -1.77985938434948 -2.27752905406097 2.43179824931074 -2.96530136525657 1.78654990553704 1.51882492841048 0.284942874765759 -1.98829706721886 -0.085653429325271 1.13177151571238 0.810760967335366 -0.140357991676872 1.21173175425077 -1.02116065801284 -3.08702992438841 2.79989492820058 -1.84908475851838
0.0990046469191362 -0.145995903774358 -0.538193834128363 0.162794968925105 -0.194250342959704 0.111651639721182 -0.18732893682762 -1.01700292924011 0.0462896031652347 -1.11783125868877 0.724416682947803 0.165374555393277 1.18020438936487 0.0286029936620382 0.856674675412744 -2.44311366847393 -0.17434230147355 0.732683803778821 0.766505362829526 1.30460997972431 0.843256609171243 -0.457732744953071 5.01392830852554 -3.09959567037256 -0.93253914873256 -0.169870898277299 1.15385779467071 -3.19206946152791 -0.797911371708948 0.191680012458127 -0.394405735497252 0.38703310099363 -1.52291298032356 0.438055588411443 -0.731060410082017 3.3986307542802 0.419981770972328 -0.0689993743178563 0.16820868094283 1.21097842141396 -0.00601329296497689 -0.854840965586071 -0.00343396360698783 0.232840010358087 -0.35999616545754 -0.418970556621753 0.311369944947269 -0.75430728440737 -2.15958901347877 -1.60664425391913 0.206115977914966 1.78949510268574 1.22224293276087 -0.697724275057217 -1.52241547211904 -0.400875399037431 2.07549650007578 0.812049346463444 -1.67988208960725 -0.878916763142102 0.746016252329312 -0.437166501397893 -0.402561784729123 0.867761780733239 -0.292662093796352 0.424691258198234 0.905816401840356 0.28044678899192 -1.63000965603895 0.951606697029792 1.73719092100461 1.06827764174765 1.09546344407982 -2.23034419323779 -0.557919584494619 1.38369604363979 -1.28966082234178 -0.145910543193532
-0.45790629432674 -0.126629593444234 -0.122737202380578 0.032289696579124 -0.105494107943423 -0.165711112623102 0.44913806574864 -0.282757181098269 0.438840031580424 -0.573464980392021 1.12585001108281 -0.519954951951626 0.130260503451562 0.183801642224126 -0.346220716061374 0.360960842864954 0.13494453676933 -0.0496898853382217 -3.39270950676082 -2.22981686025202 1.81946206586972 -1.01442102878029 1.127059971605 -1.38475199516224 2.53380465761889 2.36676120002638 2.11787828556637 0.719681741813759 1.1698122528696 -3.7813621447985 0.10331304225923 -0.147977709066561 -1.62440748225693 0.355019283641093 -0.436328836420987 0.99192388774918 -0.123291017715218 -0.859909635737925 -3.56104108637122 -0.0844812640000046 0.882054535818029 1.40968422673855 -1.99628548061127 0.774451867262079 0.0198756456030688 1.00088134942213 0.155086034301841 -1.19775370203023 -2.18151871233553 0.12254771217555 0.638297627080733 1.64126465430908 -0.032728583661868 1.14462676776282 0.947544099024849 1.03890126065451 -0.735319697377117 1.58576870681355 0.727836505494714 0.775269991865061 0.514861342112001 1.27276019866867 0.718575910915761 1.40584017238934 -1.87711233959039 1.5320267649879 -2.39800060150708 -4.28932162115234 0.944754710647176 0.208988155771635 0.0264936617189618 0.931621779598858 -0.311838913921449 0.934597058638994 0.156083364702522 0.544301743640763 -1.65488198094257 -0.149971084317009