10.110978995 -0.073797050 -0.087681016 -0.044100373 6.090097504 0.043680666 -0.041681406 0.034747437 5.014748317
9.989539141 -0.062791474 -0.089838410 -0.037523552 6.133197530 0.057356701 -0.042706979 0.045626556 5.002923360
10.195681005 -0.007040440 -0.048852209 -0.004207296 6.120812559 0.052899281 -0.023223143 0.042080733 4.938630916
9.963870569 -0.064641293 -0.087979098 -0.038628985 6.187942790 0.040943559 -0.041823107 0.032570102 4.985375241
10.012605254 -0.062603172 -0.048747359 -0.037411025 6.162311729 -0.006890064 -0.023173300 -0.005480962 4.963205662
9.978023165 -0.127262851 -0.189724547 -0.076050997 6.055946569 0.023885920 -0.090190400 0.019000958 4.983209279
9.975907474 -0.115395654 -0.055908169 -0.068959280 6.107982591 0.013619837 -0.026577373 0.010834414 5.043693884
10.029470880 -0.083430911 -0.113525191 -0.049857472 6.158251600 0.045371448 -0.053967094 0.036092434 4.957675310
10.023297362 -0.074959541 -0.106633230 -0.044795066 6.156750854 0.015287296 -0.050690824 0.012160858 5.009623063
9.998414609 -0.124950621 -0.070989963 -0.074669232 6.098701809 0.027574340 -0.033746889 0.021935051 5.052786138
10.349028919 -0.002104006 -0.013099712 -0.001257333 6.161609987 0.015674381 -0.006227282 0.012468779 4.949326998
10.197279225 -0.000797203 -0.056354042 -0.000476400 6.103065395 0.055495345 -0.026789330 0.044145870 4.955397747
9.973023685 -0.064573864 -0.090352246 -0.038588690 6.160643489 0.050804178 -0.042951244 0.040414104 4.991581468
10.021250635 -0.060683332 -0.050259295 -0.036263748 6.164596505 -0.004557734 -0.023892037 -0.003625622 4.964463777
10.015330972 -0.060547489 -0.080595860 -0.036182569 6.094222143 0.061738245 -0.038313297 0.049112021 5.014341686
10.078731080 -0.055710581 -0.071086729 -0.033292082 6.159430054 0.020045618 -0.033792889 0.015946045 4.980625130
10.088518016 -0.081337810 -0.107800666 -0.048606655 6.071715617 0.043490256 -0.051245795 0.034595968 5.022404845
9.964240858 -0.064643407 -0.088324006 -0.038630249 6.186090981 0.041758184 -0.041987068 0.033218126 4.985518885
10.032603007 -0.098773416 -0.157751787 -0.059025998 6.024002770 0.037369204 -0.074991334 0.029726746 5.032161225
10.149910827 -0.059324143 -0.052432782 -0.035451510 6.125905502 0.043446678 -0.024925260 0.034561302 4.989812300
10.220672620 -0.017989366 -0.103204251 -0.010750264 6.043727239 0.041104858 -0.049060772 0.032698413 4.911426028
10.403393651 -0.000146471 -0.000772578 -0.000087530 6.215782530 0.000591809 -0.000367265 0.000470777 4.946635706
9.976256151 -0.130558171 -0.190177122 -0.078020247 6.035003267 0.021454232 -0.090405543 0.017066580 5.000011987
10.224166009 -0.018666431 -0.101023109 -0.011154871 6.050319895 0.042684440 -0.048023911 0.033954951 4.905543568
10.100631268 -0.048104731 -0.065497088 -0.028746902 6.172753281 0.050251340 -0.031135711 0.039974328 5.006628680
10.231249548 -0.018770752 -0.022730404 -0.011217212 6.061544302 0.042217142 -0.010805477 0.033583222 4.983204929
10.115314542 -0.050499648 -0.117750992 -0.030178081 6.063607589 0.053818885 -0.055975936 0.042812266 5.041880314
10.169556091 -0.024609726 -0.114157521 -0.014706524 6.073900057 0.059064349 -0.054267688 0.046984969 5.009105278
10.066517730 -0.122619028 -0.112688030 -0.073275895 6.101770409 0.049800597 -0.053569128 0.039615768 5.045679335
9.997165246 -0.103797286 -0.156280336 -0.062028212 6.122151110 0.034870943 -0.074291842 0.027739409 4.945482732
10.050250054 -0.057031595 -0.063807559 -0.034081506 6.057038782 0.062866473 -0.030332550 0.050009513 5.027945910
10.140106741 -0.041212849 -0.031339365 -0.024628383 6.028092079 0.054285511 -0.014897966 0.043183462 5.016223926
10.179574555 -0.043060479 -0.027202864 -0.025732508 6.154708397 0.045532335 -0.012931575 0.036220417 4.950850384
10.126311530 -0.045348824 -0.116912975 -0.027100000 6.054707322 0.056075533 -0.055577563 0.044607403 5.037271993
10.006318558 -0.126346479 -0.076586379 -0.075503382 6.097160438 0.031508779 -0.036407288 0.025064849 5.053549043
10.139782405 -0.095114932 -0.136569834 -0.056839725 6.112470263 0.064238741 -0.064921952 0.051101135 4.999296283
10.004297807 -0.126055835 -0.075145016 -0.075329697 6.097473290 0.030546295 -0.035722099 0.024299205 5.053394674
10.186311342 -0.036498247 -0.026761412 -0.021810984 6.157564040 0.047293636 -0.012721720 0.037621511 4.938572956
10.017221094 -0.060395444 -0.079636350 -0.036091708 6.091620692 0.061904737 -0.037857169 0.049244464 5.015180571
10.197083644 -0.060705634 -0.121351596 -0.036277075 6.105069228 0.062444218 -0.057687575 0.049673614 4.938557039
10.021059521 -0.060073971 -0.077662219 -0.035899599 6.086548851 0.062194087 -0.036918716 0.049474638 5.016911629
10.132582780 -0.098359270 -0.135978221 -0.058778509 6.111612051 0.063713960 -0.064640714 0.050683678 5.006108809
10.193473160 -0.005242492 -0.089901783 -0.003132860 6.069346773 0.057652192 -0.042737105 0.045861616 4.998705815
10.040856579 -0.071896153 -0.112344566 -0.042964416 6.138632360 0.024081626 -0.053405853 0.019156639 5.018497976
10.140189758 -0.044944466 -0.109631124 -0.026858360 6.102976405 0.056559072 -0.052115950 0.044992052 5.006522089
10.028479140 -0.074075032 -0.108736852 -0.044266493 6.151431669 0.017760682 -0.051690835 0.014128406 5.012279267
10.001674324 -0.100768965 -0.149846940 -0.060218518 6.128748025 0.036617027 -0.071233563 0.029128398 4.945690932
10.080171702 -0.083995605 -0.115566345 -0.050194927 6.064636730 0.043227207 -0.054937408 0.034386716 5.024696448
10.198291892 0.000822894 -0.062900601 0.000491753 6.091015332 0.056829832 -0.029901404 0.045207438 4.967686819
10.091557677 -0.051856890 -0.046150808 -0.030989155 6.033027824 0.060062263 -0.021938963 0.047778797 5.026968360
9.966445463 -0.069569707 -0.078617688 -0.041574156 6.211786940 0.018795880 -0.037372922 0.014951893 4.985444393
10.008645150 -0.076985105 -0.098776401 -0.046005523 6.173269869 0.009303653 -0.046955880 0.007400943 5.003011954
10.052687323 -0.056751103 -0.062764585 -0.033913887 6.055154641 0.062824260 -0.029836746 0.049975933 5.028457676
10.157149754 -0.056160618 -0.045259570 -0.033561019 6.133789044 0.043507863 -0.021515291 0.034609974 4.982102107
10.003275751 -0.099719953 -0.147608636 -0.059591639 6.130916584 0.037221617 -0.070169528 0.029609342 4.945938861
9.976699204 -0.129705490 -0.190201732 -0.077510694 6.044345816 0.022357942 -0.090417242 0.017785471 4.992597582
10.176748388 -0.045145626 -0.028494013 -0.026978571 6.152842024 0.045007757 -0.013545356 0.035803122 4.955337946
9.981352207 -0.127125580 -0.189403942 -0.075968966 6.011391339 0.021488198 -0.090037992 0.017093600 5.020196230
10.169687099 -0.026441132 -0.113959808 -0.015800954 6.031657329 0.050874638 -0.054173700 0.040470154 4.996029383
10.030505508 -0.127226912 -0.093233217 -0.076029520 6.097085305 0.040668137 -0.044320787 0.032351007 5.053622331
10.073067099 -0.065343157 -0.117375110 -0.039048412 6.101650461 0.039418059 -0.055797251 0.031356585 5.033942276
10.144544363 -0.092929769 -0.136672476 -0.055533893 6.112833153 0.064479510 -0.064970746 0.051292663 4.994571882
10.195441169 -0.061994320 -0.122382466 -0.037047181 6.105531370 0.062753101 -0.058177625 0.049919326 4.940334558
10.223557949 -0.018490679 -0.101426781 -0.011049843 6.048991049 0.042315503 -0.048215806 0.033661466 4.906529590
10.027876131 -0.059452549 -0.051742420 -0.035528244 6.165964315 -0.002559516 -0.024597078 -0.002036064 4.965926029
9.978548121 -0.126151023 -0.189301653 -0.075386580 6.059937704 0.024457938 -0.089989367 0.019455991 4.979901057
10.389481721 -0.000412754 -0.004687536 -0.000246657 6.201872355 0.004343517 -0.002228340 0.003455215 4.945672305
10.142638774 -0.043442521 -0.110670667 -0.025960813 6.100132655 0.057276684 -0.052610123 0.045562904 5.007420260
10.040454192 -0.077284720 -0.101680016 -0.046184570 6.165478910 0.047466585 -0.048336188 0.037759090 4.965478859
10.060063407 -0.055896801 -0.059643654 -0.033403365 6.049855390 0.062602536 -0.028353132 0.049799554 5.029490906
10.227565911 -0.021110240 -0.098706161 -0.012615267 6.060765384 0.046141353 -0.046922490 0.036704883 4.901118863
10.096653310 -0.055923051 -0.082173645 -0.033419052 6.149687357 0.030674950 -0.039063337 0.024401549 4.989367533
10.190804014 -0.024298540 -0.034856177 -0.014520562 6.147898922 0.049523566 -0.016569773 0.039395392 4.930320860
10.075713572 -0.060133323 -0.076077470 -0.035935068 6.174701736 0.050201165 -0.036165365 0.039934414 4.992351316
10.061140556 -0.123709613 -0.110122394 -0.073927618 6.101083031 0.048495985 -0.052349488 0.038577965 5.047477954
10.196918921 -0.001851182 -0.054394923 -0.001106248 6.107493562 0.054887824 -0.025858013 0.043662594 4.950918947
9.963894026 -0.067785157 -0.079458691 -0.040507727 6.210251358 0.023732770 -0.037772714 0.018879129 4.984610695
9.975144377 -0.079025873 -0.045809544 -0.047225065 6.145065309 -0.012421455 -0.021776735 -0.009881116 4.979356912
9.980126914 -0.128012989 -0.189671609 -0.076499272 6.013821379 0.021245774 -0.090165235 0.016900754 5.017917944
10.115689321 -0.040315921 -0.061064353 -0.024092388 6.168051738 0.049984409 -0.029028497 0.039761988 5.011854825
10.367150421 -0.001036518 -0.010009695 -0.000619413 6.179628110 0.010786940 -0.004758364 0.008580879 4.946517117
10.117204243 -0.046941750 -0.036670193 -0.028051917 6.027169316 0.056889297 -0.017432111 0.045254742 5.021760924
10.227283788 -0.030811608 -0.099359420 -0.018412707 6.079267154 0.051744391 -0.047233033 0.041162032 4.904576044
9.981093028 -0.063766236 -0.090499901 -0.038106060 6.146401888 0.054638532 -0.043021435 0.043464286 4.997716242
10.124536217 -0.069010179 -0.075829266 -0.041239788 6.101465066 0.043608349 -0.036047375 0.034689910 5.008413213
9.967224539 -0.105685902 -0.049196992 -0.063156830 6.116297820 0.004435955 -0.023387045 0.003528748 5.027308000
10.384666216 -0.000493605 -0.005973201 -0.000294973 6.197075305 0.005746616 -0.002839513 0.004571363 4.945583441
10.405513598 -0.000050118 -0.000201516 -0.000029950 6.217911882 0.000142062 -0.000095796 0.000113009 4.946833044
10.404949577 -0.000079785 -0.000350526 -0.000047679 6.217345541 0.000254576 -0.000166631 0.000202512 4.946781783
10.227627896 -0.029916117 -0.099087835 -0.017877570 6.077897354 0.051390514 -0.047103929 0.040880527 4.903994777
10.226937725 -0.019651126 -0.023091432 -0.011743315 6.059051376 0.043035261 -0.010977101 0.034234025 4.984722221
10.252502783 -0.014712976 -0.021023525 -0.008792326 6.075365027 0.037926277 -0.009994069 0.030169891 4.976136568
10.289897216 -0.008694652 -0.018492145 -0.005195836 6.105595572 0.029751241 -0.008790713 0.023666750 4.964788888
9.962263546 -0.065207757 -0.084173573 -0.038967499 6.200944944 0.033779475 -0.040014054 0.026871161 4.984813806
9.991477987 -0.119592985 -0.185195549 -0.071467562 6.003994913 0.024575199 -0.088037425 0.019549271 5.028799303
10.193011260 -0.016422312 -0.041330089 -0.009813808 6.136296499 0.050847618 -0.019647311 0.040448660 4.931516698
10.111594893 -0.042461023 -0.062114318 -0.025374279 6.169683843 0.050056387 -0.029527625 0.039819245 5.010707341
10.019906662 -0.075510526 -0.105050783 -0.045124330 6.160328883 0.013754297 -0.049938568 0.010941376 5.007927135
10.133185940 -0.043023974 -0.032653776 -0.025710693 6.027324086 0.055029801 -0.015522805 0.043775536 5.018033291
10.049919564 -0.070269378 -0.114091120 -0.041992272 6.128554558 0.028771997 -0.054236122 0.022887773 5.022816962
9.995996566 -0.077308803 -0.090957939 -0.046198961 6.189748861 0.006114991 -0.043239175 0.004864400 4.999497844
10.188462219 -0.032593569 -0.028618569 -0.019477588 6.156548598 0.048149113 -0.013604566 0.038302033 4.933728206
10.119032217 -0.048794355 -0.117445538 -0.029159015 6.060610124 0.054711850 -0.055830730 0.043522609 5.040650732
9.976877409 -0.129401603 -0.190178753 -0.077329094 6.046247857 0.022585004 -0.090406319 0.017966095 4.991080817
9.987472495 -0.076322827 -0.086283377 -0.045609752 6.200160722 0.005920999 -0.041017003 0.004710083 4.997257958
10.188986413 -0.009370621 -0.098490425 -0.005599789 6.066336041 0.058103559 -0.046819934 0.046220672 5.004470081
10.164828272 -0.052384283 -0.037748058 -0.031304319 6.142114582 0.043763601 -0.017944502 0.034813411 4.972538810
10.185163215 -0.012676399 -0.104002683 -0.007575288 6.065493202 0.058494895 -0.049440327 0.046531975 5.006758979
9.965481766 -0.094076505 -0.045559262 -0.056219172 6.128109628 -0.005155581 -0.021657757 -0.004101202 5.004660892
10.161921879 -0.053877121 -0.040538485 -0.032196425 6.139014952 0.043633694 -0.019271002 0.034710072 4.976320599
10.023075727 -0.102346255 -0.164790157 -0.061161091 6.017305588 0.035043049 -0.078337202 0.027876318 5.032208501
10.025655142 -0.059843613 -0.051214572 -0.035761940 6.165549268 -0.003251818 -0.024346152 -0.002586782 4.965404201
10.190158559 -0.019920146 -0.111120478 -0.011904079 6.028785715 0.044558763 -0.052823952 0.035445952 4.962141131
9.995771221 -0.104767705 -0.158324139 -0.062608124 6.119924825 0.034317438 -0.075263416 0.027299103 4.945601654
10.046266133 -0.070932520 -0.113446559 -0.042388559 6.132703156 0.026897009 -0.053929714 0.021396243 5.021090266
9.976421764 -0.130180731 -0.190211135 -0.077794693 6.040573948 0.021947183 -0.090421712 0.017458716 4.995591026
9.990551270 -0.069813444 -0.046730997 -0.041719811 6.154488138 -0.011596008 -0.022214771 -0.009224483 4.966803771
10.161532304 -0.029598181 -0.115020099 -0.017687575 6.033564097 0.053259750 -0.054677736 0.042367481 5.007007640
10.095685895 -0.058477301 -0.118790056 -0.034945446 6.079588067 0.047819526 -0.056469882 0.038039849 5.042400450
9.998615851 -0.102807579 -0.154184934 -0.061436773 6.124364259 0.035439786 -0.073295739 0.028191917 4.945459914
10.083504646 -0.056472336 -0.072296315 -0.033747299 6.174733116 0.050323460 -0.034367896 0.040031699 4.997471728
10.370393174 -0.000900823 -0.009343357 -0.000538322 6.182858924 0.009873320 -0.004441603 0.007854105 4.946198271
10.151592371 -0.089593583 -0.136412427 -0.053540222 6.113014667 0.064714781 -0.064847125 0.051479819 4.987336308
10.184549321 -0.021373872 -0.111787338 -0.012772810 6.029415980 0.046192887 -0.053140961 0.036745878 4.971813004
10.179729969 -0.017060954 -0.109409162 -0.010195454 6.066785561 0.058856704 -0.052010434 0.046819790 5.008039614
9.980900620 -0.120705740 -0.185380647 -0.072132534 6.076768294 0.026835435 -0.088125417 0.021347261 4.966072109
9.983779642 -0.063452053 -0.090402198 -0.037918307 6.142132822 0.055606481 -0.042974989 0.044234278 4.999518849
10.061862515 -0.055909189 -0.063087093 -0.033410768 6.165121995 0.011182126 -0.029990058 0.008895245 4.974843516
10.077413417 -0.084855748 -0.118157373 -0.050708940 6.062252705 0.043105730 -0.056169120 0.034290082 5.025401819
10.217042765 -0.017726366 -0.105090134 -0.010593098 6.038790809 0.040413978 -0.049957274 0.032148827 4.917682623
9.977610495 -0.074025680 -0.081765655 -0.044237000 6.208519066 0.008863981 -0.038869389 0.007051188 4.992382764
9.978129729 -0.129433712 -0.189970595 -0.077348282 6.019519731 0.020976541 -0.090307365 0.016686583 5.012817250
9.994436760 -0.105719410 -0.160314721 -0.063176854 6.117686212 0.033780559 -0.076209689 0.026872023 4.945819558
10.097721770 -0.057739086 -0.118769853 -0.034504296 6.077858359 0.048507156 -0.056460278 0.038586851 5.042780714
10.159844138 -0.030273237 -0.115199092 -0.018090982 6.034080849 0.053704948 -0.054762825 0.042721631 5.009044950
10.045422081 -0.057582590 -0.065908194 -0.034410776 6.060988995 0.062906354 -0.031331140 0.050041237 5.026691633
10.199831391 -0.018285160 -0.109942297 -0.010927027 6.028903715 0.042140461 -0.052263874 0.033522223 4.945981696
10.160466185 -0.031082864 -0.114903821 -0.018574806 6.082104478 0.059057179 -0.054622461 0.046979266 5.009891338
10.030157650 -0.099647129 -0.159609826 -0.059548120 6.022204213 0.036811280 -0.075874600 0.029282924 5.032217975
10.209325404 -0.050838877 -0.112778152 -0.030380800 6.100560700 0.059344021 -0.053611970 0.047207445 4.925247703
9.971810967 -0.072087475 -0.079572602 -0.043078749 6.211206261 0.012744400 -0.037826865 0.010138015 4.988548616
9.969855993 -0.109717567 -0.051519378 -0.065566112 6.112778259 0.008062426 -0.024491050 0.006413561 5.034770326
10.196581061 -0.003136357 -0.052634751 -0.001874255 6.111716555 0.054269963 -0.025021271 0.043171094 4.946709636
10.037779565 -0.126796765 -0.097690619 -0.075772469 6.097921535 0.042723426 -0.046439726 0.033985964 5.052848232
10.182779668 -0.040371220 -0.026389012 -0.024125434 6.156450012 0.046263794 -0.012544689 0.036802284 4.945403430
9.992397557 -0.069027835 -0.046833744 -0.041250339 6.155284322 -0.011289875 -0.022263614 -0.008980958 4.965984427
9.973648265 -0.072762747 -0.080202128 -0.043482285 6.210536330 0.011295910 -0.038126126 0.008985758 4.989774265
10.030226135 -0.073770343 -0.109361112 -0.044084414 6.149655341 0.018624406 -0.051987592 0.014815488 5.013177094
10.099611427 -0.050524998 -0.042848867 -0.030193230 6.030329377 0.059097248 -0.020369301 0.047011140 5.025421822
10.314208235 -0.005484526 -0.016795709 -0.003277497 6.127801210 0.024198327 -0.007984269 0.019249474 4.957834439
10.195342247 -0.008389004 -0.047743691 -0.005013184 6.123313496 0.052535188 -0.022696181 0.041791102 4.936872072
10.197702297 -0.000781809 -0.077309766 -0.000467201 6.075998117 0.057488825 -0.036751168 0.045731659 4.986412908
10.020814146 -0.103269816 -0.166386465 -0.061713001 6.015844334 0.034430553 -0.079096048 0.027389085 5.032155219
10.190190806 -0.026752912 -0.032866892 -0.015987271 6.151091184 0.049137251 -0.015624115 0.039088084 4.930624895
10.168295923 -0.025512998 -0.114415290 -0.015246310 6.074986128 0.059071131 -0.054390225 0.046990364 5.009233937
10.192894861 -0.005792572 -0.091162981 -0.003461583 6.068827927 0.057700165 -0.043336647 0.045899777 4.999709112
10.126356974 -0.044756266 -0.034184463 -0.026745893 6.026944675 0.055798416 -0.016250456 0.044386959 5.019694187
9.979371190 -0.124265451 -0.188296295 -0.074259781 6.066078097 0.025340591 -0.089511444 0.020158131 4.974779154
9.979847580 -0.117969043 -0.058530925 -0.070497111 6.105723844 0.016499313 -0.027824167 0.013125002 5.046917540
10.130896224 -0.032431228 -0.058447950 -0.019380575 6.159040153 0.050008069 -0.027784723 0.039780809 5.014425626
9.977156404 -0.116277732 -0.056748762 -0.069486401 6.107220555 0.014570660 -0.026976971 0.011590782 5.044862163
9.995679823 -0.062159536 -0.088586134 -0.037145912 6.123717203 0.058837271 -0.042111677 0.046804331 5.005961727
10.196804968 -0.002253945 -0.053789586 -0.001346935 6.108926066 0.054681677 -0.025570251 0.043498607 4.949478959
10.002178757 -0.065501035 -0.047528507 -0.039142758 6.158992623 -0.009355144 -0.022593888 -0.007441903 4.963377424
10.190389877 -0.025950327 -0.033511263 -0.015507654 6.150086352 0.049263417 -0.015930433 0.039188448 4.930478414
10.045126113 -0.074827133 -0.097253702 -0.044715940 6.167811166 0.048128211 -0.046232027 0.038285405 4.969064105
10.101443006 -0.055803292 -0.085550855 -0.033347485 6.146249095 0.033706214 -0.040668780 0.026812882 4.991830253
10.239807284 -0.017080002 -0.022023442 -0.010206837 6.066793119 0.040536546 -0.010469405 0.032246328 4.980280544
10.144130701 -0.036957970 -0.116187021 -0.022085711 6.041500428 0.056572789 -0.055232462 0.045002964 5.024781784
10.131684805 -0.042771010 -0.116621690 -0.025559525 6.050414490 0.056680166 -0.055439093 0.045088381 5.034067660
10.069211497 -0.122015619 -0.113945536 -0.072915304 6.102105323 0.050461988 -0.054166915 0.040141896 5.044708788
10.105717957 -0.054636086 -0.118460378 -0.032649975 6.071296934 0.051087922 -0.056313161 0.040639819 5.043357569
10.124507248 -0.046211626 -0.117031955 -0.027615602 6.056169120 0.055791599 -0.055634123 0.044381537 5.038220423
10.051763707 -0.069928225 -0.114395185 -0.041788402 6.126422496 0.029704172 -0.054380668 0.023629306 5.023687173
10.200296776 -0.058160483 -0.119237184 -0.034756118 6.104102512 0.061763867 -0.056682435 0.049132403 4.935073034
10.096945670 -0.078570605 -0.100119203 -0.046953002 6.078677421 0.043630212 -0.047594216 0.034707301 5.019828223
10.218019240 -0.017774609 -0.104620478 -0.010621927 6.039973537 0.040533330 -0.049734011 0.032243769 4.916006782
10.137388598 -0.096199725 -0.136431923 -0.057487986 6.112222619 0.064087596 -0.064856393 0.050980901 5.001609290
10.080926142 -0.057690523 -0.073493799 -0.034475275 6.174786097 0.050295664 -0.034937151 0.040009587 4.995834760
10.143864163 -0.042658383 -0.111155760 -0.025492220 6.098752841 0.057577484 -0.052840724 0.045802186 5.007833560
10.070463355 -0.062580182 -0.078923567 -0.037397286 6.174346182 0.050048023 -0.037518329 0.039812591 4.988633511
10.228441661 -0.026598564 -0.098377601 -0.015895034 6.072472149 0.049928478 -0.046766301 0.039717495 4.902133071
10.103743807 -0.055432332 -0.118567827 -0.033125803 6.072891539 0.050470857 -0.056364239 0.040148951 5.043359976
10.012369474 -0.107046692 -0.172142080 -0.063970024 6.010871177 0.031938265 -0.081832126 0.025406500 5.031768780
10.083492215 -0.053020435 -0.049606170 -0.031684478 6.036463388 0.060929888 -0.023581558 0.048468983 5.028318936
9.963244697 -0.064673748 -0.087187642 -0.038648380 6.191529775 0.039259026 -0.041446869 0.031230076 4.985164494
10.119240932 -0.053456761 -0.097963462 -0.031945222 6.129062738 0.045372568 -0.046569429 0.036093325 4.998983686
10.102578838 -0.076677668 -0.095080744 -0.045821802 6.083264515 0.043672262 -0.045199056 0.034740752 5.017927027
10.040135247 -0.096229156 -0.151791004 -0.057505574 6.029852151 0.038918534 -0.072157724 0.030959219 5.031776306
10.023533659 -0.127379444 -0.088671806 -0.076120672 6.096539747 0.038446403 -0.042152404 0.030583645 5.053975973
10.187365239 -0.020600929 -0.111441082 -0.012310908 6.029068586 0.045355240 -0.052976359 0.036079540 4.966945318
10.102998468 -0.055728144 -0.086664842 -0.033302577 6.145033431 0.034705996 -0.041198342 0.027608197 4.992595477
10.077272651 -0.119975630 -0.117616132 -0.071696227 6.103084513 0.052477352 -0.055911827 0.041745094 5.041539491
10.095008222 -0.055932611 -0.081042607 -0.033424764 6.150771188 0.029651431 -0.038525669 0.023587352 4.988502493
9.974725394 -0.114492009 -0.055099936 -0.068419271 6.108753746 0.012677380 -0.026193159 0.010084701 5.042431181
10.000119946 -0.101798194 -0.152039794 -0.060833575 6.126563531 0.036022412 -0.072275992 0.028655389 4.945530301
10.224730760 -0.018866460 -0.100640972 -0.011274406 6.051646597 0.043074530 -0.047842252 0.034265263 4.904656008
10.274794383 -0.010972955 -0.019468026 -0.006557327 6.092681271 0.033109347 -0.009254623 0.026338082 4.969272662
10.174365800 -0.021114088 -0.112586346 -0.012617566 6.070058839 0.059011994 -0.053520790 0.046943322 5.008623398
10.057384030 -0.056123942 -0.061264543 -0.033539102 6.166065279 0.009038684 -0.029123662 0.007190163 4.973594097
10.113164017 -0.106916700 -0.131793876 -0.063892343 6.108296056 0.061045557 -0.062651579 0.048560996 5.021919657
10.136489642 -0.047021327 -0.107900888 -0.028099471 6.107474590 0.055176050 -0.051293438 0.043891875 5.005063456
10.027386901 -0.084655295 -0.115986672 -0.050589151 6.156592569 0.044880203 -0.055137222 0.035701654 4.956337655
10.133982804 -0.048283650 -0.106632931 -0.028853822 6.110629550 0.054046049 -0.050690682 0.042992973 5.004067536
10.145092824 -0.041853382 -0.111617156 -0.025011159 6.097397815 0.057841908 -0.053060061 0.046012532 5.008217464
10.040270086 -0.126590631 -0.099144922 -0.075649285 6.098244859 0.043381413 -0.047131066 0.034509385 5.052482882
10.165724956 -0.027346796 -0.114774227 -0.016342170 6.077266559 0.059078359 -0.054560855 0.046996114 5.009488880
10.133467423 -0.041919062 -0.116545048 -0.025050409 6.049027431 0.056796033 -0.055402660 0.045180552 5.032890253
9.965317027 -0.095155793 -0.045715772 -0.056864143 6.126907954 -0.004345774 -0.021732158 -0.003457010 5.006689513
10.198432163 0.000290882 -0.072511513 0.000173828 6.079712872 0.057451705 -0.034470196 0.045702130 4.980855490
10.082600304 -0.118431597 -0.119973289 -0.070773529 6.103731392 0.053834369 -0.057032361 0.042824584 5.039229299
10.223124059 -0.037621827 -0.102465670 -0.022482425 6.088607110 0.054276355 -0.048709668 0.043176178 4.910005213
10.127758467 -0.100510609 -0.135284068 -0.060064127 6.110876091 0.063232875 -0.064310730 0.050300981 5.010409371
10.235538820 -0.017913860 -0.022373855 -0.010705142 6.064123707 0.041383765 -0.010635982 0.032920280 4.981724979
10.192937741 -0.019334539 -0.110810251 -0.011554126 6.028605495 0.043805534 -0.052676478 0.034846768 4.957415223
10.215939621 -0.045114951 -0.107818572 -0.026960240 6.096434774 0.057150554 -0.051254307 0.045462569 4.918029683
10.057596457 -0.056183315 -0.060684404 -0.033574583 6.051563614 0.062692776 -0.028847878 0.049871339 5.029231967
10.405929494 -0.000025447 -0.000093668 -0.000015207 6.218329119 0.000063876 -0.000044527 0.000050812 4.946869542
10.209084732 -0.017674379 -0.108023967 -0.010562031 6.032075963 0.040569558 -0.051351947 0.032272588 4.930965388
10.226879414 -0.031729733 -0.099671440 -0.018961369 6.080636507 0.052096947 -0.047381360 0.041442486 4.905203864
9.962768354 -0.064770188 -0.086271461 -0.038706012 6.194922169 0.037501258 -0.041011339 0.029831794 4.985021969
10.074667793 -0.085703480 -0.120742807 -0.051215536 6.059859223 0.042965029 -0.057398172 0.034178157 5.026078306
10.016582301 -0.076015225 -0.103347834 -0.045425932 6.163958193 0.012328864 -0.049129028 0.009807461 5.006334892
10.224632814 -0.035594220 -0.101351331 -0.021270747 6.086027685 0.053527987 -0.048179939 0.042580861 4.908199715
10.075386535 -0.054070287 -0.053113711 -0.032311859 6.040549938 0.061664794 -0.025248957 0.049053591 5.029314722
10.190368900 -0.008128996 -0.096109822 -0.004857806 6.067028085 0.057951879 -0.045688254 0.046100013 5.003133439
10.147567208 -0.040185379 -0.112466178 -0.024014378 6.094750406 0.058270179 -0.053463665 0.046353217 5.008883125
10.076738912 -0.055691684 -0.070031618 -0.033280789 6.160271106 0.018937887 -0.033291315 0.015064858 4.979818666
10.197406298 -0.000497931 -0.057061897 -0.000297558 6.101555737 0.055690380 -0.027125827 0.044301018 4.956926468
10.188130337 -0.028526932 -0.026218434 -0.017047407 6.040987575 0.049150105 -0.012463601 0.039098309 4.999599027
10.152947099 -0.033112954 -0.115769606 -0.019787968 6.036738096 0.055280261 -0.055034033 0.043974773 5.016610440
10.167257792 -0.081375844 -0.134070514 -0.048629384 6.111783146 0.064850296 -0.063733837 0.051587620 4.970670771
10.214653323 -0.022267845 -0.024118137 -0.013307040 6.052486824 0.045238643 -0.011465171 0.035986789 4.989214830
10.198702125 -0.059427304 -0.120301920 -0.035513158 6.104594245 0.062114048 -0.057188584 0.049410968 4.936803199
9.962387435 -0.066005880 -0.082002274 -0.039444449 6.205715258 0.029834221 -0.038981871 0.023732759 4.984619707
10.214958807 -0.017660376 -0.106005548 -0.010553662 6.036565697 0.040284392 -0.050392440 0.032045743 4.921226069
10.013715528 -0.093040981 -0.133391459 -0.055600353 6.143493291 0.040925988 -0.063411031 0.032556124 4.949127886
10.191030691 -0.007525856 -0.094892523 -0.004497375 6.067431543 0.057881213 -0.045109580 0.046043799 5.002369904
9.965303358 -0.099429930 -0.046687900 -0.059418324 6.122333299 -0.000930710 -0.022194283 -0.000740369 5.014976162
10.028148135 -0.127308606 -0.091721368 -0.076078340 6.096865633 0.039948499 -0.043602090 0.031778544 5.053782382
9.969250036 -0.085377213 -0.045319048 -0.051020562 6.138049454 -0.010448717 -0.021543565 -0.008311827 4.989423863
10.192225636 -0.019075943 -0.039161927 -0.011399591 6.140333503 0.050379788 -0.018616620 0.040076507 4.930791637
10.057379290 -0.068850284 -0.115262417 -0.041144236 6.119825018 0.032464057 -0.054792928 0.025824762 5.026353129
10.053154187 -0.125059179 -0.106143442 -0.074734105 6.100012884 0.046576906 -0.050457991 0.037051360 5.049784784
10.171283196 -0.048720636 -0.032131330 -0.029114961 6.148437921 0.044266359 -0.015274447 0.035213349 4.963531869
10.081250277 -0.063130383 -0.118199435 -0.037726080 6.092995985 0.042635451 -0.056189115 0.033915981 5.037652839
10.044454559 -0.071256892 -0.113100358 -0.042582400 6.134718082 0.025957235 -0.053765138 0.020648664 5.020228726
10.098305313 -0.049274221 -0.066311862 -0.029445778 6.173201302 0.050282806 -0.031523034 0.039999359 5.005576462
10.109611531 -0.053009114 -0.118201594 -0.031677712 6.068175043 0.052256477 -0.056190141 0.041569390 5.043055344
10.195535577 -0.003206147 -0.084824412 -0.001915961 6.071662475 0.057527902 -0.040323447 0.045762744 4.994199920
10.194027932 -0.004707714 -0.088635291 -0.002813283 6.069889742 0.057611012 -0.042135045 0.045828857 4.997649375
10.195060803 -0.003688351 -0.086094676 -0.002204122 6.071047000 0.057549108 -0.040927299 0.045779614 4.995392300
10.060030731 -0.067475343 -0.085438970 -0.040322585 6.172734413 0.049533556 -0.040615592 0.039403339 4.980768275
9.999973752 -0.077418434 -0.093375741 -0.046264476 6.184472765 0.006829618 -0.044388539 0.005432878 5.000409411
10.010184346 -0.076830728 -0.099707679 -0.045913268 6.171386474 0.009842747 -0.047398587 0.007829786 5.003590798
10.096925269 -0.050990867 -0.043925421 -0.030471628 6.031141386 0.059427092 -0.020881069 0.047273527 5.025951842
10.055121825 -0.056260815 -0.060383472 -0.033620896 6.166446133 0.007992077 -0.028704823 0.006357600 4.972984958
10.176544107 -0.031490874 -0.027129061 -0.018818629 6.036939549 0.050517424 -0.012896491 0.040185995 5.004121701
9.994116622 -0.062311437 -0.088974082 -0.037236687 6.126133880 0.058493684 -0.042296098 0.046531012 5.005235351
10.042651666 -0.071577832 -0.112734086 -0.042774191 6.136693954 0.025018175 -0.053591022 0.019901653 5.019365272
10.181657643 -0.015543813 -0.107783196 -0.009288826 6.066036105 0.058756896 -0.051237490 0.046740394 5.007730699
9.981253976 -0.119950879 -0.184587171 -0.071681436 6.078972847 0.027138109 -0.087748218 0.021588035 4.964361698
10.163400732 -0.053128263 -0.039105963 -0.031748915 6.140604864 0.043693760 -0.018590016 0.034757853 4.974419764
9.973611601 -0.113568807 -0.054323180 -0.067867574 6.109534601 0.011742585 -0.025823909 0.009341083 5.041074953
10.187161602 -0.035217494 -0.027234168 -0.021045620 6.157491522 0.047598481 -0.012946456 0.037864011 4.936718560