5.1507139405 0.1310589510 2.5250067819 2.6498489914 4.6783394790 4.9385796405 2.1851087414 1.5955426964 2.3583945466 7.3715992959 1.5773788130 0.0581717896 7.8305197281 4.4282020134 2.5567359790 0.9817596206 4.6180224436 2.1234253764 3.9279628307 1.6628461661 4.6776911009 9.0460352169 1.4526600442 2.8264981543 6.0663897395 4.5658988745 0.3163295442 1.2296737027 4.6510680041 3.6344013315 3.7721473237 1.5727368206 1.1948239428 8.7985670224 1.5139282822 1.3013632755 6.2172464530 4.5325616766 3.8055331403 4.5703822322 4.6749395608 0.7044820454 0.4522708647 1.5425940417 3.1767096851 5.4395483311 1.6218032223 4.3498971972 9.5810920569 4.4983226424 1.7431246076 1.6896013375 5.8250526955 1.3809546505 3.2719318278 0.4255524123 3.9307727276 8.2969243341 2.6616940813 3.5452309453 6.8060624325 3.3708875993 1.0548278851 8.3355321565 0.2310847915 3.5014368206 6.7996061017 5.7803778200 1.0073152732 1.7303972257 3.4222304850 1.4092310350 3.1939370761 2.8466787024 3.9825501267
5.1242445163 0.0963048976 2.5160072146 2.6057785005 4.7071060797 4.9787190806 2.1335158350 1.5999756006 2.3919992010 7.3187470237 1.5712249725 0.0176246076 7.7310442579 4.5120550091 2.4994751419 0.9872545810 4.6741291147 2.2174975738 3.9059668488 1.6786639073 4.6908199339 8.9059208080 1.5019710803 2.7597125817 6.0050268554 4.5889655391 0.2875980635 1.1351710144 4.6782563028 3.7465287484 3.7714329026 1.5642147895 1.2280472244 8.7778533652 1.5691107844 1.2252346378 6.1108240907 4.6080125697 3.7575092010 4.5153877790 4.6887731832 0.6982763475 0.4128497310 1.5535173575 3.2225825370 5.4121586627 1.5969030460 4.3145175251 9.4808140731 4.6528311617 1.7635508487 1.7497446798 5.8702415622 1.5195712876 3.2040520626 0.4558052418 3.9406253113 8.1663245017 2.7326285130 3.4409541566 6.7364752764 3.3814259179 0.9914528024 8.1196359005 0.3013164480 3.4114848563 6.7391557107 5.8115304785 0.9838474484 1.7295487344 3.4605458061 1.5194111544 3.1777114666 2.8847034364 4.0221410247
5.0852999436 0.0712701878 2.3934206615 2.8012847346 4.6558727099 4.8589426907 2.1538893601 1.6256838684 2.3734843257 7.3557207311 1.5761998254 0.0806376016 8.0460979323 4.6640714231 2.6251385886 1.0860122219 4.6836001427 2.1917849028 4.0014519282 1.6463911191 4.5822837899 9.0892467629 1.6049669990 2.7616019667 6.1765855414 4.5863808996 0.3245814645 1.2641742911 4.6718576969 3.7240307712 3.8236627325 1.5754445415 1.1625503675 8.8779554515 1.5789570077 1.2453840878 6.3769170507 4.6672131195 3.7406498308 4.6537047019 4.6831760864 0.6448609054 0.3968942229 1.5716138480 3.1577440135 5.5141873562 1.5653435398 4.2217225876 9.7689473383 4.6324660995 1.8299975557 1.7980801030 5.8957335967 1.4753679719 3.2507444715 0.4477550064 3.8452295139 8.3915957456 2.8346470722 3.4559612381 6.8523704561 3.3588239258 1.0011890963 8.3245618753 0.4151426817 3.4681079009 6.8836095793 5.7921127880 1.0681633891 1.8343808754 3.4722247753 1.5026085065 3.2937211606 2.8587476906 3.8865894850
4.9109442944 -0.0393956983 2.4861438780 2.6117987304 4.7003579786 4.9381170768 2.1574570534 1.6623860648 2.3619179705 7.2864989901 1.5777533870 0.0098585827 7.7222539529 4.5673654531 2.5114156702 0.9873729530 4.7376451907 2.1902358478 3.8919512761 1.6668982104 4.6446117432 8.9079237717 1.5183657232 2.7714344338 5.9895794815 4.6274495487 0.2770351847 1.1628340664 4.7459979023 3.7145328558 3.7555494319 1.5973471137 1.1903241012 8.7474243672 1.5510892330 1.2384521463 6.1521437480 4.6008512048 3.7335608738 4.4796303431 4.6904483419 0.6552513107 0.4445051075 1.5759082996 3.2081247820 5.4024314340 1.6013392302 4.2701883694 9.4586660126 4.6588200468 1.7305050825 1.7641346743 5.9297808322 1.5069925228 3.1748811408 0.4593075823 3.9303429465 8.1780974061 2.7348133704 3.4849344748 6.7115531452 3.4422376287 1.0065823357 8.1390542296 0.3164863225 3.4361494011 6.6835207420 5.8551568393 0.9924870734 1.7057653051 3.5049648793 1.5019835603 3.1705999472 2.8820412375 3.9787932765
4.9141182479 -0.1416505410 2.4600425488 2.6140856387 4.6426243885 4.8625170375 2.2076057834 1.6540314270 2.4518892108 7.2973000441 1.6000539610 0.0232088590 7.7974939320 4.5468725657 2.5131034246 1.0043254393 4.7124764088 2.1208497917 3.9299736607 1.5761133596 4.6530821502 8.9538100956 1.5138538072 2.7431156810 6.0373311407 4.5980827604 0.2819348953 1.1385207967 4.7054168442 3.6565850304 3.7880099175 1.5566122505 1.2184943794 8.7825720822 1.5678858643 1.2203353795 6.2112879368 4.5707533091 3.7174685858 4.5272532551 4.6199361012 0.6357363427 0.4393354663 1.5609972316 3.1568061709 5.4234839741 1.5703971574 4.2352727135 9.5238647776 4.5829931152 1.6668563745 1.7144661491 5.9350027711 1.4562474532 3.2294736581 0.3467455236 3.9310910621 8.2657077113 2.7473144511 3.4551211483 6.7677465655 3.4118861228 0.9976873440 8.1643773274 0.3156371073 3.3760708129 6.7274664415 5.8315698601 0.9853876345 1.8222183755 3.5258624247 1.4586568495 3.1716028381 2.7630950396 3.9266171155
4.9455512092 0.0608153803 2.3826055265 2.5397334969 4.5779515271 4.8122526888 2.0925414975 1.6352594834 2.3614714706 7.2964145652 1.4521054427 -0.0472744865 7.6943908486 4.4246345839 2.5098373556 0.8885839579 4.6102088114 2.0809762453 3.8469001159 1.5757869673 4.5827713316 8.9148909727 1.4178206659 2.7078204355 5.9732042291 4.4732951504 0.2424910402 1.0301470327 4.5733447418 3.6215872475 3.7311694242 1.5813669163 1.1254506225 8.8058207907 1.4748466662 1.1807131494 6.0492132805 4.5054984526 3.6901538222 4.4697503564 4.5573716249 0.6295330876 0.4217018462 1.5323739148 3.3118631160 5.3567913969 1.5145997987 4.2051679746 9.3730875377 4.5171419424 1.5051959426 1.7009139005 5.8001487419 1.4549239962 3.1467158427 0.3599087956 3.8540890852 8.1057309347 2.6024903385 3.3942824885 6.7135993034 3.2664210112 0.9198643006 8.1647788471 0.2059404452 3.3850199734 6.6881676104 5.6933791640 0.9725372213 1.6322873910 3.3776899844 1.4180231505 3.1420650641 2.7921544356 3.8652433441
5.0303819453 0.0628843761 2.5374579000 2.6364391822 4.6505415122 4.9719696556 2.1212445327 1.6141586796 2.3657444962 7.2362651732 1.5784055556 0.0687905095 7.7634136055 4.4128515111 2.5632017772 0.9935754225 4.5925732916 2.2009211776 3.8800883630 1.6317637316 4.7398366379 8.8979382534 1.3702222507 2.8132960168 5.9767609708 4.5819307499 0.2657822185 1.1487157350 4.6404974521 3.7237249349 3.7662774127 1.5660201538 1.2349891563 8.7218695579 1.4601123640 1.2829287351 6.1142572818 4.5267270486 3.7779585331 4.4866836001 4.5993902454 0.6895623806 0.4216355115 1.4962115437 3.2246629694 5.3776656434 1.5984553334 4.3380227761 9.4860887509 4.4276917958 1.7464648013 1.7387416917 5.7839642429 1.4542786328 3.2109731395 0.4109067965 3.9853348248 8.1327157410 2.5809121209 3.5138329376 6.7288822859 3.3863863087 0.9992355554 8.1740063572 0.1351756661 3.4469470844 6.6459069435 5.8215137027 0.9678420386 1.7473553931 3.3879437590 1.5121428259 3.1367103868 2.8285329222 4.0697119021
4.9536849472 -0.0647004173 2.3585594827 2.6076035417 4.6595776625 4.8514281836 2.1381071272 1.6689134071 2.3610803562 7.3297948127 1.5200097190 0.0091646945 7.7971531417 4.5823707440 2.5695246014 0.9567368384 4.7305270489 2.1291466206 3.8976209889 1.6038266142 4.5513711826 8.9783489372 1.5760089130 2.7901019848 6.0464541100 4.5364227371 0.3072804810 1.1244323945 4.7078234385 3.6567428273 3.7291023711 1.5625631044 1.1152014066 8.7444211887 1.5379051630 1.2689620462 6.2024525129 4.5935078491 3.7398176350 4.5187729678 4.6172640338 0.6129932387 0.4482703333 1.6431443661 3.2339841491 5.4129054625 1.5453551037 4.2204594358 9.4748439140 4.6786189521 1.7193687581 1.6896732119 5.9459444177 1.4481244986 3.2224687924 0.3664996586 3.8201029415 8.2782414412 2.7930719640 3.5090597117 6.7202411541 3.3389446649 1.0480796835 8.2228399607 0.3716919543 3.4549962577 6.7442570819 5.7756472577 1.0052498338 1.6605118804 3.4975514379 1.4239492544 3.1788947355 2.8082779974 3.8376664515
4.6753551859 -0.2800223897 2.3603348515 2.6144238897 4.6141760152 4.8945515943 2.1780774624 1.7432364056 2.3920700063 7.2704720665 1.5148378984 0.0114039253 7.8275766759 4.6038797924 2.6056660480 1.0059230857 4.7241675083 2.1268342419 3.9066304267 1.5872414084 4.6177852618 8.9402418898 1.5467674683 2.7922934990 6.0637098966 4.5763332675 0.2724212871 1.1932605262 4.6387245457 3.6501029552 3.7670183506 1.6102697609 1.1380122415 8.6961697807 1.5060501556 1.2757915155 6.2244500877 4.6873498140 3.7504764835 4.5298951786 4.5423360952 0.5656847371 0.4366942474 1.6217721039 3.1456010177 5.4123113646 1.5190064360 4.2313821315 9.5263954015 4.6521883885 1.7028443775 1.7816956127 5.9144222137 1.4542209678 3.1714971856 0.3774601136 3.9379727526 8.2275451257 2.7560827114 3.5104813695 6.8054762793 3.3680066291 0.9126706179 8.2621065880 0.3477729960 3.5509229383 6.7011590710 5.7819552173 1.0707163549 1.7341355814 3.4969682148 1.4327377284 3.2080121435 2.8076548702 3.9030341973
5.0795858850 0.1216261200 2.5344761689 2.6481918614 4.6608265441 4.9920068586 2.1211008896 1.5987044622 2.3571665569 7.2501729559 1.5601134471 0.0667569596 7.7563548825 4.3980686917 2.5809111569 0.9970027133 4.5723198448 2.2057663341 3.8734095939 1.6413421863 4.7350346330 8.9069263296 1.3472426229 2.8129087805 5.9883379993 4.5793262007 0.2700648757 1.1712460294 4.6286676240 3.7295714588 3.7584949263 1.5560028071 1.2179835788 8.7193452852 1.4402438947 1.2936981855 6.1199731390 4.5467856761 3.7976654914 4.4922230080 4.6166560964 0.6762512234 0.4071975438 1.5153343170 3.2492834571 5.3803542426 1.6154947709 4.3455328687 9.4914525671 4.4382703359 1.7699362115 1.7467240792 5.7635027864 1.4937286902 3.1878802397 0.4175186533 3.9895295784 8.1337086482 2.5500744058 3.5078106408 6.7400935944 3.3863703281 0.9799962156 8.1925080964 0.1144244094 3.4458003575 6.6647190782 5.8151497458 0.9567734719 1.7273241517 3.3664606532 1.4947780930 3.1274994610 2.8508167225 4.0714297876
5.6021948468 0.8436958125 2.3107906801 2.8334590250 4.6583355778 4.9027393138 2.1865732322 1.5643714848 2.4653699541 7.5664606966 1.5828269381 -0.0011516560 8.0898319622 4.6291641071 2.5460539296 1.1014837110 4.6101210886 2.1903352517 4.0204790784 1.6407491289 4.6983500522 9.2251308979 1.5559603375 2.7361550539 6.2419684484 4.6296970756 0.2981563289 1.3756969596 4.6690654644 3.7012211701 3.7891543033 1.6002754394 1.2590106202 9.0311650970 1.5813975833 1.2100761512 6.4762828532 4.6314776412 3.7216010452 4.7181620406 4.7155235805 0.6295270071 0.3752623795 1.4899301737 3.0864687414 5.5561725840 1.6016094734 4.3975967212 9.9327302715 4.5806415017 1.9165764640 1.8131507804 5.8002906531 1.4366144391 3.3281816333 0.4131676483 3.9477879221 8.4605434808 2.7528276439 3.4442470928 6.9478960270 3.4265441355 1.0339692419 8.4448685245 0.3420993628 3.4199016359 6.9823906169 5.8673639858 0.9677921628 1.8540199771 3.3766890843 1.5535814048 3.2971907068 2.8306736134 3.9846079285
5.0374644600 0.0667237026 2.4089149219 2.8036859977 4.6337200798 4.8976275693 2.1540087732 1.6262688636 2.3633610924 7.3603536742 1.5598498922 0.0775472810 8.0485100672 4.6895503080 2.6230529646 1.0907214017 4.6697213449 2.2034273573 3.9841849328 1.6411668889 4.6015891088 9.0975552502 1.6154444452 2.7640984755 6.1871733649 4.5692266224 0.3052269768 1.2726148895 4.6328772048 3.7263033621 3.8292347993 1.6199464608 1.1777186893 8.8715961464 1.5671672666 1.2400500636 6.3544757405 4.6534011286 3.7351184148 4.6814755206 4.6552206074 0.6646379135 0.3969109776 1.5794730255 3.1729864880 5.4946252416 1.5323687106 4.2589977557 9.7902673479 4.6486941989 1.8088525174 1.8197395760 5.8928749638 1.5340633075 3.2297237136 0.4360766598 3.8903331028 8.3854575139 2.8488838134 3.4276157242 6.8683906221 3.3330250643 0.9731845987 8.3219750151 0.4376636624 3.4773679921 6.9068813535 5.7784656021 1.0664246698 1.8436800186 3.4659881524 1.4952902520 3.2946286552 2.8612491204 3.8808884028
5.0245854507 0.0257183919 2.5044212778 2.6039313454 4.7061900835 4.9575442420 2.1427418441 1.6296011244 2.3716161976 7.3029697761 1.5759375360 0.0132974746 7.7212021293 4.5371787568 2.5003611466 0.9894941147 4.7074885496 2.2031572501 3.9055544835 1.6766569817 4.6698963282 8.8973981769 1.5098738228 2.7655861746 5.9902321099 4.6096415893 0.2780708814 1.1474339606 4.7143516809 3.7311679032 3.7607745323 1.5745887544 1.2087636290 8.7688720053 1.5592102882 1.2342668973 6.1223365910 4.6011269983 3.7446651351 4.5004732637 4.6951531695 0.6774127243 0.4247094029 1.5633593386 3.2105349484 5.4035953987 1.5944085274 4.2903996956 9.4649267237 4.6581515634 1.7474306049 1.7558919690 5.8941571911 1.5171559180 3.1897476528 0.4622830495 3.9374153343 8.1641751739 2.7280874468 3.4621138501 6.7256516018 3.4151088368 1.0062890286 8.1301290381 0.3159398814 3.4152671950 6.7011116526 5.8295838658 0.9854097380 1.7134340665 3.4884265020 1.5137064402 3.1658150279 2.8864557307 3.9952451032
4.9122107939 -0.1501909676 2.4585015076 2.6160083003 4.6433153740 4.8661095880 2.2134360325 1.6569201950 2.4595750681 7.3060474981 1.5952813741 0.0163037185 7.8012707827 4.5581671130 2.5170773797 1.0027153139 4.7199785811 2.1232574196 3.9333723770 1.5721734305 4.6535651092 8.9649514360 1.5267250683 2.7451678702 6.0454561085 4.5996593284 0.2810744797 1.1390040140 4.7051321589 3.6577936294 3.7924439046 1.5564646954 1.2212599243 8.7900573601 1.5695220648 1.2198244562 6.2205867162 4.5806876415 3.7158547717 4.5376514352 4.6223274649 0.6291576200 0.4406754102 1.5727317461 3.1616718857 5.4255966469 1.5655752631 4.2344520757 9.5317557839 4.5996937215 1.6703777509 1.7235548524 5.9413008169 1.4564566970 3.2303032168 0.3443623352 3.9278824175 8.2706422136 2.7563692692 3.4529293905 6.7696165849 3.4069543332 0.9983856871 8.1690475073 0.3289644544 3.3774779903 6.7312521057 5.8273772959 0.9935475392 1.8184778067 3.5310999312 1.4562559502 3.1751251391 2.7633776821 3.9260181615
5.2250698159 0.1966018500 2.5198058993 2.6240343152 4.6968735430 4.9987122871 2.1348483504 1.5653419646 2.4230989447 7.3302635287 1.5588331541 0.0214134088 7.7509819126 4.4830566188 2.5123450559 0.9876029814 4.6281261766 2.2282915290 3.9085542490 1.6601804642 4.7180145901 8.9246905306 1.4867125942 2.7577285013 6.0190609783 4.5668883386 0.2928433931 1.1407678074 4.6297145000 3.7572883965 3.7786732925 1.5590305397 1.2276896281 8.7957454345 1.5688380843 1.2293716407 6.1366266638 4.6018248249 3.7786890093 4.5343937594 4.6644491241 0.7277836391 0.3959002382 1.5382075461 3.2402567760 5.4190788156 1.6092825611 4.3489033311 9.5116629460 4.6233338279 1.7737229398 1.7383242779 5.8346079166 1.5273646501 3.2188713674 0.4505518293 3.9490365861 8.1890675101 2.7187719427 3.4296426472 6.7466832201 3.3499963648 0.9752357409 8.1295722850 0.3089615838 3.4038647169 6.7981463439 5.7605862315 0.9922123637 1.7341615057 3.4263941231 1.5337943944 3.1958223087 2.8839657968 4.0573722180
4.9070143574 -0.1740757518 2.4542159755 2.6339483969 4.6377879380 4.9074312059 2.2235249773 1.6712429248 2.4783836617 7.3573342846 1.5486456511 -0.0303769964 7.8369825180 4.6195312601 2.5319581351 1.0014167984 4.7496908561 2.1410387453 3.9573611225 1.5661853558 4.6630316736 9.0208934242 1.5950026797 2.7375049978 6.0870289489 4.5709435392 0.2767951894 1.1596365852 4.6828880897 3.6765024973 3.8107364257 1.5533658835 1.2054358226 8.8413345588 1.5696074937 1.2155951990 6.2676517780 4.6467013147 3.7318049752 4.5611088497 4.6236714805 0.5776694147 0.4387006372 1.6415375243 3.1919679756 5.4520617707 1.5065437745 4.2586331542 9.5703778830 4.6964656956 1.7220821317 1.7753013716 5.9396828065 1.4823846681 3.2318327279 0.3555699423 3.9435853709 8.2775449306 2.8042772049 3.4479848470 6.7888369233 3.3641905678 0.9670344724 8.2371702163 0.4096530350 3.4357139468 6.7640396671 5.7959207905 1.0305008003 1.7468683120 3.5188876597 1.4780733705 3.2045194935 2.7737216509 3.9921984147
5.1329507599 0.1364289638 2.5200257464 2.6262582941 4.6623999243 4.9452583359 2.1716302084 1.5940920615 2.3483525976 7.3600005218 1.5616517811 0.0532009994 7.8054900721 4.4067245522 2.5356621203 0.9692445079 4.5987570031 2.1172362813 3.9061873699 1.6547957295 4.6893562613 9.0263254038 1.4377623246 2.8079683586 6.0422809289 4.5502611081 0.2970835244 1.2148189640 4.6152673916 3.6285764265 3.7671642554 1.5921910121 1.1974090719 8.8043224270 1.4812359199 1.2851236336 6.1785138541 4.5179063651 3.7955826540 4.5545266226 4.6476345283 0.6968319236 0.4552345348 1.5337702407 3.1714076202 5.4171095973 1.6096525355 4.3485633775 9.5521099002 4.4786645668 1.7269554507 1.6697733173 5.8146572454 1.3936157738 3.2465750572 0.4129141454 3.9589451383 8.2739836157 2.6421218869 3.5352167460 6.7928937300 3.3541412719 1.0365939274 8.3066591668 0.2251775188 3.4890068521 6.7668672551 5.7736719167 1.0010263372 1.7167626713 3.4055853721 1.3964950042 3.1883731203 2.8586395903 3.9858411749
4.9189119474 -0.0349828924 2.4875321580 2.6110357903 4.7009528971 4.9392341092 2.1563576112 1.6600638850 2.3621361414 7.2876339633 1.5777694808 0.0099681201 7.7217510900 4.5652032090 2.5102595559 0.9873275541 4.7356748153 2.1912521541 3.8926825153 1.6675727638 4.6464528610 8.9067628486 1.5178559795 2.7708831830 5.9893260542 4.6263189624 0.2767416172 1.1619627909 4.7441260826 3.7154978848 3.7557034941 1.5955488135 1.1906661965 8.7493829556 1.5514699091 1.2380163670 6.1502158285 4.6002093072 3.7336428225 4.4800633952 4.6910057830 0.6570783768 0.4427067285 1.5749647692 3.2079608944 5.4029058574 1.6008397676 4.2712750761 9.4591955607 4.6587191213 1.7314300974 1.7637864791 5.9274366110 1.5079050641 3.1759612684 0.4603820126 3.9312115088 8.1765049255 2.7338843726 3.4835809935 6.7123050547 3.4414396434 1.0068151006 8.1384072538 0.3170911776 3.4340187619 6.6843104632 5.8529835233 0.9919481433 1.7057316822 3.5040725981 1.5030630941 3.1699214240 2.8823981611 3.9798761050
5.0787190747 0.1439721832 2.4905477104 2.5738481893 4.6084529345 4.9360114484 2.1336557950 1.5937881994 2.3257268321 7.3246215856 1.5125628268 0.0324592981 7.7508258388 4.3664342623 2.4934248263 0.9410562484 4.5530709634 2.1110698376 3.8749065141 1.6409740616 4.6954496481 8.9679294606 1.3857256251 2.7591397707 5.9930936165 4.5129080282 0.2500581952 1.1757790601 4.5295773855 3.6235585566 3.7604320589 1.6123866384 1.2009320406 8.8027289078 1.4271895384 1.2213309468 6.1072101599 4.5043818242 3.7564185422 4.4979830243 4.5551538372 0.6697964619 0.4465669020 1.5241745302 3.2087879040 5.3818996502 1.5699395771 4.3310369747 9.4603731188 4.4275792809 1.6572645413 1.6443299518 5.7875865900 1.4163563408 3.1632935173 0.4041056823 3.9965305937 8.2362599005 2.6042679515 3.4722193167 6.7346947578 3.3168530940 0.9676122778 8.2185539492 0.1887217057 3.4402620115 6.6898353309 5.7285226924 0.9757431319 1.6750726961 3.3703572418 1.3674692160 3.1828711352 2.8395650388 3.9965212890
5.1779548124 0.1171056618 2.5173310712 2.6967952470 4.7043177671 4.9086922125 2.2024242635 1.6016679894 2.3762204096 7.3847493286 1.6002419640 0.0652719670 7.8833362054 4.4803793672 2.5951850695 1.0027117052 4.6565121318 2.1250946865 3.9739507045 1.6625496003 4.6467421777 9.0753177781 1.4726089982 2.8383286042 6.1083211342 4.5975530466 0.3483517812 1.2540101917 4.7220525480 3.6453065429 3.7827604535 1.5337496526 1.1797054132 8.8002775296 1.5795305736 1.3362980564 6.2942120246 4.5781359513 3.8076285633 4.5977720803 4.7044283401 0.7026708720 0.4381429718 1.5688413915 3.1873062112 5.5003306104 1.6445729821 4.3317641226 9.6378328109 4.5414725327 1.7739536429 1.7231185474 5.8538563947 1.3761604961 3.3059394865 0.4436237827 3.8624686859 8.3460366120 2.6965774813 3.5546843274 6.8085662172 3.3926659856 1.0761617135 8.3686930408 0.2484925939 3.5119211425 6.8615751511 5.8075439330 1.0279225403 1.7565518998 3.4439739272 1.4407832376 3.2037136903 2.8506564925 3.9717374692
5.1361937575 0.1219969691 2.4107853626 2.7260227056 4.5330063756 4.8071924610 2.1474960613 1.5969708273 2.3063737979 7.4643959656 1.5405207605 0.0383000101 7.9864094982 4.6149342687 2.5029272373 1.0092561757 4.6390309483 2.0892992839 3.9891303448 1.6006830796 4.5414733415 9.1605761160 1.5909759610 2.7529567231 6.1562430922 4.4825911169 0.3181330173 1.2002293211 4.6545420850 3.6171370731 3.8241806440 1.5477957194 1.1517245017 8.9566211124 1.5733944059 1.2320418274 6.3566978505 4.5606713129 3.7165923808 4.6539550895 4.6276744667 0.6752072745 0.4421337165 1.5473563767 3.2005623687 5.5024199164 1.5432553630 4.2068604448 9.7180042103 4.5836097198 1.6630434888 1.7396477588 5.8428478206 1.3744662265 3.2594041919 0.4104860434 3.8000335321 8.4528129094 2.8145341575 3.4602318442 6.8377542289 3.2563865913 1.0303357373 8.3670690223 0.3974561776 3.4318540049 6.9285665503 5.6815966495 1.0452149205 1.7789828856 3.4290639386 1.4018352402 3.2601290948 2.8294095806 3.8715873523
5.6443592683 0.8920984081 2.3074541409 2.8772757508 4.6758932639 4.9041899515 2.1891851217 1.5739667765 2.4342124145 7.5819697682 1.6158088782 0.0146784326 8.1412518748 4.6542834050 2.5341247265 1.1062556790 4.6698968301 2.1898972802 4.0404902665 1.6062782219 4.6657005775 9.2708487480 1.5591572325 2.7568267951 6.2933799435 4.6649300000 0.3028429352 1.3820346104 4.6882026353 3.7092864097 3.7857967866 1.5739324804 1.2537783472 9.0698103677 1.5697398727 1.2314530854 6.5412624202 4.6916239502 3.7214402875 4.7853288972 4.7131248170 0.6008168038 0.3703911803 1.5351775251 3.0906966883 5.5726813338 1.5844632166 4.4246657659 9.9804050412 4.6658647704 1.9265876124 1.8235914696 5.8748528128 1.4674796582 3.3755426822 0.3946595908 3.9293584895 8.5156410312 2.7690539881 3.4454408545 7.0165423984 3.4431967925 1.0105085970 8.4995332198 0.3735734721 3.4344776627 7.0207884347 5.8930321821 1.0018853435 1.8276914779 3.4481058642 1.5129226268 3.3249220348 2.8130583533 3.9590555483
4.9602623726 0.0887045319 2.4037907643 2.5390858852 4.5633223648 4.8396821771 2.0876803087 1.6248920875 2.3494101071 7.2923650923 1.4491834684 -0.0345264688 7.6912531277 4.3930460802 2.5056245053 0.8860815488 4.5852293041 2.0790586977 3.8480191647 1.5871445985 4.6222282386 8.9233045897 1.3998298761 2.7125361021 5.9586605665 4.4641967665 0.2319943813 1.0374396298 4.5400291782 3.6136451846 3.7647170842 1.5709889960 1.1416085470 8.7927045701 1.4398805643 1.1818593502 6.0347633187 4.5151221134 3.7056128504 4.4669673118 4.5356708187 0.6239215449 0.4250494257 1.5006398733 3.3301214238 5.3444564167 1.5044926330 4.2381243917 9.3794579215 4.4777119754 1.5071489597 1.6899471368 5.7869719413 1.4567110975 3.1362542794 0.3738037578 3.8926556552 8.0990041468 2.5806346341 3.3919846978 6.7119796335 3.2543951730 0.9130166885 8.1658101788 0.1773758489 3.3636457619 6.6606693442 5.6799676911 0.9694677613 1.6291025459 3.3560408405 1.4039836978 3.1547712061 2.8033971642 3.8979127869
5.1519191616 0.1499331137 2.3999560057 2.7272126305 4.5374722270 4.8079861571 2.1489979762 1.5939951262 2.3082396916 7.4677631193 1.5442065378 0.0330852196 7.9889852797 4.6073543673 2.5057377154 1.0054648914 4.6435419653 2.0865158948 3.9936442405 1.6079604488 4.5382204784 9.1639119595 1.5913804917 2.7503147608 6.1553641396 4.4934786028 0.3254143851 1.1996068898 4.6689368852 3.6133623160 3.8215779174 1.5500871022 1.1492855754 8.9609224896 1.5758852060 1.2307153222 6.3559748638 4.5668160710 3.7162853161 4.6544264518 4.6351113033 0.6691176725 0.4407117523 1.5425510993 3.1988449655 5.5035302479 1.5547690880 4.2073578908 9.7204790577 4.5714048545 1.6587199882 1.7366022994 5.8439618372 1.3713624509 3.2664179054 0.4160822547 3.7890599287 8.4584746009 2.8128230148 3.4697890762 6.8332142538 3.2657372406 1.0352929201 8.3602662855 0.3942742353 3.4213665288 6.9357129267 5.6952693640 1.0489005885 1.7777928437 3.4279326427 1.4085952460 3.2749177881 2.8397598744 3.8659930520
4.9790147327 -0.0877658116 2.4382693077 2.6828583748 4.6659396656 4.9631745215 2.1832448917 1.6649196251 2.3272149117 7.3353943687 1.5636394059 0.0719362000 7.8839794492 4.6487364059 2.6125813554 1.0105869445 4.7650471273 2.1773557198 3.9636962162 1.6202373853 4.6319961266 9.0391962782 1.6214119750 2.8659876475 6.0915048645 4.5607744154 0.3172467816 1.2715962879 4.7088268121 3.6837767911 3.7828491051 1.5423077444 1.1631746207 8.8067478747 1.6098184960 1.3385855019 6.3108820626 4.6595474619 3.8047790119 4.5579241061 4.6042083051 0.6151932140 0.4607052327 1.6377326633 3.1990219569 5.4879669865 1.5515605654 4.2935211884 9.5987078829 4.6972531830 1.7921354690 1.7219857407 5.9697798432 1.4645060309 3.2401455446 0.4249697949 3.8997373021 8.3718229018 2.8534788468 3.5939238510 6.7705846563 3.3534609345 1.0287995377 8.2677520759 0.4424514625 3.5808708255 6.7596881230 5.7834628276 1.0876405932 1.7344951448 3.5550981284 1.4398053767 3.2565981160 2.8427910189 3.9491795968
5.5135196273 0.7131422429 2.3562653089 2.7908042702 4.6275423550 4.9548612526 2.1844547201 1.5361722396 2.5075995235 7.4735031958 1.5357228624 0.0011977583 7.9753311969 4.5469703443 2.5725531944 1.0720403872 4.5299320367 2.2159546148 3.9744849097 1.6355369925 4.7426096175 9.1290622386 1.5085516498 2.7370461627 6.1493682233 4.5591436085 0.2997295930 1.2768810624 4.6372446324 3.7388357767 3.7807245520 1.5729698292 1.2764846925 8.9471686118 1.5634954979 1.2157218300 6.3577766306 4.5706108240 3.7578600701 4.6489778418 4.6663870389 0.6685053625 0.3820833223 1.4760930622 3.1508818561 5.4930782822 1.6333917173 4.4255728795 9.7880403352 4.4667197993 1.9013583206 1.7939414162 5.7201061948 1.4591496549 3.2645771660 0.4495197229 3.9703343765 8.3954336129 2.7081429914 3.4645457301 6.8538495503 3.3717726521 1.0539514707 8.3199695136 0.3249318256 3.3929694522 6.9419006990 5.7578920557 0.9927948033 1.8060900427 3.3158798683 1.5341122732 3.2651196085 2.8505160050 4.0551567832
4.8492782516 -0.2256749261 2.4592505558 2.6783219100 4.6200399366 4.9212343340 2.1704905610 1.6854866483 2.3728795016 7.3307156063 1.5002469231 0.0581427639 7.9187649366 4.6308231399 2.6327865481 1.0072667857 4.6638215973 2.1588237137 3.9532602491 1.5697159710 4.6864301396 9.0333290817 1.5927463463 2.8164798478 6.1052910283 4.4918885387 0.2610675335 1.2054370909 4.5833132087 3.6847223551 3.7972332712 1.5344889043 1.1707843135 8.7886645210 1.5038996087 1.3024570655 6.2836560217 4.6401860513 3.7877456337 4.5891415039 4.4793300817 0.5989691307 0.4339691758 1.6944351521 3.2315455207 5.4548018289 1.4705062522 4.3378019317 9.6100056079 4.6881048997 1.7253387633 1.8077445430 5.8672235859 1.5311137556 3.2294140454 0.3448981858 3.9925707911 8.2744957167 2.8016191822 3.4953325713 6.8528008177 3.2968492406 0.9359413917 8.3232742468 0.3797215708 3.5607860480 6.7455599942 5.7133211760 1.0683968894 1.6969922674 3.4555624631 1.3834146425 3.2344417854 2.7517006329 3.9321678118
4.9083897855 -0.0507353379 2.4473735206 2.7192749454 4.5755366136 4.9937407009 2.1579662069 1.6534945908 2.3801965263 7.3980266208 1.4899148795 -0.0170147651 7.9522619147 4.7099336300 2.5357954235 1.0499168751 4.6743859502 2.2213086135 3.9460700289 1.5998962091 4.6933495361 9.0780267613 1.6361680582 2.7348949469 6.1596889822 4.4972148643 0.2486003811 1.2337561133 4.5743791898 3.7447663627 3.8023259835 1.5984192571 1.2085613119 8.8560893589 1.5384784814 1.2214479867 6.2916014574 4.6925234724 3.7369031834 4.6576622379 4.5768265548 0.6580868119 0.4170545837 1.6866435444 3.1666547318 5.4499502718 1.4607154471 4.3405448816 9.7148343494 4.7480837737 1.7858032727 1.8857530503 5.8419162472 1.5660787539 3.1665610083 0.4015170236 4.0143059302 8.3298673593 2.8431583015 3.4102275867 6.8554793233 3.2484664879 0.8508557893 8.3670915004 0.4245773127 3.4839725977 6.8895377808 5.6805040966 1.0336613139 1.7093014668 3.4460619851 1.4592119256 3.2962789358 2.8310563948 3.9749866970
5.1729688426 0.2304214097 2.4861085243 2.6503977170 4.6874724837 4.9809796076 2.1284347994 1.5549383118 2.3678102250 7.2994940253 1.5429288170 0.0414003627 7.7723173605 4.3950024807 2.5937370335 0.9843841787 4.5834981778 2.2037885404 3.8766807686 1.6674098072 4.6865322974 8.9585824283 1.3621408858 2.7803779891 6.0391295153 4.5942679588 0.2602653713 1.2283037500 4.5850605639 3.7208272354 3.7387012396 1.5467264404 1.1673888684 8.7749088106 1.4566942301 1.2591505928 6.1405361284 4.5934840830 3.7729292719 4.5483276420 4.6668735733 0.6695843564 0.3974316089 1.5495008433 3.2217404246 5.3880763890 1.6409832484 4.3256941816 9.5366417980 4.4828931068 1.7998613586 1.7504946424 5.7980297006 1.5216237303 3.1836964212 0.4424405314 3.9523556712 8.1628570395 2.5523420866 3.4995096150 6.7952386907 3.3978546801 0.9903386807 8.2492450706 0.1350231494 3.4436792950 6.7360528140 5.8150390129 0.9601492086 1.6800594796 3.3800277638 1.4606318384 3.1469122807 2.8733305908 4.0194807263
4.9361302941 -0.0267096671 2.3414905742 2.5652855896 4.6289673395 4.7909900483 2.1181902650 1.6594241775 2.3708365917 7.3183929449 1.4863273027 -0.0322265515 7.7402319065 4.5243225326 2.5320011343 0.9218310610 4.6893027264 2.1031558991 3.8698291417 1.5858107781 4.5277516371 8.9295418800 1.5007790847 2.7304199405 6.0107625841 4.5140546627 0.2788383487 1.0632164663 4.6642478540 3.6432581048 3.6887816188 1.5770848599 1.0958735995 8.7574635960 1.5334324132 1.2122893975 6.1367979664 4.5373992509 3.6925828837 4.5045925929 4.6097778321 0.6274188967 0.4284723825 1.6304283759 3.2520798485 5.3765209761 1.5287301893 4.1722502342 9.4153813755 4.6247706846 1.6163838259 1.6954049701 5.8725118768 1.4342191663 3.1979977400 0.3547283833 3.7978657334 8.2107004839 2.7229658560 3.4283861754 6.7143856608 3.3100378101 0.9972927690 8.1801426346 0.2954099753 3.4276189693 6.7370918918 5.7439960913 0.9693584239 1.6403473462 3.4573269470 1.4203244168 3.1275432935 2.7757199101 3.7942014194