-28927.8608237871
-28927.8694957786
-28927.8693643477
-28927.8896023959
-28927.8378807927
-28927.8556494091
-28927.8303772574
-28927.8535980799
-28927.7825070155
-28927.8164757849
-28927.4838414139
-28927.8580914935
-28927.8913538557
-28927.8359856568
-28927.8449331634
-28927.8502861841
-28927.8454388867
-28927.8906556119
-28927.8124645568
-28927.8481698198
-28927.8519870308
-28927.4631419969
-28927.8403811094
-28927.8488109197
-28927.8273279513
-28927.6046573113
-28927.8089925221
-28927.8040683526
-28927.801372114
-28927.8385156339
-28927.8071943948
-28927.702374293
-28927.8331339052
-28927.8140728848
-28927.8110638516
-28927.8235735986
-28927.812273397
-28927.8211711068
-28927.8428257789
-28927.8391527882
-28927.8384500545
-28927.8193929798
-28927.7950547224
-28927.7903542303
-28927.8024454665
-28927.7838324813
-28927.8426525785
-28927.8378631053
-28927.8464214893
-28927.7668622465
-28927.8554349835
-28927.7861285767
-28927.8047150308
-28927.8436082418
-28927.8437102845
-28927.8500241386
-28927.8363814462
-28927.8152968523
-28927.8522466273
-28927.8016465407
-28927.8066414597
-28927.8255809814
-28927.838561349
-28927.8493482082
-28927.836134367
-28927.8554699501
-28927.4494973997
-28927.8020532146
-28927.8556533547
-28927.7975108206
-28927.8423859071
-28927.8474981071
-28927.8303382091
-28927.8544042168
-28927.8013096639
-28927.8624371492
-28927.8667312395
-28927.8532379375
-28927.819125492
-28927.8159852999
-28927.463395879
-28927.7298339667
-28927.8264737864
-28927.8825109768
-28927.8605007881
-28927.8457384839
-28927.4541717688
-28927.4780965495
-28927.4737415058
-28927.8267532472
-28927.6111336173
-28927.5666956815
-28927.5424978347
-28927.8811290474
-28927.7930903336
-28927.8513059302
-28927.8182826198
-28927.7823457881
-28927.7085371241
-28927.7965571981
-28927.7963932496
-28927.8196144803
-28927.8101811147
-28927.8515702887
-28927.8070188814
-28927.7931054359
-28927.8395994628
-28927.7977335457
-28927.853904616
-28927.8408651997
-28927.8097517193
-28927.8359708266
-28927.8693853004
-28927.8368478491
-28927.7939596008
-28927.8464070673
-28927.8524615971
-28927.8408407094
-28927.8046233285
-28927.8400544369
-28927.8472112993
-28927.4617734011
-28927.8275195194
-28927.8661504128
-28927.798681998
-28927.8456911361
-28927.8784902248
-28927.85125763
-28927.8354962603
-28927.8551668154
-28927.8250779792
-28927.8257320045
-28927.8350984301
-28927.8050082333
-28927.8384959057
-28927.8122120353
-28927.8673558765
-28927.8020060029
-28927.8118652264
-28927.8404966217
-28927.8392204084
-28927.8386130506
-28927.8670142377
-28927.8003065168
-28927.8273437339
-28927.8517064816
-28927.8345348826
-28927.784523378
-28927.7566888677
-28927.537082364
-28927.8671468931
-28927.8141764241
-28927.8088123828
-28927.8244865401
-28927.8045391093
-28927.7936304793
-28927.7164150878
-28927.8533979403
-28927.8284931422
-28927.8111065734
-28927.8296513941
-28927.8619511542
-28927.8640106467
-28927.8446795535
-28927.8261778628
-28927.8564675189
-28927.8455481404
-28927.5899215381
-28927.8253846513
-28927.8180190777
-28927.8013257186
-28927.8068380619
-28927.8129027959
-28927.797897086
-28927.8403719936
-28927.8528591552
-28927.8543684338
-28927.8223195626
-28927.8498929798
-28927.8018227343
-28927.8574593733
-28927.829248938
-28927.8063832238
-28927.8034286133
-28927.775933973
-28927.8873494305
-28927.8322628693
-28927.8569646706
-28927.8144720756
-28927.8038268517
-28927.8680411948
-28927.8446739751
-28927.8011318376
-28927.8478815154
-28927.831266525
-28927.8414365024
-28927.8482925431
-28927.5442178654
-28927.8008039406
-28927.8493415414
-28927.8077760378
-28927.803892295
-28927.8530377978
-28927.8062271666
-28927.8015141573
-28927.8001284183
-28927.8046577509
-28927.8193388292
-28927.8533941307
-28927.8222903104
-28927.8012013627
-28927.827164411
-28927.8161527859
-28927.5975420823
-28927.869918099
-28927.834545223
-28927.7998633796
-28927.4812835451
-28927.8605149381
-28927.8262922866
-28927.8851170097
-28927.833245744
-28927.7827915103
-28927.8264374592
-28927.783948946
-28927.7918187462
-28927.8006482916
-28927.8508214318
-28927.856826709
-28927.6602106835
-28927.8306999843
-28927.8315198628
-28927.6263459976
-28927.8397732074
-28927.8768783593
-28927.8567110607
-28927.8481982557
-28927.7916620088
-28927.8515219885
-28927.8023122668
-28927.8558457391
-28927.8451764331
-28927.8018624629
-28927.8007730557
-28927.8383259707
-28927.8050954457
-28927.7927165854
-28927.8298183359
-28927.8076867845
-28927.8028358136
-28927.7967713516
-28927.8007461164
-28927.8591347774
-28927.7925368543
-28927.7852614864
-28927.760212604
-28927.8480879136
-28927.6756344962
-28927.8635537678
-28927.7915145231
-28927.7987234953
-28927.8436234802
-28927.8401685886
-28927.8323521226
-28927.8202706825
-28927.8013715698
-28927.8504123088
-28927.8197838711
-28927.8200512228
-28927.8561100976
-28927.7923108639
-28927.8209102858
-28927.821099949
-28927.8574468561
-28927.8687995757
-28927.8302863714
-28927.8122746215
-28927.8011095243
-28927.8443391392
-28927.7891125755
-28927.8529514017
-28927.8400770223
-28927.8267320223
-28927.8362523282
-28927.8501720324
-28927.8291232214
-28927.8383416172
-28927.8396515726
-28927.8046838738
-28927.795336224
-28927.8001473302
-28927.8373437763
-28927.8424010094
-28927.7990124801
-28927.8591739617
-28927.8337812637
-28927.7929900597
-28927.8247484495
-28927.6977022369
-28927.7442811633
-28927.8315448973
-28927.8488464305
-28927.8205906882
-28927.8316299328
-28927.8456284139
-28927.8199837386
-28927.6707969949
-28927.8266460344
-28927.804131619
-28927.8263452127
-28927.4448159556
-28927.8330457404
-28927.8360057932
-28927.8862175736
-28927.68702123
-28927.8473789213
-28927.8544247614
-28927.773026166
-28927.8274242796
-28927.8049003402
-28927.8490185424
-28927.8537673347
-28927.799244593
-28927.8071285432
-28927.7908259394
-28927.8270908042
-28927.8203129962
-28927.829512344
-28927.8373339802
-28927.8230496437
-28927.8452534412
-28927.8560411167
-28927.8030741852
-28927.4983189512
-28927.8936314474
-28927.8281396665
-28927.8209161362
-28927.8079179451
-28927.8016659968
-28927.8461707365
-28927.8497861752
-28927.8410843873
-28927.7913494862
-28927.8469801387
-28927.64431557
-28927.8404722675
-28927.8693228503
-28927.8068953418
-28927.8698304784
-28927.8059256646
-28927.8195188324
-28927.8545297972
-28927.8133819882
-28927.8623636785
-28927.8284765432
-28927.8377597021
-28927.7930409449
-28927.8423244094
-28927.851800769
-28927.8615120987
-28927.7952413924
-28927.8307918226
-28927.8247586538
-28927.859476144
-28927.8484617978
-28927.8050800713
-28927.8047431946
-28927.8287999504
-28927.8479994766
-28927.8080967238
-28927.8040701213
-28927.8292670335
-28927.8032482019
-28927.8576792412
-28927.8438443004
-28927.8791558149
-28927.8354246944
-28927.8179318653
-28927.800156446
-28927.820915728
-28927.8205241564
-28927.8673545159
-28927.4726752283
-28927.8172367508
-28927.8222716706
-28927.8011161911
-28927.8924402696
-28927.8153414789
-28927.8080078787
-28927.6917275725
-28927.8446851318
-28927.870061639
-28927.8550665415
-28927.8280876928
-28927.6217606097
-28927.8575074014
-28927.8330962175
-28927.852894666
-28927.8010763264
-28927.8671463489
-28927.8931147034
-28927.8147343933
-28927.8242126576
-28927.8095357971
-28927.8755552064
-28927.8289698854
-28927.7986896171
-28927.7871509079
-28927.8236850292
-28927.8294407781
-28927.854160675
-28927.8437946397
-28927.8087223132
-28927.8027326825
-28927.8487702387
-28927.8545726551
-28927.8258124141
-28927.8046310837
-28927.8206603493
-28927.803047382
-28927.8368086647
-28927.849594199
-28927.5543279778
-28927.8932171543
-28927.8085228538
-28927.8325126697
-28927.8302077306
-28927.852839563
-28927.8303122222
-28927.8458142676
-28927.8858575671
-28927.6494298109
-28927.889578722
-28927.8585950399
-28927.8740853843
-28927.8884882263
-28927.8454388867
-28927.855393078
-28927.8560091434
-28927.8271916223
-28927.8622959222
-28927.66560629
-28927.8663776277
-28927.8414544619
-28927.8030669742
-28927.8011330621
-28927.8589395358
-28927.4472421214
-28927.8517953267
-28927.8416807244
-28927.8579674096
-28927.8762899134
-28927.8408909144
-28927.8565575885
-28927.8256703707
-28927.834064262
-28927.7925658344
-28927.8262034414
-28927.8479473669
-28927.8503154363
-28927.8022072309
-28927.8271849556
-28927.8273460469
-28927.7977785805
-28927.8494690267
-28927.8403287275
-28927.8469798666
-28927.859447436
-28927.8528256852
-28927.8469476211
-28927.8300784766
-28927.8689635242
-28927.8319322512
-28927.5424537523
-28927.8183608525
-28927.8502459113
-28927.8255005718
-28927.8591855266
-28927.8343913427
-28927.8574566522
-28927.8569388198
-28927.8517441693
-28927.8050855136
-28927.8512483781
-28927.513836643
-28927.8088024507
-28927.8531882767
-28927.782812327
-28927.8399000124
-28927.8362443009
-28927.8329477795
-28927.8540723741
-28927.8116401884
-28927.8936190662
-28927.8596882566
-28927.8226222891
-28927.814527995
-28927.8388821711
-28927.8005352283
-28927.8283774938
-28927.8522586003
-28927.8011828589
-28927.8361040263
-28927.7700025746
-28927.8195856363
-28927.8613754976
-28927.8447809158
-28927.8129583071
-28927.8550359287
-28927.4518881907
-28927.8529753477
-28927.7986975084
-28927.8642988151
-28927.8009979577
-28927.4578608143
-28927.8036799103
-28927.8072716751
-28927.8372417337
-28927.8104888753
-28927.8408096885
-28927.8543180928
-28927.823584075
-28927.8261973189
-28927.8414792242
-28927.8003179455
-28927.8413558207
-28927.8683738538
-28927.8227720877
-28927.8523109821
-28927.828767841
-28927.8099578454
-28927.7992111231
-28927.6547688177
-28927.8106287418
-28927.7636012359
-28927.863963571
-28927.8820826699
-28927.7922616113
-28927.8468571433
-28927.8840616167
-28927.8366965539
-28927.8355441523
-28927.8386133228
-28927.8089451743
-28927.5429156653
-28927.8477623295
-28927.8415377287
-28927.8941002993
-28927.8150217453
-28927.5466032141
-28927.8172566151
-28927.8494193659
-28927.8048898638
-28927.7961079384
-28927.8740206212
-28927.7823501419
-28927.8280049702
-28927.7992082659
-28927.7347030332
-28927.8022680484
-28927.8378237849
-28927.8549357909
-28927.6350197578
-28927.5061265735
-28927.7530266255
-28927.8704215094
-28927.8042903974
-28927.8227875982
-28927.5426583818
-28927.8920750931
-28927.7832576411
-28927.7880637133
-28927.8531733105
-28927.8015787844
-28927.8940888705
-28927.8414013997
-28927.8653616912
-28927.8588704189
-28927.574166291
-28927.8121118975
-28927.8067957482
-28927.8341965092
-28927.8535628412
-28927.8484558113
-28927.8388697899
-28927.8028909166
-28927.8124044197
-28927.8578444142
-28927.8347580159
-28927.865344548
-28927.8043223707
-28927.5820265673
-28927.8503023749
-28927.7982543713
-28927.7967894472
-28927.8632745791
-28927.8210007636
-28927.8553941664
-28927.8505837404
-28927.4686494422
-28927.7832294773
-28927.7824942261
-28927.7915025501
-28927.7881675246
-28927.8230809367
-28927.7919048702
-28927.8539746853
-28927.797389594
-28927.7950575796
-28927.8704175637
-28927.8615923723
-28927.8022777084
-28927.8550114385
-28927.8544277546
-28927.8006243456
-28927.8655610145
-28927.8317780987
-28927.8276833318
-28927.4777539584
-28927.8522625459
-28927.8238638079
-28927.8365033531
-28927.8610641996
-28927.8589696044
-28927.8529097683
-28927.8446294845
-28927.8250653259
-28927.8385813494
-28927.8506155777
-28927.8380352172
-28927.8367274388
-28927.4907811296
-28927.8417830392
-28927.8359183087
-28927.8527637793
-28927.8482891417
-28927.8071254139
-28927.8043570652
-28927.8499271301
-28927.8616152298
-28927.8152941311
-28927.7861966051
-28927.8603225537
-28927.8370818669
-28927.4577960512
-28927.8465160488
-28927.838836592
-28927.85652752
-28927.8285102853
-28927.8830534355
-28927.8027373084
-28927.8000843359
-28927.8270276738
-28927.7952182627
-28927.8331298235
-28927.8530041918
-28927.8524162901
-28927.8476095377
-28927.8493735148
-28927.8277806124
-28927.8062773716
-28927.5499955196
-28927.8237233972
-28927.8105498288
-28927.8179964923
-28927.8581947606
-28927.8230391673
-28927.8388605381
-28927.8494154203
-28927.8520007725
-28927.8559111824
-28927.8589576314
-28927.7937723865
-28927.8223353452
-28927.8369283947
-28927.8521822724
-28927.7887201876
-28927.8196505354
-28927.8542059819
-28927.8013484401
-28927.8344823647
-28927.8112479365
-28927.8063479851
-28927.8096960721
-28927.8410754075
-28927.8025537677
-28927.4686094414
-28927.8361906945
-28927.8347261786
-28927.8011795936
-28927.8657457797
-28927.7950982606
-28927.7205638693
-28927.4604766433
-28927.7870664165
-28927.8391899317
-28927.8432384393
-28927.8058196764
-28927.8044524411
-28927.7917899022
-28927.8166715707
-28927.8560540421
-28927.846147879
-28927.6838033494
-28927.8493540586
-28927.8172479075
-28927.8005765896
-28927.8375935767
-28927.8149956224
-28927.449091134
-28927.8682924918
-28927.7996709952
-28927.8118577433
-28927.8398405555
-28927.8375948012
-28927.8204764005
-28927.8427625124
-28927.8939468271
-28927.8269797818
-28927.8354821104
-28927.864231467
-28927.8303059636
-28927.8369618647
-28927.8305369882
-28927.7487904955
-28927.8322808288
-28927.7940640924
-28927.8365315169
-28927.8017654544
-28927.8436682429
-28927.8467050318
-28927.8197714899
-28927.8317491186
-28927.7787243629
-28927.8682333071
-28927.7892374757
-28927.7837966983
-28927.8300573878
-28927.8379436509
-28927.819661556
-28927.870044904
-28927.8142483982
-28927.8393929285
-28927.8114792331
-28927.8051498685
-28927.8286208995
-28927.8272516234
-28927.8175439672
-28927.8428222414
-28927.8038210012
-28927.8557620641
-28927.8292960136
-28927.7122735173
-28927.8471932037
-28927.4561839136
-28927.8018904906
-28927.5599755616
-28927.820018161
-28927.8196671343
-28927.8801642683
-28927.8277528569
-28927.8054485133
-28927.8549209607
-28927.7917479967
-28927.8426007408
-28927.8507729955
-28927.7987713873
-28927.838412911
-28927.8506837422
-28927.7956763661
-28927.679997023
-28927.8031950037
-28927.8336476559
-28927.8916122277
-28927.8842748178
-28927.6956978474
-28927.8055490593
-28927.8259652059
-28927.8578993812
-28927.8926963286
-28927.8444268959
-28927.8247031426
-28927.8645875277
-28927.5425325292
-28927.8687714119
-28927.807709506
-28927.8012529282
-28927.8613950898
-28927.8540934629
-28927.7970072742
-28927.8547966047
-28927.6308282545
-28927.8112408615
-28927.8556854641
-28927.8717366349
-28927.8872612657
-28927.8022415173
-28927.7990503039
-28927.8522526138
-28927.8132904219
-28927.8484381239
-28927.7987068964
-28927.8091881718
-28927.8559488702
-28927.8323344352
-28927.8141572401
-28927.8605557551
-28927.8099476412
-28927.8217448585
-28927.8333326843
-28927.8517953267
-28927.7395563171
-28927.85310052
-28927.6937489691
-28927.8162145557
-28927.8561283292
-28927.8563231626
-28927.8344571942
-28927.8301190215
-28927.8053696003
-28927.8101155353
-28927.8326611077
-28927.8441224006
-28927.8197872725
-28927.8556215174
-28927.8041518915
-28927.8003092379
-28927.8368166921
-28927.8224013328
-28927.8271912142
-28927.8403462788
-28927.8530494987
-28927.8547221816
-28927.8297930293
-28927.8321676295
-28927.8598888044
-28927.8463252971
-28927.8415871173
-28927.8273306724
-28927.8351455058
-28927.8000422943
-28927.8148341229
-28927.4445530938
-28927.4592447845
-28927.861125153
-28927.8553547099
-28927.6998903031
-28927.8504929905
-28927.7992843216
-28927.8609020198
-28927.8274099936
-28927.831120536
-28927.8518505658
-28927.8513433458
-28927.8697659875
-28927.7941688562
-28927.8011172795
-28927.8509719106
-28927.8551816456
-28927.799019419
-28927.8628012374
-28927.4454107962
-28927.8530624241
-28927.7985687987
-28927.8428663238
-28927.8130781732
-28927.8112997741
-28927.8600829576
-28927.8353719044
-28927.7992215994
-28927.8505596584
-28927.8509076918
-28927.8471831355
-28927.8160002662
-28927.8137390013
-28927.8584599354
-28927.869506255
-28927.8583955805
-28927.8532614753
-28927.8706873645
-28927.8226109964
-28927.8414411283
-28927.8364104263
-28927.828104972
-28927.7983844416
-28927.8524524813
-28927.8162549646
-28927.7996601107
-28927.8939270989
-28927.817789958
-28927.8126974862
-28927.8805755681
-28927.8488865673
-28927.8245756573
-28927.8212449856
-28927.8884963897
-28927.8475259988
-28927.8437346386
-28927.8135875701
-28927.8406541755
-28927.8279461936
-28927.7902082413
-28927.7853161812
-28927.8555054609
-28927.7052400585
-28927.7250770111
-28927.8412698327
-28927.8552874978
-28927.8000637913
-28927.8483269655
-28927.8109506523
-28927.8529105847
-28927.8350493136
-28927.8246612371
-28927.8066552015
-28927.8371141123
-28927.842385771
-28927.4656104764
-28927.8123280918
-28927.7923252859
-28927.7915191491
-28927.8780704894
-28927.8308149523
-28927.6395041916
-28927.8219581956
-28927.4529959655
-28927.8430336737
-28927.7844791595
-28927.8484612536
-28927.7940741606
-28927.85776727
-28927.847954986
-28927.8409500991
-28927.8064351975
-28927.849357324
-28927.8368868974
-28927.8441002234
-28927.8041465853
-28927.8377958932
-28927.8059142359
-28927.8521194141
-28927.8352320379
-28927.8261852098
-28927.8510377621
-28927.8380311355
-28927.8485952696
-28927.8059939652
-28927.8463435287
-28927.8359408941
-28927.4463252343
-28927.8295901685
-28927.8532025627
-28927.8536137265
-28927.82182037
-28927.8271491726
-28927.8067462235
-28927.8063753325
-28927.7994356169
-28927.7863874929
-28927.8281070128
-28927.4831407211
-28927.5399991507
-28927.8183483353
-28927.8481473704
-28927.8381718183
-28927.5210796294
-28927.8626572892
-28927.8049993896
-28927.8597074407
-28927.8290419955
-28927.8457248782
-28927.8088802752
-28927.8650827747
-28927.8391585025
-28927.80338249
-28927.8006881562
-28927.833097306
-28927.836558184
-28927.8905258137
-28927.7813958392
-28927.872461954
-28927.5329111331
-28927.5275242342
-28927.8170643668
-28927.8587339539
-28927.8339596343
-28927.805447969
-28927.4830219435
-28927.8359675613
-28927.6169397073
-28927.6895163765
-28927.8315385026
-28927.8327232857
-28927.824826274
-28927.8388565924
-28927.836263757
-28927.8262611296
-28927.8384569934
-28927.8037672588
-28927.5417474812