-0.0575901099377961 -0.0351199654759286 -0.132259792236224 0.128168140780578 -0.148379829393106 -0.199908052541298 -0.184611539301246 0.12160334647261 0.119774521739419 -0.214846668406318 -0.263901234481821 0.01123237257401 0.278336685718294 0.363054491086854 0.218539541967801 -0.0132517159529619 0.0252117103454637 -0.131784395507464 0.129358303818669 -0.251071950559877 0.0774048204274435 -0.105847120224974 -0.219752844922381 -0.358271984568916 0.0621641000971487 0.00741917144678353 0.0548912243446131 0.00916186426859871 0.0211946208429496 0.174122729377087 0.0133334769912236 -0.0220561970668951 -0.0355454828291455 0.168270901607167 0.0558471600057977 0.203014200664689 0.0868947572898215 0.163380151702097 -0.11450376298356 -0.0954590974926341 -0.237204712828304 -0.0971696515415477 -0.0944995622888846 0.112185657571715 0.121668395348963 0.349294211191498 0.00643983875892664 -0.0857426465588457 -0.03812044131402 0.0331039645293584 0.0336338686169596 0.00300047583809134 0.0988719780645985 0.193653333114284 -0.179971214714624 -0.0791547123343886 -0.0784543441953175 0.127498368753309 -0.000119299125010658 -0.0439393589804881 -0.229184931993536 -0.0410581822674074 -0.13473884862276 -0.163297105112919 0.0339388012942498 -0.0359663721990646 0.0318166138420128 0.104502691076955 0.108370399563023 0.0080945998980831 -0.101341007153989 0.0887148402767837 -0.0187129933545813 0.252406352410751 0.0432639305291886
-0.311797004961585 0.185882177826682 -0.157390255763792 0.310701458470916 -0.107752820902946 -0.0814885014674096 0.296193502162777 0.111900008158165 0.176562447905591 -0.356984890991754 -0.158661922729962 -0.20356724466878 0.0227534798837678 0.212508251289999 0.331680106759967 0.0279627893058388 -0.0103008623802306 -0.085214542242527 -0.0680223556216484 -0.372113511282168 0.118358615960467 -0.0356773803531336 -0.101592718023354 0.0139621113891784 -0.12334886750644 0.15001042217504 -0.177648738429665 0.138556163512918 0.00817944625854327 -0.0470534775195594 -0.0558170781143618 0.0999230444935717 -0.336063064053193 0.0214069938542832 -0.0833733762205414 0.129026888792508 0.294479862791665 -0.0863160022674099 0.0752281256163654 -0.0342756156342584 -0.114879658071417 0.0395579443483618 -0.0863846506863277 0.00301821644073301 0.0489527504429511 -0.101385230105502 0.129619784874996 0.03744578419327 0.066174247624716 -0.148360031908998 -0.125485710239121 -0.0701707683125731 -0.0234121961731585 0.0726631944286363 -0.0530752551205824 0.078450230432386 0.0502329020451668 0.130511700100561 -0.173181191886162 0.07030497982821 -0.0739176350125307 0.139811375427362 -0.0276470580008537 0.183188434437164 0.332903179901509 -0.109899176712405 0.0736430413368596 -0.234874780348032 0.0676904263751209 -0.171847561365838 0.0737255737056708 0.0945229593155569 -0.0228678939152974 0.0888865898791697 0.0252682745857704
-0.0371547354658733 -0.0230195889233928 0.174627950887099 -0.210265993382201 0.0239773243558598 0.190944163113773 0.163738820407678 0.00764568551819385 -0.0784787696627226 0.24767321104799 0.0291051298498525 -0.255665481093154 -0.382908025214167 -0.0165414407471675 -0.15646491621441 -0.117614539090249 -0.00332160645692391 -0.0521077495011532 -0.109194951920585 -0.0520882091272291 -0.0705379216542007 0.179415342498519 -0.0707641786154278 0.404176179569515 -0.125402920760126 -0.0423787001683875 -0.200977373793279 0.0762573376797655 0.077597653064853 -0.279464628092048 -0.0783802964625522 0.0117869592391996 0.197383744762516 0.0581904622155976 -0.0172004141467415 -0.139820117173591 -0.096529190075165 0.0904608755309806 -0.0541869995527938 0.204767949224383 -0.051112218871754 0.0599161857653207 0.0782437709552663 0.0683337160535188 -0.137155684344958 -0.261414207679605 -0.041164111662891 -0.0134995701695789 0.118528051571204 0.161369035849007 -0.173812397385949 -0.047692653435026 -0.146302636222931 0.222633507415095 0.257425914517611 0.018780356222583 0.0354164135171728 -0.133884728594127 -0.146552033100647 0.192829294977088 0.020607381184492 -0.0956465308161961 0.113975915777424 0.0336521234399677 0.00277704708887957 -0.0167396726984244 0.16074502943435 0.0928967374067371 0.0700555829504938 -0.0397638896051151 0.0189089113141894 -0.0765072487778482 0.0409602232876034 0.102452237365834 0.0434595913786134
0.0768679743648955 0.0818176025019218 -0.122403987583134 -0.0457267889741823 0.00299044854094605 0.0352564909832145 -0.076465854038351 0.0221798670650204 0.261748965138148 -0.161162062151521 -0.112183086469883 0.0179437196864092 0.145291164762172 0.095746803787649 0.117508352584582 0.190505790251395 -0.0472895046677486 -0.175623481516499 0.234979938412965 0.0549768420356229 0.0371997297479356 -0.133766715020033 -0.0984935118749095 -0.0107626322692805 0.0545243281131687 0.0227593934179816 0.100251374197534 -0.127045340610488 -0.0887598345588459 0.000991159756284673 0.0312892808562437 0.0165450402897325 0.123942277809295 -0.117400623417816 0.0729100202045204 0.121175515127744 -0.230209001853272 0.270928827119572 0.224763151062645 0.392615991511909 0.0109505798132089 -0.0858452335219476 0.00298710610856429 0.0217579492543685 0.00730732851708604 -0.258228355399418 -0.0310601956830013 0.00859930718772949 -0.0911149638370736 0.08391587870712 0.0497284518657036 -0.152407717523315 -0.153198331336693 -0.0238683096381777 -0.0235770038005978 -0.194731396112495 -0.155993633248581 0.107590841487522 0.0638772252478944 -0.2194998485021 0.0732213806363909 -0.335313587869128 -0.041460302593952 0.0580418525297006 0.0361828589733296 -0.0263054570648502 -0.0174765504835118 0.0463078579882428 -0.0542533339800626 0.117985806194808 0.0643158552204551 -0.0489406662643401 -0.0513207352303394 0.0928669126254844 -0.141458680371205
0.0882975504494296 0.184542119551778 0.0846481285089096 0.290621667382376 -0.00187767566800181 0.122490376604694 -0.380389888079782 -0.0196599301593534 -0.401742631685407 -0.0724060842454236 -0.168886166275595 -0.0973025775062686 0.193877018973679 0.114549785706355 -0.104081544596853 -0.309112517538662 -0.162573339947175 0.0451495766128699 0.0784342896010269 0.144250896960894 -0.273507128036828 0.136035455276701 0.130162030251392 0.0491003316881152 -0.151733060402565 0.155413849785437 -0.198556424308149 0.0206778293746922 -0.143659029319139 -0.106011927852413 -0.00189078828734565 0.039315232335409 -0.116127928010914 -0.022631609656925 -0.0424473485873053 -0.235568977842706 -0.048762746017557 0.115523719080364 -0.0163794613317435 -0.0262514639263755 0.0244509213133375 -0.114066161451732 0.0126984148386884 0.00562994168180687 0.012885333941884 -0.0165093019742659 -0.132000368061362 0.165314905830772 0.154152724336779 0.0350929689066913 0.232303164295539 0.28161124101169 0.190111383230347 -0.173161651512238 0.0269099231055831 0.0920870974398005 0.132959903265112 -0.213237672879773 -0.0791446850372433 0.0903482612707335 0.112993754877552 -0.262710814333546 0.0497914438605907 0.0756220184170472 -0.0250998674157662 0.298969263700741 -0.0751522781123177 0.00231656275074576 -0.0355310846588856 -0.24901378354326 -0.22664185517138 0.183042138742916 0.0951598212393746 0.0312550852018764 0.405034927581445
0.0760812172042649 -0.133577739035372 -0.0364078303836407 -0.108652192323824 -0.0465066041598662 0.211745405376407 0.062088252593101 -0.0979882903648967 -0.244408940161922 0.0391699650818939 0.0960941596451693 0.212355527841171 0.116307648028979 -0.0142809280163621 -0.192407891386802 -0.0928034064102309 -0.0567964108022187 0.314731403482591 0.196144216569248 0.370849557621494 0.320148715042881 0.0584167191768247 -0.0591443409953164 0.21269645594411 -0.104515289475932 0.0501084607164919 -0.191351939864348 0.142955061637502 -0.0263877323234782 -0.0480963164226699 0.0159212909852586 -0.122245864820458 -0.215320265363795 -0.327875133158603 -0.0693238473690707 -0.181161891973082 0.107087933969158 0.0656538566138937 0.18386360577828 0.113609790876529 -0.0399865470237772 -0.046840076067493 -0.0856354316124461 0.144994202500562 -0.103529786143678 -0.273203223800271 -0.094035735518369 0.0827689101798085 0.169057658767798 -0.0779861465516872 0.265309169845093 -0.0738934666553087 0.115029039087863 -0.216602216737293 -0.00124287062564983 0.0498729477886691 0.0490429961172587 0.303884953293583 0.181910082606231 -0.0690417974980864 -0.0883196619251859 0.0677217938174728 0.117565688155439 -0.0549791560272718 -0.0397096393564572 -0.045838889014063 -0.127782989726125 -0.111822103772652 -0.177372602092894 -0.0383688097510034 0.0816931611732469 -0.183343214767458 -0.0234533338024725 -0.234135074350929 -0.0185042198858127
-0.00882093616565877 -0.0343141821617403 -0.0810010205600385 -0.105557614158676 -0.0450025095880723 -0.0924092564993659 0.271521980312243 -0.265341308617995 0.411459082619196 -0.00217335237869633 -0.125600381380833 -0.0101895336708996 -0.254812646615438 0.0315597607689834 0.0938053647942105 0.234467774928006 0.273726957243475 -0.394076891572923 0.11322489693226 -0.100059827111041 -0.176380413895877 -0.152650429536267 0.0386655149024307 -0.256509316714458 0.168797206152204 -0.272298453065545 0.115468697501157 0.104362566027104 -0.0397888292928867 -0.0433798872218174 -0.10819016532459 -0.0867788005971926 -0.208037105203931 0.016147805056669 0.0542584761837269 0.0732170097632762 0.0185229889291872 0.0667064657039661 0.210785098842108 -0.0993100938167928 0.0724472218747376 -0.0682085033942943 -0.0569452775982988 0.0843532231287647 -0.010581883810482 0.238301030649523 0.00166993063996601 0.0477859844315322 -0.199907795431114 0.0962443119921654 0.052537894837668 -0.199436512465286 0.0161105240801031 0.350153987644161 -0.163530818269459 -0.217884425220975 0.11759782692834 0.155919328405633 -0.104800167558932 0.0559276354931432 0.00684890106041793 0.209992685257446 -0.0690397406166207 0.0513911834205397 0.262487899804701 0.0437691520392014 0.115081746675422 -0.0901495150991102 -0.0768054965903749 -0.0232124215608023 0.0501423992606759 -0.00933644208300008 -0.120039859448494 0.123653028853181 -0.076551728839544
-0.01781413615407 0.15862335620248 0.180551769508318 0.126636278308997 0.0106962978420117 0.0676235777274856 0.168190940340188 -0.0656317451381374 -0.3290177308128 -0.376982149711482 -0.025809491521433 0.0950641762512195 -0.177180283675851 0.100548079348962 -0.0657554151362626 0.0169463892857274 0.174276481266648 -0.0647526854217334 0.23130686233559 -0.0948721149443597 0.109105220466644 -0.216364904038188 -0.28221390728114 -0.273614857203594 -0.382649115259671 0.210484022817566 -0.0630231052192621 0.245486488939766 -0.109317079257611 0.0982721400071634 -0.0719540845433358 0.0506753886704757 0.121183742653607 0.321484916665037 0.253320122001889 0.117068437061106 0.0603280762788273 0.0245817903965927 -0.136561502711554 0.13695976638535 -0.0313885253869638 0.0762030874311077 0.0392918353087367 -0.023617112989179 -0.0476995954099728 0.0441159936763552 0.0257210456184079 -0.0405997548107393 0.0564865930314475 -0.120311367801967 -0.300456389000442 0.0236842187469975 -0.301394069838619 0.0497145679158101 -0.085959390443294 0.266651542111646 0.0980733938355401 -0.079093520110784 -0.0299332817499803 -0.0807994461763998 0.10659351108684 -0.0580259116983415 -0.202816482933799 -0.186953041739763 -0.221556987077984 0.326161236677308 -0.0467261762563298 -0.0606813456705615 0.153155908156463 0.0781206151775075 0.151684723688121 0.025116579577675 -0.0139559407447813 -0.00250965249833844 0.0878033846772949
0.260493239003338 0.219152749754763 0.271935670597032 0.170897025018501 0.155762491193873 0.0542895865158956 -0.0428648955248426 -0.319071166265037 -0.269537603918208 -0.000118784904644233 0.127012173396854 0.0372529515558606 -0.108542663385775 0.0345638361496397 -0.251640935395327 0.0682802371354106 0.0633727750684312 0.0239626690754167 0.33511612724842 0.205162099135248 0.30795912125677 0.111101166818924 -0.0720160480974901 -0.0805803883003026 -0.156314249647047 -0.156230945947686 -0.298316460945564 -0.0935623956710745 0.130047616219862 0.0917806221014111 -0.0011240857210056 -0.136742508280536 0.0830864412560761 0.0283931917525367 0.0425720470261634 0.115872360488801 -0.104906096954416 -0.0336662645000444 0.148989951857869 0.290598527465887 0.177150201784415 0.0288559900823194 0.130446651224208 0.0774323312170472 0.168164972211684 -0.192535160927492 -0.0875853552419306 0.1408292746427 -0.173695926472954 0.0404318618611015 -0.0229905354726898 -0.0754536112470429 -0.126027955615516 0.125896058091528 -0.0139199453191316 -0.096544873796341 -0.110838143101497 0.0304143349027712 0.121791551126722 -0.16033519580231 -0.0161665741000435 -0.209037520926812 0.17347712570704 -0.13102463491607 -0.222149368940106 -0.0846825812734601 -0.18816685891471 0.159593690033924 -0.182158451043214 -0.0220811367546667 -0.00927242164738014 -0.186782577688293 -0.105263480109081 -0.0857012518193485 -0.124490179609721
-0.0551146530938249 -0.0802746842924628 -0.0849399485668559 -0.340464276169426 -0.106146396478233 -0.226771181593536 -0.00760223389723092 -0.270569644193624 0.541575347257976 0.0439357594379231 -0.0195030929475937 -0.0844059307163233 -4.34516209629338e-05 -0.0519221159488737 0.0422496308564147 -0.37501962768302 0.189567080972486 0.0353400517927586 0.0381402387981273 0.098180865892123 -0.333611261346077 0.202037696188848 0.18341623405949 0.0176781248671505 -0.0107708597951433 -0.19045899619805 -0.0377286053948039 0.0413106644673222 -0.132186001613642 -0.0701046909954874 -0.0548611424531773 -0.0428996053995763 -0.0655718384654488 0.0707274118592284 0.0994358206963838 -0.337846380283955 -0.0100620070200261 -0.0279270509903722 -0.204531922076194 0.0823169104777207 0.0114545157723057 0.11242219894027 0.0517385392780599 -0.00473185581184517 -0.204749437291191 -0.104988372213044 -0.0632560470452527 0.0148267729353225 0.184717725806912 -0.037738375581766 0.0741402924311928 -0.0252464202201974 0.26805073572869 -0.0773641970184959 0.122407587125699 0.0737466567406943 0.0587761592129559 -0.0476342894234368 0.159546638870396 0.204378684406999 0.0676516027374558 -0.0127979164795917 0.234123504392684 -0.0356508980042627 0.103604605206993 0.150058758889484 0.0761989736681763 0.0228336982609301 0.173934010502609 -0.0759068965000467 0.116606152951689 0.0414201934053708 0.162182275358509 -0.286031479281481 0.0267016638571808
-0.0585532446841106 -0.295439655105598 0.0918294730362215 0.44111339982039 0.208547468917608 0.21851948737351 0.212843522968908 -0.125520163003671 -0.086318573369242 -0.457797279609058 0.0783327310786579 0.127343588423015 -0.106156937995745 -0.147900833121781 -0.115743805397194 0.150365234227874 -0.0152031822435458 -0.0907025591032005 0.223123559424298 -0.587399066771229 -0.731327033342008 -0.116848350744276 -0.399418869849532 0.0988575798943386 -0.415284625035217 0.137457017479684 -0.0167430151308062 -0.343752201192349 0.0729961521158966 0.133344025878831 -0.00431739419650641 -0.129618242213897 0.385978435022092 0.0637556121312348 -0.0205934972345985 0.170159118792681 0.0134039251814238 0.105424945304139 -0.0395396895253537 0.466207353701943 -0.111713603275336 -0.086366910083686 -0.0942627638101457 0.168474275762088 0.181458340014326 -0.321958770732698 0.142221526284797 0.172007226789613 -0.21237789642711 0.0443566488078422 -0.0987305674638315 0.0156235573930984 0.0901713694646832 0.1202404053914 0.0958910426004313 0.330766337168829 -0.00136422663212619 0.266100297878839 -0.141550211596429 -0.0984639442038401 0.111219180393018 0.0168373745680452 -0.0292791934438874 0.107228573239375 0.409079013653197 -0.270795644044667 0.207482775648925 -0.185051969045089 0.210748846306275 -0.304321526384678 0.27902625522967 -0.274643812156811 0.0612729562021337 0.0757179205153855 0.0295321898641686
0.09874085187116 -0.0833867459500685 0.0597935442079283 -0.214015431183991 0.000503421738730321 -0.00545716363868798 0.176558591252843 0.065195943377592 0.0852618505162381 0.130993781694085 0.0849268359475121 -0.285808821862819 -0.253100035685059 -0.161481650109255 -0.217207196998393 0.0568372913213495 -0.0166142029290167 -0.0361052116979994 -0.0868207095570563 0.238783883573596 0.228156748370869 -0.0775462310282104 0.11286391423503 -0.04829480548411 0.192691483918886 -0.089999362752114 0.157896505714538 0.10696889195433 0.0670962447417165 0.167063769296984 -0.173403077974274 -0.157387941772143 -0.146577744118968 0.309447789217571 -0.0339591129987236 0.217572807678921 0.0457049346086092 0.199102526337292 -0.0181450369598646 -0.260238699921957 0.0482544391853456 0.00988717209544153 0.137387340620033 0.060662576627187 -0.167257630375126 -0.0629349164264201 -0.00878571207055864 -0.158151301906102 -0.309928071039812 0.116174979174442 -0.102997825174611 0.0900824093412917 -0.116426175823441 -0.149613701162343 0.196121590873125 0.0825814768562465 0.037945092169069 -0.0968127826072486 -0.031730996151003 0.2952221398906 -0.030822882983896 0.177108035714368 9.23025557733327e-05 0.0244324093801462 -0.194277082418758 0.0215435193615691 -0.0442736022186645 -0.255994325017483 -0.107461772175549 -0.129674806454204 0.136922742518968 -0.0847908246605926 0.173603881027364 -0.240133454925279 0.247433841467419
-0.16555247564006 0.153835193260511 -0.139432137907123 0.187650067446452 -0.0465806518926314 -0.0477484463447832 0.0546464554501947 0.0713514182738854 0.332395387289664 -0.185111361497411 -0.127718712180322 0.0110277128681727 0.115756918016538 0.144272494216284 0.224737440044324 -0.200743146416372 -0.0705687748761862 0.0833317243708609 -0.459204186531597 -0.0919911953414622 -0.211566456688891 0.279435574641345 0.0357928228253961 -0.131668695925018 0.229834392316331 -0.112662082741208 0.223905174381265 -0.00637478988257385 -0.0364610521915657 -0.0311895221051572 0.0294159760613565 0.124796912058294 0.0164987604567542 -0.219795268102611 0.0225357075585867 -0.142338511418159 0.120543281187224 0.0817366127942098 -0.0717255135904598 -0.183749191746751 -0.108346488315984 0.0156528679539847 0.0697118266355385 0.0408519799004709 0.0760606483896079 0.0862589238067367 0.117422734893573 -0.0133820708158508 0.0287325771943774 -0.0448821820223288 -0.0183381267074573 0.0186214621293576 0.177341491760725 -0.0939264636905036 -0.0263445378126985 -0.0732766593257816 -0.0838598286871797 0.0551889579367734 0.162281519889229 -0.0361738601169172 -0.111337708187479 -0.0630058788369868 -0.195555434249691 -0.156532021972228 -0.226887138286165 0.141144748837502 0.184474756683777 0.107625551362256 0.0584033494472976 0.0884870406544573 -0.160292515511896 -0.0799885206585472 0.165986477629323 -0.0771713643810864 0.11373628908667
0.0813008110336644 0.192001657297326 0.0765542999413761 0.279257397284378 -0.00447628828973182 0.122379819225912 -0.414839824418259 -0.0218145134946752 -0.477215526196191 -0.0678902009874771 -0.133747431756292 -0.0298137255147865 0.23528358553934 0.0990028471478537 -0.168597945760214 -0.152708536437673 -0.120499058235712 -0.0686946987507494 0.0322644997811692 0.211385194009726 -0.179901023634607 0.0482575245075442 0.0349790690955281 -0.0944388842856464 -0.0680994886766121 -0.0293946359161499 -0.189040262207083 0.0470982146914384 -0.116233857406397 -0.0645408266307662 -0.000195403739241596 0.0338045897786128 -0.27012201536465 -0.010934896092033 -0.0287361767369423 -0.162465096560043 -0.0524797879362619 0.106453900257356 0.0853168720954456 -0.196975196681391 0.0242945983219442 -0.101518927400772 0.0154736621562855 -0.0123777984402222 0.00121124607311468 0.00801952372458501 -0.137860166246961 0.171366251102864 0.0930425188806186 0.0300417822472961 0.220639875054465 0.18069677965165 0.0859136248306821 -0.075827449453434 0.0414813856289754 0.141112610064601 0.194927056961919 -0.200643644775469 -0.0206462048221571 0.112454851933538 0.102702919794467 -0.170996526659404 -0.0394718124369855 0.117474671150582 -0.0174289850996175 0.314918065475603 0.00567776417588442 0.0924380528398857 -0.0499984175580769 -0.259939166558514 -0.204361715134907 0.20996337469656 0.136674888302351 -0.0328540534312758 0.461914384972842
-0.338433619942413 0.0975154647379687 -0.156189036987823 0.201120327055145 -0.295152205920766 -0.125755161711127 0.196006662621229 0.258501406413989 0.0538360441527085 -0.244643167538829 -0.0654787645791259 -0.226232792869889 0.113323113022247 0.161134037141551 0.229601707600524 -0.00168921390370695 0.145157210356719 0.0246213853648075 0.181233368604015 0.337741479329205 -0.265511515559282 0.178743256479601 0.28536710656806 -0.014023303612783 -0.174373411805719 -0.0293100466658729 -0.0770577216801065 0.189481206171293 0.105984417062809 0.00172058134605889 -0.216910491846965 -0.11015885799745 0.335950449792945 0.0766185774871793 -0.147743224579471 -0.11402759492425 0.139180941258124 -0.0400096869402663 -0.110122348351433 0.114136352531749 0.0535002582534328 -0.0660801452976602 0.139844285530813 -0.0504848700247152 -0.058151124357566 -0.0316206958824048 -0.0799178153581637 -0.0396062810628057 -0.0891956363193913 -0.17823263565574 -0.0574165605641275 0.0499786200739695 -0.00489306389671948 0.0760693901358371 -0.112787552510615 -0.0756348739262078 0.0154893458774614 -0.0572190999434202 0.0335675341896908 0.281709457101677 0.0330198894994479 0.0268934680538574 0.213010901698179 -0.0655504983202422 -0.177633826039038 0.0845036325859441 -0.136169409682155 -0.0276000068373257 0.0492399425175996 -0.0661400519703487 -0.10980918814828 -0.00294622558943348 -0.0779537506686025 -0.113303572648323 -0.0526327684952734
0.0237227852744793 0.199506703545303 -0.012628995089221 0.0237675224463583 -0.0447487418372415 -0.0377872265165764 -0.340238276318382 0.0437912635149576 -0.481015614704074 -0.0301114591069467 0.0335425945019192 0.240867247388168 0.19672939934624 0.0611927378249714 -0.116528505676359 -0.231657560625492 -0.418560208769345 0.42733357955111 0.073997853389693 0.0937837675388206 0.150913650248666 -0.0794033378815552 -0.0703651436110818 0.324187144690601 -0.282812459787659 0.313268446540111 -0.0385526435320004 0.174310934031198 0.116092189695447 0.0204459159894344 -0.0588080408756743 -0.0316734034699634 0.382613634054388 -0.107738165622503 0.0496875713465728 -0.120711945467412 0.0149399014159361 -0.0401305287263763 -0.00320179311154683 0.178374046256507 -0.0191819623287612 0.18058390828122 -0.0693726983038811 -0.0560135102943362 -0.150508444599923 -0.0503221192787416 0.0365361283650638 -0.00273385257809985 0.273496843629499 0.035787937731915 0.00970179565334522 -0.0208426370021315 0.0899201728156845 -0.0102412128177253 -0.0604370909965095 0.0577346058607616 -0.0545179003585884 0.122139935424975 0.00063840458491695 -0.173523919760384 0.11203319123307 -0.148578575564729 -0.00961489241141936 0.105005084374952 -0.248944878014159 -0.0085283447771628 0.000107986276949303 -0.103578637078489 -0.0967364208828344 0.0728850805167487 -0.0993178071222892 -0.160112281273464 -0.0397669749273136 0.149610872950328 -0.259703653630692
-0.0718049606370725 -0.0393483995490435 -0.114469824439376 0.101345378027104 -0.19061506207926 -0.275952502989363 -0.114911796844318 0.127767820225316 0.16492024169954 -0.192147695881391 -0.242467758278667 -0.097004329693742 0.208724103613475 0.364127668991584 0.353719848775136 0.145361355842189 0.00892275179821097 0.115463298187309 0.179925191991829 0.163619264172484 -0.208570351723914 -0.14779438950593 -0.225461205210068 -0.0598598786351971 0.314577137372663 0.0382633945758862 0.192400178081306 0.0338470129588429 0.0560060540990231 0.235298755040149 -0.000664629823604638 -0.138531480935329 0.0676860555020062 -0.0366207176153407 0.172486223060938 -0.0468382762962105 0.160259605408445 0.162376393546835 -0.115897300176572 -0.245220894120508 -0.184463700945898 -0.00253870594904147 -0.111424611429405 0.126385852990548 0.308856692906365 0.286012453127924 -0.0116594325883262 -0.0508826194781451 -0.300291067152637 -0.00843681355193911 -0.11117932831462 0.147974880854546 0.089368157252327 0.0125207517020885 -0.19198597357615 0.062879123516663 -0.161528958382966 0.159161487815944 0.0746467994921217 -0.166265956398475 -0.252222004409387 0.0994124236697114 -0.178593104132605 -0.129806189757826 -0.0932700613927618 -0.045658654775631 0.00324498762232655 -0.167620412843639 -0.0212293307176833 -0.0268484737717952 0.010959064449255 0.0631735146764414 0.0813100670002601 -0.255346921576154 0.142429271312833
0.0586067236022188 0.0875516738079298 -0.12282539117342 -0.0302055614340025 -0.00188718874478067 0.0322408456443136 -0.0738441015001318 0.0273457248661285 0.27233162027918 -0.161190087161492 -0.114253594775294 0.021324461485472 0.149899350575892 0.0999986348874362 0.123677968540953 0.178274801725787 -0.0409175429971901 -0.163708481406059 0.21348552709639 0.066977202726889 -0.0223513595572232 -0.0984238350152589 -0.08181426006954 -0.0291161855877306 0.0410844075060951 0.0157539122559872 0.112892710575549 -0.121085783673803 -0.0843611935444443 0.00946808249680495 0.0293141604288043 0.0254420810696222 0.168070869884628 -0.13573849301509 0.0735188571183679 0.0929890399625104 -0.214579788036143 0.263387014115396 0.214477972403591 0.385194248963293 0.000910170048572696 -0.0901862818553096 0.0280116402406492 0.0253477216323831 0.0168314610338313 -0.254819588590385 -0.0189647042239465 0.011257826482148 -0.105998558122886 0.0763491260151724 0.0443427648579487 -0.143105985315048 -0.132101412363365 -0.0278620021140194 -0.0338490698403086 -0.212442945303463 -0.170065016465625 0.10464872966102 0.0847427450563319 -0.211182848295538 0.0642297233090789 -0.339805816990219 -0.0513688148346002 0.0284492417724771 -0.0088929270169583 -0.00297630748086936 -0.000982932230421869 0.0676197210747374 -0.0471902601370286 0.124559085138822 0.0388074397235641 -0.0567820126319588 -0.0319335989753746 0.0816895616306819 -0.124290662107548
-0.113283518054033 -0.0778542490276992 -0.06981518492919 0.189499718104484 -0.0871546956850495 -0.174798414938569 0.0295237052281226 -0.00468660441959974 0.275080899468272 -0.0598390527103569 0.0218970458634865 -0.342294129343351 -0.0793007509184534 0.137255700206228 0.458095270311401 -0.220828336818759 0.259429574175387 0.0416518496804454 0.136512137556377 -0.279872919062989 0.16836474682404 0.0153854733634435 0.186433679169674 -0.113471979818327 -0.258797083124684 -0.199522644376662 -0.0582660526094621 -0.115290777254374 0.0971732510841127 0.0753757068615295 0.0760501068720962 -0.257021994419784 -0.134582525631367 -0.178547852740359 0.113159848055907 0.264196139861966 0.0721741708601659 0.0678009837539023 0.0616123416439744 0.162026980807849 0.114800468134987 -0.045878741092461 -0.0919968517654929 -0.0686401913919083 0.284579063856513 0.00280224388683441 -0.0839768138205414 -0.0490903043909699 0.286452111541217 0.0558489597770802 -0.135509407841848 0.0835150439314916 -0.20627075824526 -0.0307192675800613 0.136782617469117 0.163435687501671 -0.211434559164903 -0.172716336674914 0.0667175214418443 -0.0678953431911413 0.145139983974443 -0.150985126879599 0.131897009767711 0.0844959192804477 -0.0257603834764394 -0.140851386118457 0.142515660334392 -0.0106986118336606 0.0566053779360917 -0.020147925287091 0.0455380700997042 0.0598470231260365 -0.252127387861965 0.122954460485392 -0.302698389798057
-0.0324023108393712 -0.0274236292516419 -0.141726332071929 0.0597891733348137 -0.163328472555271 -0.0462934598179829 -0.403253668232148 0.160844016854887 0.0562197126612728 -0.00380728759301256 -0.196311338188336 0.177483673692042 0.340021789544117 0.231606395699033 -0.0259529590036657 0.0597043269743535 -0.090276270419434 0.0300492384426092 -0.0768360927021772 -0.0524494489346428 -0.129288884069202 0.135336115578363 0.156389325820545 0.132585807948537 -0.110850484390292 0.0865743980015386 -0.214287967978197 -0.0923082121973634 -0.0716285830513887 -0.174817441092127 0.0842735189719688 0.0973182612274446 0.0258125768436316 0.214107219519398 -0.188098210495792 -0.406873265391415 -0.0998140297758895 0.150433882646791 0.0261496482938233 0.128941785321865 -0.0999376997740148 -0.139955614240144 0.100860725331748 -0.0542379073690699 -0.196691089928941 -0.347768262254131 -0.0781445264245462 -0.13246676593371 0.116614380477552 0.0964129762723529 0.136536048803416 -0.132642372188844 0.0721374041039664 0.256438868524258 0.112340695012192 -0.0177285184630602 0.188275616522209 -0.0619257589573106 -0.11536251099549 0.196930973729879 0.00926830788444874 -0.154338357889058 0.0527754646469564 -0.155253413031112 0.139209480488461 -0.00991828242761025 -0.171150535659149 0.0832039406098043 0.122363364174186 0.0080640037862808 -0.0437557823096743 0.0738474439325136 0.318691157414248 0.0788904030660461 0.142803880849773
0.00535843332833434 -0.130115750418414 -0.0689140137370297 -0.0415006688927164 0.462694457268709 -0.0613480323756318 0.215154686405806 -0.0857573018392889 0.0269682871171723 -0.241078849068952 0.0785741575406945 -0.0691050466031567 0.10071520096805 -0.346608952438025 0.286020423543603 -0.185489570576917 0.17060726184202 0.0942478514195194 -0.00112562838210488 0.185601413506614 0.25252076644228 -0.0258593708969763 0.00890475408538608 0.255556466375472 0.19037569249869 -0.0494787978778041 0.107745107597449 0.186421594991063 -0.162843562749732 -0.162832249901671 -0.131255776970778 0.0492049755326827 0.138049142231622 0.0790372129806605 -0.0212234171834694 -0.0444152699296147 -0.137495841117349 0.0873632120436349 -0.183800613783393 0.0797293535938689 -0.13130231391394 -0.119562662948451 -0.11905512744679 0.14422415750184 -0.138185410628725 -0.024827587731744 -0.0107227801908826 -0.0518652945983837 0.265392987764821 0.0522414467964238 -0.0287192074648503 -0.101429967277381 -0.178049573205293 0.177917161460939 0.089054997049174 -0.121838345180066 -0.0771289412008564 -0.0118376099452925 -0.155459358287865 -0.093643899599153 -0.11602919770056 0.284673166183569 -0.156143271375211 0.0315407346154257 -0.0594415603671102 -0.0347073036318724 -0.122448981865196 0.15561182462651 -0.0326406519792093 -0.168853256172144 -0.0478368922478083 0.122875270548963 0.185506539849009 -0.179022221028386 -0.138888349869628