5.2031800044 2.233e-07 2.4734645572 2.8787427612 4.635837989 4.9248470128 2.219092106 1.5766934744 2.4242435574 7.5276178815 1.5828931333 0.0220848935 8.187269042 4.6420372246 2.5226842071 1.1280983744 4.6712126592 2.2018420368 4.078220367 1.5799020284 4.6764868972 9.2782634625 1.547518341 2.7450791849 6.3281363442 4.6388271902 0.2704654122 1.3723501406 4.6745845545 3.7227418544 3.8622770176 1.5306310862 1.2582873898 9.0340107728 1.5441459963 1.2241936747 6.5440847661 4.6881001669 3.6886281945 4.80799993 4.6951970218 0.6073637683 0.3883141811 1.5448239098 3.0465488923 5.598363547 1.5235334053 4.3395646746 10.0180444983 4.673906615 1.900381343 1.8793566843 5.8688748102 1.4935562547 3.3650555183 0.371056777 3.9343241555 8.54699379 2.7669849738 3.4448908159 7.0521805641 3.4195329768 0.9470967884 8.5270020765 0.3498536949 3.4533747131 7.0413032645 5.8476713288 1.0126040089 1.8593651992 3.451747231 1.5020399749 3.3541777064 2.7992011883 3.999830738