0 0 0 -0.0726038019763142 0.00652185690737147 -0.046841361618409 -0.0294375733167464 0.00246260133481053 0.0049768818164468 0.0726038019763142 -0.00652185690737147 0.046841361618409 0.0294375733167464 -0.00246260133481053 -0.0049768818164468 0.045032334369325 3.39385441840666e-05 -0.0482025029283367 0.0183756647942064 -0.0041847253419687 -0.0117141970573504 -0.045032334369325 -3.39385441840666e-05 0.0482025029283367 -0.0183756647942064 0.0041847253419687 0.0117141970573504 0.0149645839935245 -0.000700882359437618 0.0236055430309344 -0.0101188283705161 -0.00166016045300393 0.0161143807328513 -0.0149645839935245 0.000700882359437618 -0.0236055430309344 0.0101188283705161 0.00166016045300393 -0.0161143807328513 0.0194858665653185 0.00076078903212616 0.0208974014711558 0.02544670905292 -0.00150383746161065 -0.0110385114958677 -0.0194858665653185 -0.00076078903212616 -0.0208974014711558 -0.02544670905292 0.00150383746161065 0.0110385114958677 0.0119273413992337 -0.0217317240156808 0.0136481798554758 0.00297502192995329 -0.0137600227851733 0.00320076467081398 -0.0142446754805291 -0.0203140184654464 -0.0202553973436739 -0.00433822012134664 -0.0107706026849601 -0.00259886973191322 -0.0119273413992337 0.0217317240156808 -0.0136481798554758 -0.00297502192995329 0.0137600227851733 -0.00320076467081398 0.0142446754805291 0.0203140184654464 0.0202553973436739 0.00433822012134664 0.0107706026849601 0.00259886973191322