10.049561130 0.113444544 0.084011639 0.067793316 6.321017137 -0.061054263 0.039937074 -0.048567922 5.129407283
10.430432103 -0.000217478 -0.046240748 -0.000129963 6.166018518 0.032800574 -0.021981718 0.026092457 5.044564236
10.353972845 0.087217990 -0.023648851 0.052120592 6.076972257 0.011770268 -0.011242084 0.009363105 4.969878160
10.025025817 0.049817107 -0.028340467 0.029770201 6.228087415 0.055658025 -0.013472363 0.044275280 5.175133074
9.643151781 0.035349047 0.017208804 0.021124234 6.732464278 -0.034668199 0.008180644 -0.027578130 5.173948044
9.626656295 0.020479658 0.020786961 0.012238437 6.736845183 -0.039828627 0.009881612 -0.031683187 5.169635001
10.338649152 0.093976521 -0.036349498 0.056159422 6.100429844 0.016687789 -0.017279661 0.013274933 4.954568047
10.403047339 0.000070710 -0.002152075 0.000042256 6.217481964 -0.000101607 -0.001023044 -0.000080827 4.947630262
10.390990412 -0.016718418 -0.041569381 -0.009990758 6.245116723 -0.031662501 -0.019761065 -0.025187133 5.052280523
10.323157813 -0.003333654 -0.049195832 -0.001992158 6.253807009 0.001719913 -0.023386493 0.001368170 5.061147385
10.003898323 0.109957432 0.068295626 0.065709453 6.271933611 -0.028485122 0.032466067 -0.022659567 5.088901452
10.309289736 0.079522907 0.018859175 0.047522088 6.392489958 0.096690886 0.008965190 0.076916421 5.047163735
10.209683941 0.021679621 0.076522836 0.012955523 6.527902514 0.133855142 0.036377081 0.106480133 5.065717070
10.098522173 0.107662531 0.061678790 0.064338044 6.341130105 -0.082909748 0.029320585 -0.065953694 5.147187049
10.288075687 0.061038718 0.043243192 0.036476123 6.449199249 0.115473588 0.020556754 0.091857831 5.067091392
9.724075534 0.036655436 0.002401810 0.021904919 6.725282492 0.016861884 0.001141762 0.013413423 5.163643967
10.069012339 0.112404169 0.077842752 0.067171599 6.332265666 -0.069823102 0.037004537 -0.055543426 5.140191745
9.689340929 0.041824437 0.008793617 0.024993862 6.733996938 -0.002518980 0.004180270 -0.002003818 5.167411037
10.175023082 0.012855286 0.081462979 0.007682190 6.550787071 0.138130506 0.038725504 0.109881133 5.061217356
9.848065389 0.002348126 -0.029028287 0.001403216 6.666397331 0.089578996 -0.013799336 0.071258998 5.079278898
9.629192438 0.024205489 0.020107141 0.014464956 6.735635831 -0.040115761 0.009558442 -0.031911598 5.170476975
10.065668935 0.112644435 0.079223615 0.067315179 6.330644255 -0.068384176 0.037660965 -0.054398778 5.138733428
10.332871365 0.100145217 -0.035967724 0.059845772 6.156962763 0.033267662 -0.017098175 0.026464019 4.959706864
9.918349505 0.000072014 -0.000346528 0.000043035 6.638284772 0.109464865 -0.000164731 0.087077965 5.040138116
10.329218522 0.102039119 -0.025999503 0.060977549 6.217142761 0.050251206 -0.012359527 0.039974222 4.964535046
10.366513941 0.081699686 -0.018599149 0.048822909 6.081588485 0.015310752 -0.008841580 0.012179517 4.988816248
10.328783761 0.101867072 -0.024804645 0.060874735 6.223683523 0.051895965 -0.011791520 0.041282607 4.965937150
10.331152120 0.101849736 -0.031548171 0.060864376 6.186101146 0.041859762 -0.014997227 0.033298930 4.960824231
9.975895850 0.066090704 -0.020167167 0.039495139 6.200272316 0.055779466 -0.009586977 0.044371885 5.115764914
9.971565617 0.098578614 0.036038066 0.058909586 6.232892395 0.008299105 0.017131613 0.006601837 5.072553661
10.350874957 0.088395010 -0.025732177 0.052823967 6.077210636 0.011356021 -0.012232446 0.009033576 4.964992224
10.207424567 0.051155090 -0.021384333 0.030569766 6.322988000 -0.102081560 -0.010165588 -0.081204636 5.112888883
10.184119026 0.064399671 -0.004288736 0.038484594 6.327278636 -0.100213789 -0.002038760 -0.079718847 5.126258935
10.180957279 0.014073678 0.080953997 0.008410288 6.547072567 0.137358847 0.038483546 0.109267288 5.062279296
10.430215299 -0.012066764 -0.045383179 -0.007210977 6.183221176 0.024884868 -0.021574051 0.019795609 5.042381077
9.669470553 0.041508032 0.012195826 0.024804782 6.734193153 -0.015683749 0.005797597 -0.012476231 5.171063149
10.408490753 0.040761399 -0.031017873 0.024358601 6.095099337 0.027867333 -0.014745137 0.022168123 5.018717916
10.407096088 0.042817597 -0.030111975 0.025587365 6.093393231 0.027465735 -0.014314495 0.021848657 5.017066249
9.805761382 0.008920010 -0.027216821 0.005330508 6.678618100 0.064361559 -0.012938210 0.051198835 5.118927392
10.366457327 -0.010448017 -0.046214092 -0.006243629 6.262237238 -0.046938173 -0.021969047 -0.037338744 5.054230575
10.035453478 0.113663810 0.084497311 0.067924347 6.309291634 -0.053296325 0.040167951 -0.042396577 5.117747074
10.215292909 0.046495135 -0.026466667 0.027785024 6.320702354 -0.102795754 -0.012581605 -0.081772769 5.108145932
10.062568628 0.045140117 -0.028586935 0.026975279 6.244884963 0.051424557 -0.013589528 0.040907608 5.201419934
10.330043411 0.102169882 -0.028327971 0.061055692 6.204315676 0.046906404 -0.013466423 0.037313472 4.962462539
10.203492802 0.053450466 -0.018697293 0.031941460 6.323942766 -0.101720679 -0.008888235 -0.080917560 5.115232767
10.046655117 0.113536944 0.084456140 0.067848534 6.318896698 -0.059594928 0.040148379 -0.047407038 5.127276671
10.406137146 0.000006520 -0.000000658 0.000003896 6.218547911 0.000050503 -0.000000313 0.000040174 4.946984407
10.326826722 0.100422826 -0.019609273 0.060011669 6.251571842 0.058619818 -0.009321768 0.046631350 4.974585067
10.162775511 0.024084947 -0.034378324 0.014392921 6.264863643 0.031575922 -0.016342613 0.025118261 5.227780216
10.055792324 0.113191691 0.082569925 0.067642214 6.325124777 -0.064007326 0.039251719 -0.050917047 5.133485934
10.253973762 0.023830555 -0.044382612 0.014240899 6.302460571 -0.102416845 -0.021098406 -0.081471351 5.085754271
10.315879786 0.086763200 0.007138714 0.051848814 6.359345397 0.086600849 0.003393570 0.068889919 5.030175720
10.340266533 0.092970895 -0.034937366 0.055558470 6.093472152 0.014761508 -0.016608368 0.011742600 4.954391383
10.019532538 0.112706165 0.079176635 0.067352068 6.291711577 -0.042121189 0.037638632 -0.033506892 5.102251800
9.782962353 0.015905561 -0.018537174 0.009505003 6.689090249 0.048907498 -0.008812118 0.038905318 5.141401325
10.426344875 -0.018989647 -0.042008385 -0.011348022 6.192654803 0.013723529 -0.019969757 0.010916900 5.041873558
9.647865482 0.037265633 0.016269409 0.022269567 6.732503769 -0.031450117 0.007734078 -0.025018184 5.174062689
10.043792159 0.113608361 0.084730425 0.067891211 6.316663921 -0.058093184 0.040278768 -0.046212419 5.125031764
10.392611665 0.061791871 -0.021913850 0.036926199 6.087721219 0.023956920 -0.010417307 0.019057437 5.007525419
9.624468574 0.016404290 0.021562148 0.009803038 6.737969124 -0.039084698 0.010250117 -0.031091401 5.169175920
10.425345268 -0.019865994 -0.041352829 -0.011871718 6.194261494 0.011424208 -0.019658122 0.009087818 5.042086327
9.768135540 0.021611922 -0.011887250 0.012915067 6.698571013 0.039760576 -0.005650907 0.031629053 5.152134912
9.986006923 0.060385261 -0.023629215 0.036085624 6.204163024 0.057144251 -0.011232750 0.045457555 5.132125113
10.246577107 0.036181206 0.066302431 0.021621524 6.499388013 0.129286119 0.031518551 0.102845531 5.068600658
10.191782942 0.060137526 -0.010192435 0.035937580 6.326177206 -0.100736572 -0.004845234 -0.080134714 5.122027684
9.764384344 0.023102052 -0.010279117 0.013805553 6.701160427 0.037616373 -0.004886440 0.029923366 5.154183030
10.428202214 0.007518447 -0.044615389 0.004492948 6.152017876 0.034233108 -0.021209062 0.027232020 5.044004655
10.038023274 0.048136178 -0.028654416 0.028765695 6.235026127 0.054350011 -0.013621607 0.043234770 5.185316632
10.204068905 0.019957321 0.077627438 0.011926294 6.531801967 0.134499817 0.036902182 0.106992964 5.065208238
9.702269840 0.040704812 0.006600064 0.024324786 6.732126974 0.005157563 0.003137509 0.004102778 5.165638125
9.900357301 0.000075318 -0.009489387 0.000045009 6.646431217 0.106110766 -0.004511022 0.084409820 5.049496737
9.938817067 0.000302333 0.009917512 0.000180671 6.630044521 0.113565525 0.004714542 0.090339990 5.029494656
10.320419010 0.092445922 -0.003011331 0.055244751 6.325234128 0.077008735 -0.001431513 0.061259509 5.011206442
10.079095299 0.111413332 0.073046932 0.066579484 6.336433607 -0.074159556 0.034724721 -0.058993023 5.143696381
10.169388918 0.072424329 0.007559096 0.043280049 6.329079080 -0.099475250 0.003593409 -0.079131348 5.133684893
10.095610034 0.039929487 -0.028483425 0.023861459 6.253253614 0.046523763 -0.013540322 0.037009086 5.218204854
10.363303032 -0.005036350 -0.037263077 -0.003009672 6.231350859 -0.007444073 -0.017713954 -0.005921669 4.976731702
10.300172645 0.004718268 -0.050589146 0.002819589 6.281739858 -0.084307029 -0.024048840 -0.067065213 5.066760855
10.318351797 0.089783317 0.001850742 0.053653606 6.342355750 0.081725132 0.000879798 0.065011346 5.020795541
10.405330725 0.000027054 -0.000323227 0.000016167 6.218045523 0.000140344 -0.000153654 0.000111642 4.947255321
9.960419369 0.079940784 -0.006071329 0.047771807 6.203860352 0.045435870 -0.002886161 0.036143681 5.082546107
9.656122575 0.039561870 0.014658720 0.023641775 6.733108646 -0.025398947 0.006968396 -0.020204553 5.173366473
10.374553567 -0.012338523 -0.044878115 -0.007373377 6.257946587 -0.042212879 -0.021333956 -0.033579830 5.053603208
10.067944328 0.044414134 -0.028532846 0.026541439 6.246566282 0.050711953 -0.013563816 0.040340740 5.204528924
10.047328524 0.047031603 -0.028694900 0.028105612 6.239237395 0.053304230 -0.013640852 0.042402865 5.191832448
9.641008960 0.034270246 0.017637970 0.020479553 6.732582105 -0.036002054 0.008384659 -0.028639195 5.173727652
10.383001429 -0.001804164 -0.023803652 -0.001078150 6.223200780 -0.005853154 -0.011315673 -0.004656112 4.953280959
10.333543987 0.099222751 -0.037096125 0.059294516 6.146452425 0.030122126 -0.017634589 0.023961784 4.959183681
10.395429294 -0.000121230 -0.010717615 -0.000072446 6.218768363 -0.002333032 -0.005094891 -0.001855899 4.948360213
9.797992152 0.010986664 -0.024709507 0.006565519 6.681609992 0.059034527 -0.011746294 0.046961246 5.127048223
9.909261841 0.000042455 -0.004990964 0.000025370 6.642357230 0.107788017 -0.002372582 0.085744053 5.044914937
9.775564347 0.018689366 -0.015198314 0.011168577 6.693617584 0.044210142 -0.007224906 0.035168629 5.147270820
10.059052672 0.113033007 0.081596434 0.067547386 6.327072499 -0.065482905 0.038788945 -0.052090852 5.135378229
10.273076723 0.014521237 -0.048521144 0.008677745 6.292356081 -0.097121311 -0.023065763 -0.077258818 5.076682824
9.998528104 0.108617461 0.063732969 0.064908700 6.265122927 -0.023177230 0.030297092 -0.018437204 5.085257456
10.260649995 0.043381603 0.060525663 0.025924409 6.486006135 0.126448667 0.028772417 0.100588372 5.069525206
10.071490747 0.003749019 0.065528089 0.002240376 6.597707139 0.143354542 0.031150448 0.114036790 5.023233875
10.385035533 -0.015030152 -0.042851919 -0.008981867 6.250604901 -0.035719704 -0.020370752 -0.028414589 5.052839201
10.326573590 -0.003900561 -0.048403268 -0.002330936 6.251712205 0.000845019 -0.023009728 0.000672202 5.053899166
10.405947719 0.000012228 -0.000043922 0.000007308 6.218403022 0.000088549 -0.000020880 0.000070440 4.947063428
9.650453262 0.038107497 0.015758679 0.022772656 6.732646050 -0.029583674 0.007491290 -0.023533452 5.173946136
10.005339129 0.053524001 -0.026965750 0.031985404 6.215784038 0.057101974 -0.012818857 0.045423924 5.156437595
10.251406126 0.038533610 0.064479547 0.023027297 6.495037073 0.128442315 0.030651997 0.102174295 5.068957723
10.388111614 -0.015886989 -0.042198349 -0.009493904 6.247913311 -0.033670334 -0.020060061 -0.026784340 5.052572840
10.236544818 0.031654760 0.069662002 0.018916566 6.507828265 0.130745150 0.033115608 0.104006172 5.067824887
10.385093882 -0.001446303 -0.021848304 -0.000864296 6.222408947 -0.005371776 -0.010386148 -0.004273182 4.951958572
9.963193802 0.093253764 0.022608777 0.055727510 6.222045379 0.021318130 0.010747658 0.016958313 5.070464443
10.159043184 0.078025476 0.016066039 0.046627238 6.330474371 -0.099016506 0.007637401 -0.078766423 5.138145566
10.330797360 0.102022075 -0.030515630 0.060967364 6.192052345 0.043546022 -0.014506383 0.034640330 4.961219996
10.072369697 0.112124161 0.076345790 0.067004268 6.333773869 -0.071262231 0.036292918 -0.056688235 5.141503615
10.173884085 0.021321180 -0.036567648 0.012741322 6.267126721 0.028703503 -0.017383364 0.022833286 5.225076221
10.427390967 0.009515158 -0.044005273 0.005686163 6.148096806 0.034268613 -0.020919029 0.027260264 5.043444758
10.308393593 -0.000628154 -0.052308589 -0.000375378 6.262548520 0.004995629 -0.024866221 0.003973962 5.090577359
10.352639873 -0.005876757 -0.041520560 -0.003511891 6.236572701 -0.005996540 -0.019737857 -0.004770174 4.996880423
10.386024419 0.068333726 -0.019591412 0.040835546 6.087453353 0.022019680 -0.009313277 0.017516386 5.005074380
10.414155965 0.032269277 -0.034725308 0.019283795 6.105074447 0.029808811 -0.016507560 0.023712546 5.026458743
9.752881033 0.027566390 -0.005771759 0.016473397 6.709088510 0.031405375 -0.002743753 0.024982593 5.158865004
10.378500293 -0.002608458 -0.027646137 -0.001558788 6.224940515 -0.006698322 -0.013142296 -0.005328433 4.956884010
10.401340293 0.000085050 -0.003904644 0.000050825 6.217490977 -0.000498568 -0.001856172 -0.000396605 4.947781811
10.339736039 -0.004767610 -0.049249089 -0.002849076 6.271595510 -0.062042079 -0.023411810 -0.049353717 5.057515451
10.330428477 0.102129706 -0.029440676 0.061031683 6.198119658 0.045228605 -0.013995376 0.035978804 4.961754308
10.429527127 0.003594630 -0.045604570 0.002148115 6.159383578 0.033787761 -0.021679295 0.026877752 5.044587218
10.274686162 0.004929615 -0.055560283 0.002945888 6.276737888 0.010071791 -0.026411997 0.008011987 5.144571642
10.337932585 0.094488642 -0.036912762 0.056465460 6.104279744 0.017776879 -0.017547423 0.014141290 4.954880957
10.172980737 0.070479601 0.004627203 0.042117900 6.328644742 -0.099632101 0.002199659 -0.079256121 5.131976609
10.187931813 0.062289357 -0.007254359 0.037223492 6.326756844 -0.100460337 -0.003448545 -0.079914973 5.124179606
10.419171608 -0.022642080 -0.038671961 -0.013530679 6.203758794 -0.000759802 -0.018383703 -0.000604413 5.044305252
9.697916289 0.041191447 0.007348490 0.024615593 6.732928073 0.002644418 0.003493292 0.002103602 5.166169746
10.109947596 0.103739738 0.053924901 0.061993822 6.341201459 -0.088157486 0.025634577 -0.070128205 5.147532646
9.744943869 0.030434556 -0.003093991 0.018187384 6.714244231 0.027345582 -0.001470807 0.021753077 5.160913106
10.411242216 -0.022459876 -0.037947778 -0.013421795 6.216870491 -0.012656004 -0.018039444 -0.010067697 5.047603883
10.403383780 -0.020486119 -0.038935580 -0.012242298 6.229513429 -0.021429507 -0.018509021 -0.017046911 5.050121659
10.146324815 0.084981957 0.026435402 0.050784361 6.332791944 -0.098121263 0.012566742 -0.078054268 5.142494550
10.168344301 0.022684262 -0.035435930 0.013555887 6.265978164 0.030133268 -0.016845373 0.023970647 5.226585838
10.339426145 0.093470959 -0.035688950 0.055857303 6.096820610 0.015680011 -0.016965652 0.012473257 4.954394589
10.118639644 0.005876246 0.078279326 0.003511585 6.580637263 0.144017779 0.037212073 0.114564387 5.043362848
9.677067180 0.041943406 0.010868804 0.025064956 6.734452532 -0.010446784 0.005166763 -0.008310289 5.169588678
10.405681002 0.000019037 -0.000144512 0.000011376 6.218231101 0.000121641 -0.000068697 0.000096764 4.947155767
10.151739521 0.026912964 -0.032545614 0.016082916 6.262782448 0.034412398 -0.015471388 0.027374643 5.229173098
10.402935704 0.048794951 -0.027434373 0.029159371 6.089902935 0.026411850 -0.013041628 0.021010305 5.012976150
10.319435425 0.091165009 -0.000648425 0.054479290 6.333754832 0.079331521 -0.000308245 0.063107257 5.015979983
10.232263170 0.010261132 -0.050424772 0.006131949 6.278735524 0.015955921 -0.023970701 0.012692741 5.190595463
10.010148203 0.002067440 0.041579586 0.001235481 6.612503583 0.132199442 0.019765916 0.105163044 5.009629492
10.430938511 -0.007377273 -0.046323028 -0.004408584 6.176970978 0.029088341 -0.022020832 0.023139421 5.043418691
10.265773351 0.006095375 -0.055261411 0.003642535 6.278559855 0.011192140 -0.026269920 0.008903211 5.155964235
10.311924368 0.001510603 -0.050593832 0.000902721 6.278481321 -0.077798417 -0.024051068 -0.061887692 5.063438150
10.284655002 0.058518108 0.046029645 0.034969832 6.455097480 0.117427864 0.021881365 0.093412434 5.068107615
10.199570694 0.055715352 -0.015927769 0.033294933 6.324784289 -0.101371301 -0.007571671 -0.080639633 5.117544158
10.112046164 0.005455300 0.076976390 0.003260032 6.583424875 0.144320484 0.036592690 0.114805184 5.040560483
10.405706473 0.044843776 -0.029211185 0.026798188 6.091973831 0.027092775 -0.013886282 0.021551972 5.015555962
10.280770771 0.011346843 -0.049468519 0.006780759 6.288834003 -0.093969372 -0.023516122 -0.074751489 5.073529396
9.830482462 0.004308347 -0.030724114 0.002574625 6.671287549 0.080218240 -0.014605491 0.063812632 5.093928320
10.029260073 0.049234222 -0.028483501 0.029421875 6.230480548 0.055254795 -0.013540358 0.043954515 5.178609090
10.020827149 0.050447477 -0.028153573 0.030146904 6.225602768 0.056032016 -0.013383519 0.044572785 5.171518693
9.969771775 0.070486366 -0.016833371 0.042121942 6.199559636 0.053796663 -0.008002172 0.042794589 5.104184231
10.165866293 0.074329567 0.010449866 0.044418600 6.329522655 -0.099325763 0.004967610 -0.079012433 5.135284836
10.334687855 0.097676540 -0.038030360 0.058370516 6.131274861 0.025615097 -0.018078701 0.020376497 4.957954693
9.659210644 0.040172653 0.014072606 0.024006772 6.733392495 -0.023111767 0.006689772 -0.018385129 5.172915354
9.719753870 0.037666529 0.003322191 0.022509138 6.727026017 0.014637442 0.001579288 0.011643907 5.164003538
10.348047455 0.089471788 -0.027922805 0.053467439 6.078579622 0.011330451 -0.013273817 0.009013235 4.960901325
10.140608547 0.029767334 -0.031071225 0.017788659 6.260842328 0.037182332 -0.014770499 0.029578091 5.229281069
10.335110661 -0.003793472 -0.049586375 -0.002266940 6.272799333 -0.064655965 -0.023572147 -0.051433031 5.058320716
10.118233171 0.100047220 0.047957162 0.059787211 6.339930848 -0.091608065 0.022797660 -0.072873099 5.147180998
10.126480056 0.095858287 0.041841491 0.057283946 6.337923062 -0.094412000 0.019890419 -0.075103594 5.146418865
10.095574896 0.108438905 0.063557636 0.064801997 6.340744440 -0.081544251 0.030213742 -0.064867457 5.146901724
10.215226833 0.023498585 0.075324723 0.014042518 6.523971284 0.133232664 0.035807527 0.105984960 5.066177995
10.283372990 0.003680337 -0.055368025 0.002199332 6.274127505 0.008950217 -0.026320602 0.007119789 5.132369648
10.180351777 0.066467983 -0.001310327 0.039720597 6.327757649 -0.099995885 -0.000622897 -0.079545507 5.128256829
9.964898023 0.074719259 -0.012785133 0.044651476 6.200520739 0.050861717 -0.006077739 0.040459876 5.093777676
10.134739058 0.091383429 0.035561965 0.054609816 6.335656489 -0.096442346 0.016905287 -0.076718710 5.145196046
9.961983116 0.092192855 0.019917757 0.055093521 6.220142030 0.023713102 0.009468414 0.018863483 5.070412474
10.389378798 0.065172284 -0.020648403 0.038946300 6.087645951 0.023048314 -0.009815745 0.018334653 5.006394125
10.261602680 0.019877161 -0.046379964 0.011878391 6.298262320 -0.100775584 -0.022047898 -0.080165748 5.081919398
9.969612019 0.097519298 0.033381512 0.058276550 6.230536282 0.011032155 0.015868753 0.008775945 5.071925253
10.319611461 -0.002710552 -0.049997188 -0.001619799 6.255968546 0.002583830 -0.023767438 0.002055405 5.068513265
10.399250182 0.000063129 -0.006250418 0.000037725 6.217784198 -0.001101864 -0.002971296 -0.000876519 4.947939318
10.098693574 0.004754761 0.073815328 0.002841397 6.588644162 0.144565287 0.035089998 0.114999922 5.034729287
10.009087357 0.111069336 0.072380971 0.066373916 6.278576693 -0.033310646 0.034408140 -0.026498213 5.092899032
10.381748581 -0.014149857 -0.043523163 -0.008455812 6.253185282 -0.037824251 -0.020689845 -0.030088730 5.053091648
9.968007775 0.071923079 -0.015568355 0.042980507 6.199708456 0.052927581 -0.007400814 0.042103245 5.100559705
9.822001785 0.005597332 -0.030327087 0.003344909 6.673600603 0.075067804 -0.014416754 0.059715523 5.102082265
10.344386124 -0.005736836 -0.048859202 -0.003428275 6.270307550 -0.059420409 -0.023226467 -0.047268211 5.056779189
10.414636033 -0.022878627 -0.037964549 -0.013672037 6.211160814 -0.008005217 -0.018047416 -0.006368052 5.046238811
10.137545717 0.089835010 0.033386342 0.053684496 6.334906432 -0.096959408 0.015871049 -0.077130027 5.144653457
10.250156606 0.025911572 -0.043194142 0.015484495 6.304582243 -0.102996857 -0.020533437 -0.081932743 5.087772098
10.4063000000 0.0000000000 0.0000000000 0.0000000000 6.2187000000 0.0000000000 0.0000000000 0.0000000000 4.9469000000
10.417729763 -0.022840934 -0.038347237 -0.013649512 6.206064036 -0.003201909 -0.018229337 -0.002547079 5.044919565
10.230926406 0.037100184 -0.035229526 0.022170696 6.314550852 -0.103808751 -0.016747253 -0.082578595 5.098724169
9.904789585 0.000050425 -0.007262763 0.000030133 6.644402147 0.106957161 -0.003452540 0.085083117 5.047229880
10.357905799 -0.008572157 -0.047406437 -0.005122635 6.265864944 -0.051805481 -0.022535859 -0.041210628 5.055045444
9.786675953 0.014585915 -0.020173338 0.008716396 6.687018394 0.051352932 -0.009589910 0.040850631 5.138113065
10.261183936 0.006664239 -0.054921217 0.003982482 6.279168986 0.011775657 -0.026108201 0.009367392 5.161425671
9.621915780 0.009755491 0.023061719 0.005829783 6.739268573 -0.037397472 0.010962976 -0.029749233 5.169534770
10.392398283 -0.000403267 -0.014200822 -0.000240988 6.219757209 -0.003311164 -0.006750723 -0.002633991 4.948969086
9.621290333 0.007434394 0.023686778 0.004442719 6.739565242 -0.036746241 0.011260114 -0.029231186 5.169983045
10.078884872 0.042802716 -0.028445131 0.025578472 6.249562773 0.049169783 -0.013522118 0.039113963 5.210422217
9.711026776 0.039397158 0.005029348 0.023543345 6.729958236 0.010016209 0.002390829 0.007967772 5.164744743
9.632074204 0.027553117 0.019456965 0.016465465 6.734471678 -0.039824888 0.009249365 -0.031680212 5.171514163
10.430974270 -0.005657204 -0.046454487 -0.003380688 6.174513281 0.030236452 -0.022083325 0.024052729 5.043780785
10.424252380 -0.020650134 -0.040711175 -0.012340312 6.195952490 0.009033608 -0.019353095 0.007186125 5.042387786
9.732588208 0.034375631 0.000396763 0.020542530 6.721286069 0.021160671 0.000188611 0.016833055 5.162822910
9.972596121 0.001018062 0.025563426 0.000608383 6.620240137 0.121979607 0.012152226 0.097033290 5.015406707
10.405499036 -0.021097653 -0.038573075 -0.012607745 6.226269350 -0.019299304 -0.018336695 -0.015352361 5.049543123
10.294409080 0.065998358 0.037407533 0.039439954 6.436609359 0.111231117 0.017782624 0.088482997 5.064135135
10.334282096 0.098205693 -0.037826076 0.058686732 6.136244727 0.027084288 -0.017981589 0.021545221 4.958423460
10.360664809 -0.005331017 -0.038471976 -0.003185762 6.232580127 -0.007227580 -0.018288635 -0.005749452 4.981313702
9.995021194 0.056629314 -0.025547052 0.033841108 6.209224826 0.057390836 -0.012144443 0.045653710 5.144409017
10.242501022 0.030253037 -0.040417412 0.018078910 6.308761787 -0.103705083 -0.019213447 -0.082496128 5.091994513
9.852568490 0.001968023 -0.028105228 0.001176071 6.665047482 0.091662979 -0.013360537 0.072916782 5.076037755
10.420813812 0.021893905 -0.039228452 0.013083577 6.122991452 0.032472705 -0.018648245 0.025831641 5.036068683
10.144374505 0.008177114 0.081556139 0.004886561 6.568334490 0.141886903 0.038769790 0.112869301 5.053157642
10.365924801 -0.004694836 -0.035940153 -0.002805587 6.230168045 -0.007558147 -0.017085068 -0.006012414 4.972488660
10.169025578 0.011735292 0.081821278 0.007012892 6.554445672 0.138910471 0.038895831 0.110501586 5.059985991
10.388955809 -0.000843416 -0.017957313 -0.000504017 6.220978519 -0.004348606 -0.008536467 -0.003459263 4.950079870
10.412978700 -0.022723634 -0.037910634 -0.013579414 6.213945056 -0.010352028 -0.018021786 -0.008234912 5.046921313
9.973715222 0.067562648 -0.019129607 0.040374757 6.199832257 0.055218558 -0.009093746 0.043925690 5.111805599
9.960081965 0.090080344 0.014617819 0.053831106 6.216574896 0.028282181 0.006948953 0.022498130 5.070767632
10.398808567 -0.019090985 -0.039850199 -0.011408580 6.235972356 -0.025588163 -0.018943808 -0.020355072 5.051136594
9.998312475 0.055518567 -0.026071675 0.033177336 6.211269077 0.057349664 -0.012393835 0.045620958 5.148453203
9.967788176 0.096453656 0.030704657 0.057639733 6.228275877 0.013704732 0.014596241 0.010901947 5.071393323
10.265420662 0.018013023 -0.047200463 0.010764401 6.296225247 -0.099712475 -0.022437943 -0.079320058 5.080105056
10.003538980 0.001878917 0.038815432 0.001122822 6.613819216 0.130472634 0.018451905 0.103789389 5.009789481
10.390728207 -0.000602855 -0.016054414 -0.000360260 6.220340873 -0.003827096 -0.007631875 -0.003044408 4.949446453
10.219219339 0.044143953 -0.028843115 0.026379982 6.319360707 -0.103123537 -0.013711310 -0.082033516 5.105767762
9.760596486 0.024598063 -0.008718206 0.014699554 6.703793763 0.035515565 -0.004144421 0.028252199 5.155980421
10.393968845 -0.000243202 -0.012411854 -0.000145335 6.219230494 -0.002809126 -0.005900291 -0.002234626 4.948615742
10.326278960 0.099869694 -0.018175740 0.059681123 6.258972377 0.060375713 -0.008640302 0.048028144 4.977541815
10.270249727 0.005522072 -0.055473153 0.003299935 6.277752723 0.010629574 -0.026370577 0.008455696 5.150377982
10.032749512 0.113615945 0.084060443 0.067895743 6.306614560 -0.051591070 0.039960275 -0.041040067 5.115190517
10.037167617 0.002808863 0.052644892 0.001678548 6.606731249 0.138393900 0.025026092 0.110090659 5.012587030
10.296317104 0.001570142 -0.054214519 0.000938301 6.268806478 0.007094961 -0.025772254 0.005643955 5.112024024
10.325063993 0.098490259 -0.014990281 0.058856786 6.274742925 0.064150374 -0.007126012 0.051030840 4.984577203
10.342146518 0.091981177 -0.033192362 0.054967024 6.087630740 0.013222301 -0.015778835 0.010518179 4.955004969
10.112727206 0.102572323 0.051947627 0.061296187 6.340885211 -0.089369014 0.024694629 -0.071091961 5.147463346
10.006489856 0.110536484 0.070382469 0.066055489 6.275249451 -0.030933235 0.033458101 -0.024607011 5.090837722
10.033569178 0.048680848 -0.028586711 0.029091184 6.232786328 0.054820707 -0.013589422 0.043609204 5.181984181
10.315996019 -0.002050557 -0.050784585 -0.001225392 6.258142866 0.003414523 -0.024141747 0.002716212 5.075837794
10.135013293 0.031177940 -0.030470977 0.018631623 6.259914098 0.038520494 -0.014485156 0.030642583 5.228863148
10.222095000 0.011717177 -0.048144498 0.007002067 6.277258368 0.017744233 -0.022886715 0.014115321 5.198923044
10.362234248 -0.009509149 -0.046830791 -0.005682572 6.264128373 -0.049352088 -0.022262210 -0.039258984 5.054609149
10.146184804 0.028342201 -0.031762651 0.016937014 6.261796424 0.035810261 -0.015099186 0.028486626 5.229386408
10.429778110 -0.013477372 -0.044912506 -0.008053942 6.185020409 0.023233511 -0.021350305 0.018481975 5.042111199
10.384269287 0.069856108 -0.019144495 0.041745306 6.087263139 0.021452555 -0.009100824 0.017065246 5.004259257
10.380802223 -0.002193786 -0.025742426 -0.001310984 6.224044338 -0.006299410 -0.012237319 -0.005011104 4.954910733
10.156834898 0.009779296 0.082045341 0.005844008 6.561557854 0.140451934 0.039002345 0.111727800 5.056964338
10.251772959 0.007802052 -0.053869115 0.004662428 6.279782311 0.013019353 -0.025608057 0.010356736 5.171866151
9.923289942 0.000109772 0.002169260 0.000065599 6.636157070 0.110398723 0.001031213 0.087820838 5.037526059
10.085157341 0.004201485 0.069968433 0.002510765 6.593397779 0.144262562 0.033261279 0.114759108 5.028843751
10.238656969 0.032498974 -0.038824817 0.019421059 6.310775619 -0.103853880 -0.018456366 -0.082614495 5.094190584
10.333005512 -0.004838536 -0.046869220 -0.002891461 6.247778591 -0.000896474 -0.022280479 -0.000713134 5.039906552
10.427972973 -0.017064605 -0.043241886 -0.010197636 6.189715890 0.017799440 -0.020556133 0.014159238 5.041728376
10.201084627 0.015332518 -0.042965491 0.009162558 6.273089727 0.022067712 -0.020424741 0.017554595 5.213100850
10.112505458 0.036489160 -0.028919056 0.021805554 6.256270810 0.043414375 -0.013747411 0.034535606 5.224277871
10.409421111 -0.022094841 -0.038073428 -0.013203654 6.219917187 -0.014915006 -0.018099175 -0.011864705 5.048275306
10.401526419 0.050747203 -0.026563518 0.030326017 6.089186047 0.026087161 -0.012627646 0.020752018 5.011883693
9.988871999 0.059068714 -0.024328235 0.035298868 6.205658911 0.057291654 -0.011565047 0.045574812 5.136237375
9.620443563 0.002705887 0.025170562 0.001617011 6.739935109 -0.035396605 0.011965468 -0.028157568 5.171399306
10.297323270 0.068420766 0.034378571 0.040887560 6.429892942 0.108961052 0.016342730 0.086677188 5.062155162
10.419566699 0.023913046 -0.038362691 0.014290195 6.119107350 0.031977306 -0.018236683 0.025437557 5.034340509
10.428915659 0.005544159 -0.045150938 0.003313134 6.155786113 0.034075269 -0.021463649 0.027106461 5.044380856
9.728356184 0.035555946 0.001428568 0.021247875 6.723365115 0.019034254 0.000679106 0.015141517 5.163259537
10.316513511 0.000379920 -0.050484763 0.000227037 6.277331969 -0.075205019 -0.023999219 -0.059824675 5.062284520
10.231358967 0.029494270 0.071206622 0.017625478 6.511941397 0.131395274 0.033849883 0.104523338 5.067425031
10.162963347 0.010711051 0.082018548 0.006400816 6.558039104 0.139688192 0.038989608 0.111120253 5.058571482
9.995843366 0.107879787 0.061352599 0.064467873 6.261766005 -0.020409905 0.029165522 -0.016235830 5.083607308
10.335596797 0.096602756 -0.038104167 0.057728833 6.121668142 0.022796161 -0.018113787 0.018134068 4.956892795
10.107141567 0.104836866 0.055889650 0.062649455 6.341393231 -0.086896200 0.026568570 -0.069124867 5.147547355
9.826213379 0.004924298 -0.030628828 0.002942711 6.672442665 0.077671834 -0.014560194 0.061786996 5.097955020
9.991893900 0.057807112 -0.024970340 0.034544948 6.207360625 0.057372829 -0.011870288 0.045639386 5.140359351