4.6535879481 -0.1202333153 2.6640085675 -0.1400806066 3.3945621981 -0.0642589553 2.9645995239 4.6476435619 5.1108009978 2.2010935637 1.7401138810 2.3946264857 7.2498040162 1.4313340785 0.1522771461 7.9944690661 4.9790232691 2.6830076191 1.1979147881 4.8582374598 2.2909837304 3.9755988032 1.4513356656 4.8484569342 8.9373911024 1.7629058290 2.9331227195 6.2535079278 4.6123538077 0.1923981811 1.3047155618 4.8608762471 3.8270430034 3.8648948798 1.6633961335 1.2485777713 8.8447320048 1.8316151457 1.3688443744 6.3472352328 4.8637429096 3.7852515886 4.7655395076 4.6799322746 0.5969266145 0.3568120504 1.5465700092 3.3288614923 5.4610586408 1.3370134656 4.4127487645 9.8285460551 4.9952148210 1.7853729758 2.0323856087 5.9779406058 1.6754084831 3.1930263936 0.2161431100 4.3784691377 8.3648417482 3.0750340703 3.5410920918 6.9250075088 3.3395871025 0.7726021071 8.1769538670 0.5349431542 3.6221333742 7.0002568823 5.8984119931 1.0178451880 1.9867669968 3.6019370002 1.6540236445 3.1893638993 2.6249145640 4.1218522181
5.1748938162 -0.0609026791 2.6559661758 -0.2286714257 3.1294318974 -0.0309529956 2.9314305859 4.6475116140 4.9668653659 2.2685179536 1.6231567983 2.4591825186 7.4390325427 1.4840564455 0.1380478154 8.1720519817 4.7473518530 2.6003614439 1.1208744052 4.5906919613 2.1958911067 4.0633864417 1.5876732838 4.7754862221 9.3219275221 1.5959895375 2.7289553045 6.3293084840 4.5523764438 0.2480328791 1.3003159316 4.7299772564 3.7442875216 3.8364583953 1.4124801284 1.2628785681 9.2200917988 1.5911207374 1.2016510079 6.5185847443 4.6633035471 3.7845587827 4.8580746079 4.6034762947 0.7495210628 0.3823267175 1.4262481813 3.2085073078 5.5636017144 1.6466506989 4.3711714355 10.0911555464 4.6931360782 1.6275852457 2.1620805618 5.5930861022 1.5468145593 3.3983216476 0.3339879984 4.0511857811 8.7223558660 2.8755779733 3.5082868627 7.2199513391 3.4529619067 0.8983997533 8.4794556915 0.3468962903 3.3725005266 6.9656145381 5.9240085072 0.9701871609 1.6665154335 3.1938108171 1.5152199013 3.2365374455 2.7859924839 4.1432721271
5.2786667182 0.1610763513 2.4769149832 0.2052114766 3.0771249867 -0.0967387121 2.9655686151 4.6422926208 4.8725768669 2.1907394673 1.4127132042 2.4776070310 7.4312767382 1.6233254652 0.0536619935 8.2015153997 4.5754609208 2.4281215288 1.1532481504 4.5973452378 2.2204569821 4.0725065222 1.6608908361 4.8213060400 9.1720295942 1.5318956062 2.7550170558 6.3320086097 4.6094823239 0.2630789744 1.2571259996 4.5218628563 3.7333192327 4.0608124812 1.6444274151 1.3694260424 9.0613849498 1.5612523737 1.2086133273 6.4880128734 4.6407463643 3.7013420068 4.8234268146 4.6530954171 0.5944810415 0.3185717968 1.4376222178 3.2145729699 5.5533256915 1.5216151061 4.3710023831 10.0102649343 4.6267426325 1.7651028650 1.7458465459 5.8697817171 1.4286740937 3.3166256813 0.4202395534 4.0732577523 8.4962754988 2.7741271564 3.4125371182 6.9975927276 3.3562502770 1.0016538112 8.4261261228 0.3628394046 3.3687415766 7.0908144209 5.7552104349 0.9859548452 1.8699073266 3.4250739600 1.4877456332 3.3503455219 2.8246111224 4.1049622719
4.9096868099 -0.1100971452 2.5480438226 -0.0084946121 3.0944489438 0.1038707295 2.8319435486 4.6643114458 5.1928681107 2.2554681547 1.7949330892 2.6716935554 7.1995312099 1.3502958885 0.0074461616 7.8475029692 4.8576132012 2.6092213472 1.0934751938 4.9040688690 2.4153950639 3.8838914930 1.5235257954 5.0060276079 8.9934421942 1.7519690271 2.7076053537 6.1333567716 4.4584838463 0.2096045081 1.3355329869 4.6896738923 3.8987300445 3.8426006649 1.4968545932 1.3681499726 8.9676962330 1.4924349731 1.1651331227 6.1553219987 4.7263466996 3.8591234838 4.6661616693 4.6366919911 0.6693230157 0.4042865222 1.9104478095 3.2929157662 5.3429219623 1.5161221888 4.5332406356 9.6739366568 4.9421678837 1.9311502074 1.8019591894 6.1833623620 2.0097144511 3.1636657398 0.3372082498 4.3193103986 8.2822412424 3.0459786606 3.1981891327 6.7833604699 3.1352868706 0.7552898114 8.1856586212 0.5613184310 3.5130417366 6.8998747740 5.6723582844 0.9658452438 1.7241941945 3.6774392599 1.5545466416 3.0515183758 2.7409738956 4.3755512189
4.7669713403 -0.0479284303 2.7787681502 0.0359280666 3.3162878908 -0.1613969224 2.6096779233 5.2040798857 5.1279835758 2.2659915694 2.0128226381 2.5590976630 6.9103938642 1.4008475661 -0.0025065673 7.5569771226 4.6781006846 2.7256996105 1.1287509962 5.1081076891 2.1940011978 3.7247062268 1.7504909499 4.8771289626 8.6221837320 1.6571050575 2.8295191902 5.8614102584 5.0853615601 0.3268408103 1.2162107274 5.0058837523 3.7692879610 3.5559396350 1.8269214625 1.2602237317 8.4127896924 1.7642950520 1.2544923515 6.1346578712 5.0954355076 3.9691027127 4.3587733612 4.9752681818 0.6927322753 0.4790485980 1.5073187756 3.1267034902 5.2367812365 1.7833641638 4.4729960057 9.2784861458 5.2397829922 1.7938213079 1.9600682554 6.2618719613 1.6063269675 3.1222968299 0.4880585517 4.2060385816 8.1159114177 2.9556914662 3.4950509069 6.6886615120 3.9745274445 1.0895425257 7.8440698822 0.5261826220 3.5816410402 6.4077602870 6.3603512561 0.9362150496 1.5863097008 3.7272981131 1.6006621818 3.0526275777 2.9874389266 4.1673464824
4.7376868849 -0.1357003649 2.7443645387 0.0174384045 3.3698156470 -0.0798087858 2.5926672690 5.2425742751 5.1110033903 2.2262345424 2.0146621896 2.5805020099 6.9067447096 1.4099797671 0.0050778621 7.5700399367 4.6724601118 2.7072012635 1.1104028545 5.0783672306 2.2048140324 3.7378203410 1.7482630126 4.9082782009 8.5743896160 1.6510989679 2.7702924328 5.8594493672 5.0446319284 0.3281863342 1.2495659383 5.0153258797 3.7339203242 3.5680372680 1.7677112575 1.2465306062 8.4036926031 1.6659833185 1.1947991886 6.0955844277 5.0498292794 3.9723475033 4.3573756893 4.9681772725 0.6672084273 0.5030572010 1.4621009506 3.1063986583 5.2635511508 1.7547756336 4.5051215989 9.2265828148 5.3010770417 1.8922611489 1.9646280631 6.2252349840 1.5092370601 3.0655753516 0.4671458200 4.2585484929 8.1138635333 2.9778143519 3.5101957847 6.6958327114 3.9732116235 1.0816018529 7.8195750209 0.5128708093 3.5260683966 6.4067742771 6.3930831176 0.9461678500 1.5560185408 3.7444311776 1.5616865304 3.0376121410 2.9639038910 4.1803815412
5.3031661287 0.1963080825 2.4220800309 0.2366381048 2.9988491170 -0.0559795454 2.9544679532 4.7124022940 4.8711224591 2.1920509400 1.3763896672 2.4938391222 7.4412847863 1.6503221495 0.0129238181 8.1306745889 4.5409578400 2.3948003591 1.1441642758 4.6440453298 2.1891092521 4.0743234848 1.6625653553 4.7676492934 9.1416820017 1.5441202313 2.7113772680 6.3356517080 4.6145220579 0.2437310383 1.3327440769 4.6078562793 3.7160603726 3.9279000519 1.6401411331 1.3660433374 9.0463056204 1.5311994789 1.1901119213 6.5283620539 4.6731899085 3.6984629594 4.8229876084 4.7488169285 0.6678825411 0.2874241920 1.5211945539 3.1512138553 5.5614136591 1.4936339284 4.3523397106 9.9856328536 4.6558229457 1.7893105310 1.6822108548 5.9256348318 1.5277675337 3.2983937800 0.4692886686 4.0621465769 8.4914284883 2.8131223186 3.4571480363 6.9790198587 3.3959936313 1.0155839097 8.4326541798 0.3124669135 3.4117326898 7.1353675512 5.7537215342 0.9774332447 1.9308158542 3.5250720170 1.4480763395 3.3166829083 2.8393217771 4.0517559583
5.1981269204 0.0071304394 2.4804980303 0.0024992260 3.1013124323 -0.0079320145 2.9067292146 4.6936132675 4.9060361887 2.2647649870 1.5784254647 2.4808547742 7.4875276655 1.5101307696 0.0012892258 8.1461556230 4.6532052207 2.5021976957 1.1643861648 4.7281181331 2.2096118056 4.0685063262 1.5799268311 4.6920385417 9.2590420922 1.5258451464 2.7524264076 6.3124841333 4.6075833737 0.2391084242 1.3237169081 4.6825419872 3.7857022155 3.9349177462 1.5616789927 1.2766801657 9.0386054178 1.5404484198 1.2076693685 6.5331232254 4.7374321653 3.6748539215 4.8101273446 4.6063495655 0.6133279930 0.3520919675 1.5483482006 3.0845165106 5.5797462297 1.5015302776 4.2938722140 10.0264200467 4.6260411112 1.7939483778 1.9130456094 5.9556444140 1.6086434092 3.3526311783 0.3382836404 3.9690297615 8.5399620475 2.7343806768 3.4800006869 7.1373561450 3.4473185841 0.9025567890 8.4606717443 0.3823452406 3.3402749508 7.0682116002 5.8208294997 1.0667496995 1.8132937749 3.4884621376 1.4857222313 3.3301718564 2.7550149850 3.9768248535
5.0662473057 -0.2244735289 2.5013194067 -0.2404942614 3.2311720026 0.1167776232 2.8748561517 4.7068280494 4.9356794368 2.3072924735 1.5989470625 2.4749193985 7.4230000103 1.4901618467 0.1269983527 8.0817229692 4.7653026007 2.6007678597 1.1536070127 4.6163891344 2.1478510723 3.9790438004 1.5046295504 4.6913549995 9.3475619547 1.5687559848 2.6942794048 6.3554167956 4.6312336805 0.2810410332 1.3203506086 4.4753628486 3.7085874564 3.7582342170 1.4319951947 1.1725726264 9.0260126051 1.5082933684 1.1905532094 6.4456943982 4.7111107241 3.8016629626 4.8552338444 4.4619503210 0.6422973148 0.4681508103 1.5374601817 3.0638734532 5.5089767691 1.6261990625 4.4532160580 10.0733326389 5.0073851995 1.8155494046 2.1684839203 5.7063703044 1.4943504853 3.3978641880 0.2336774865 3.8768548876 8.6996270411 2.9243535308 3.2092351464 7.2435000244 3.4912024120 0.9232812046 8.4958808542 0.4659992416 3.5050500503 7.0532848360 5.8717837476 1.0447852902 1.6181736086 3.2809585032 1.4079524186 3.1734138365 2.6535332049 3.9871360813
5.1314049562 0.0160458840 2.5063257179 0.0039281951 3.0803615561 -0.0067383572 2.7741276824 4.7366725078 4.9462987409 2.3190296016 1.6471771533 2.6816810191 7.4847317817 1.4021489401 -0.1250932106 8.0663687652 4.7437344369 2.5192987874 1.1464810544 4.8454350864 2.2612849482 4.0990346020 1.5392391671 4.8052591084 9.0286156699 1.5657483681 2.7270498785 6.3119158448 4.5126753690 0.2452712688 1.1386484157 4.7415012965 3.8743070373 3.9516969362 1.6601432374 1.2544245645 8.9572249792 1.5549319622 1.1578760259 6.5070779979 4.8815466958 3.8248884747 4.7994234385 4.4249477708 0.4874879079 0.1824909233 1.5787423447 3.1532560494 5.5726451072 1.3353071567 4.3637717153 9.9149594493 4.7488549152 1.8247832465 1.9176374707 6.1011155799 1.7730188024 3.2712261085 0.2931989953 4.2031667305 8.4548931798 2.8480050877 3.4400276421 7.1380346145 3.2826064415 0.6872366681 8.2735938905 0.4251204400 3.3805085678 6.8639030579 5.7879449555 1.1336095083 1.9701935524 3.7025090493 1.5492603533 3.3376555666 2.6789113558 4.0084510777
4.6836494104 -0.1284866900 2.6548410046 -0.0668926943 3.3404742522 -0.0465689110 2.9303990326 4.6098582747 5.0913147547 2.2013489615 1.7897841986 2.4019517147 7.2488328217 1.3760166059 0.1732222560 7.9373336871 4.9624829103 2.6404742089 1.2279189265 4.8538978215 2.3093345856 3.8677813556 1.4706673348 4.8446459461 8.9375480679 1.7952361568 2.8722445875 6.2212295717 4.6004621000 0.2087303449 1.2633304443 4.7150171440 3.8446213206 3.8538635882 1.6288052089 1.3160076318 8.8154173490 1.7579591588 1.3629861596 6.2391890230 4.7964662125 3.7700960785 4.7379789341 4.7065698015 0.7202767607 0.4199773257 1.6320002893 3.2722209469 5.3257515032 1.3822392967 4.3406320750 9.7549578664 4.9861017839 1.8099403173 2.0685143933 6.0357018002 1.5972180226 3.1361381040 0.1531461109 4.3167413192 8.1862905155 3.0392844796 3.4559580522 6.8888587486 3.3269026186 0.7256293263 8.1855297161 0.5882599372 3.5488438685 7.0309488414 5.7401347944 0.8726200475 1.9484586168 3.5958805053 1.7221025287 3.0920157047 2.6713077132 4.1618867420
5.3899162063 0.3290294623 2.4813441886 0.2207474799 2.8354350915 0.1865402647 2.9748282580 5.0430458487 5.1326419318 2.2714358968 1.5530251321 2.6539361780 7.4799736575 1.6394917310 -0.0146017927 7.9438981590 4.6623484499 2.5943661293 1.1200561544 4.9696324872 2.2700414507 3.9778010996 1.7807431609 4.7874956755 9.2542988564 1.6537111374 2.8601063921 6.2992019827 4.8530969050 0.3842115283 1.3677287142 4.9885414736 3.8359869903 3.6950637421 1.5430248340 1.2803022690 8.9922119081 1.7251516264 1.3167092399 6.4050623583 4.8745648479 3.8850210754 4.8205933139 5.0862815509 0.7850964969 0.4531856208 1.8379048836 3.1505551272 5.5259737528 1.6693125916 4.5357241407 9.9461182188 4.6806915781 1.9794244745 1.7052855741 6.2101903457 1.5065757291 3.3503142192 0.5616342743 3.9838216179 8.4179664412 2.8445031119 3.5802050861 6.9355134591 3.5728382547 0.9958412499 8.5553893867 0.3911909732 3.5359953380 7.1582256372 6.0599610044 1.0838627864 1.9332696792 3.7935749759 1.4948029018 3.4204367912 3.1002257588 4.1308836175
5.3434331503 0.3963913082 2.5675452009 0.2325971581 2.8685470435 0.3142468046 2.8886718651 5.1075047697 5.2454009244 2.3095003387 1.7127116081 2.5892334342 7.3916479348 1.5273527288 0.0323103436 7.8574843462 4.6945331476 2.7493036714 1.0796976514 5.0067625156 2.2959973579 4.0515749869 1.8408712364 4.8268439201 9.1355188291 1.7272311299 2.8965104076 6.1991276181 4.9441445589 0.3960476869 1.3570141153 5.0742532927 3.8067386856 3.6893155584 1.5269447846 1.2750997406 8.9157626335 1.7580708390 1.4008063573 6.3367904301 5.0893480817 3.9081064208 4.6680034739 5.1232330905 0.7840566537 0.4058293391 1.8533894696 3.2304842870 5.5711656857 1.7390687524 4.6147428894 9.7680420711 4.7707310624 2.1398332675 1.5945885343 6.2740106996 1.5330679170 3.3939305657 0.6689630137 3.9830607669 8.3436500326 2.8655408920 3.6418325917 6.8785909166 3.7049975616 1.1010571478 8.6430787684 0.4109714336 3.6004455141 6.9730096412 6.0558193656 1.0733851610 1.9159568590 3.8845379349 1.5892707956 3.3247107132 3.0819037482 4.2183769224
4.6685195608 -0.1490333058 2.5895798019 -0.1959995950 3.4156717853 -0.0644471764 2.9647376992 4.6779530568 5.0987806202 2.1869430955 1.6750088319 2.4017489344 7.2451057820 1.4736875736 0.1103420617 8.0383355639 4.9588666575 2.6742090762 1.2048965398 4.8375740934 2.2915359715 4.0583709205 1.4650329476 4.8514924520 8.9982799654 1.7512256252 2.9113244156 6.2800793687 4.6848253895 0.1874115714 1.2817886186 4.8711172911 3.8265132560 3.8386304267 1.6704532073 1.2376553065 8.8644862743 1.7543835367 1.3821416789 6.4917174003 4.8574094824 3.8353295778 4.7444064579 4.6307899321 0.5190665174 0.3852578853 1.4965640519 3.2992321485 5.5528187071 1.3308362839 4.4345390807 9.8063013255 4.9547919706 1.8259041540 2.0616726127 6.0396665190 1.6941663995 3.2422048613 0.2065031822 4.3354559025 8.4972413046 3.0861358702 3.5708627559 6.9263668518 3.4326101708 0.7568358422 8.1435294623 0.5462612513 3.6088472217 6.9020928562 5.8481921387 1.0645462105 1.9249882822 3.5973753539 1.5089729285 3.2894780436 2.6152183765 4.0664388492
5.3854557024 0.3557863834 2.5198066075 0.2169277380 2.8360118055 0.2413915078 2.9628286687 5.0818612096 5.1948757608 2.2907566894 1.6083545249 2.6542673154 7.4620660613 1.6097762410 -0.0003182564 7.9151429308 4.6824743176 2.6660868666 1.1148093912 5.0083196509 2.3035683071 3.9852073146 1.8225496388 4.8282485475 9.2189897496 1.6666256865 2.8981618823 6.2500935528 4.8768937608 0.3945233134 1.3415412899 5.0303154914 3.8498320642 3.6973583762 1.5302279430 1.2519533127 8.9843166763 1.7494042299 1.3431425726 6.3792038900 4.9493013248 3.9041033873 4.7896446054 5.1169228797 0.7888320100 0.4696638400 1.8537286943 3.1931044423 5.5418096243 1.6958642749 4.5840576432 9.9091293645 4.7060249643 2.0440733921 1.6758084883 6.2648567777 1.4882724127 3.3725337386 0.5996363268 3.9811530868 8.3924610075 2.8764577842 3.6173334004 6.9306833019 3.6301263713 1.0346544832 8.6232919388 0.4196902842 3.5487312406 7.1344045367 6.0894919654 1.1113682493 1.9327295582 3.8120213265 1.5107612004 3.4117137613 3.0947474693 4.1741827673
4.8935115944 0.1226010701 2.7641236974 0.0975016995 3.2123896066 -0.2380682207 2.6430354875 5.1570012917 5.1490440607 2.2960584180 2.0255836804 2.5314215775 6.9872109328 1.3467974271 0.0150921024 7.5798247130 4.7048438088 2.7227068369 1.0569227234 5.0986456518 2.3026376297 3.7455736876 1.8121084184 4.8205559135 8.7110897279 1.6637288998 2.8713335801 5.9205014809 5.1110220710 0.3683919048 1.1554648749 5.0540502365 3.8421394544 3.6859548121 1.8503649560 1.1735073864 8.4138043394 1.8445053287 1.3682948572 6.1382266649 5.1431982316 3.9939917646 4.4196450519 4.9964869306 0.7049246911 0.5423502432 1.6248613460 3.2165590850 5.2710110754 1.8576505771 4.4122326323 9.3130009215 5.1123830650 1.7286652325 1.9675477628 6.2775571484 1.7566345596 3.1606885182 0.5145034006 4.1357150438 8.0817782046 2.9962278099 3.5652496581 6.6384996675 3.9469796923 1.0579650755 7.9308435602 0.5457362087 3.6235182891 6.4327659835 6.5222186051 1.0223871241 1.7369087662 3.8115694446 1.6283233154 2.9957931865 3.0245511348 4.1502715959
4.6541907966 -0.1271574391 2.6427205621 -0.1659942703 3.4057621202 -0.0669790539 2.9681880105 4.6621944479 5.1115525525 2.1965443128 1.7148532499 2.3969412872 7.2471137712 1.4504249206 0.1355783051 8.0132583412 4.9750034047 2.6858615937 1.2008923421 4.8613860417 2.2941033753 4.0168444688 1.4512282092 4.8536731299 8.9591699167 1.7626080583 2.9329352109 6.2692795592 4.6271689275 0.1883727975 1.3006038448 4.8849055398 3.8236961411 3.8533178558 1.6707237233 1.2359509633 8.8571663091 1.8148299566 1.3660794412 6.4065416598 4.8693525746 3.8029175710 4.7590808565 4.6608403335 0.5634381093 0.3570842792 1.5254758041 3.3263789491 5.5093003842 1.3317084391 4.4278808805 9.8204984913 4.9837900927 1.7937618083 2.0308391638 5.9816980415 1.6989918817 3.2107472954 0.2260776885 4.3726997328 8.4274135970 3.0863897625 3.5626353663 6.9179617460 3.3895621705 0.7663209528 8.1552562767 0.5176700000 3.6320867449 6.9685426148 5.8988080482 1.0512687282 1.9789543256 3.5941504566 1.5933137628 3.2251744438 2.6191983626 4.1024847609
4.8381942950 0.0676914536 2.7830929731 0.0707173959 3.2491837065 -0.2275785059 2.6334588295 5.1769410115 5.1420692941 2.2918700242 2.0235868452 2.5410652175 6.9538297557 1.3688182781 0.0062437087 7.5646111214 4.7031216107 2.7333804249 1.0885197339 5.1248871735 2.2615219013 3.7265221730 1.7961044054 4.8406382499 8.6911592594 1.6442343339 2.8459169402 5.8949846616 5.1025414546 0.3513769784 1.1834124471 5.0377821675 3.8148346420 3.6317516781 1.8639829925 1.1930298009 8.4212102213 1.8487265996 1.3855454089 6.1513892765 5.1356843713 3.9695917289 4.3846288286 4.9866950488 0.7130063408 0.5066743451 1.5894497475 3.1739420358 5.2126009332 1.8365679219 4.4327663105 9.3067015402 5.1597322032 1.7193916996 1.9725749822 6.2986996643 1.7244171098 3.1687318442 0.5080303850 4.1467763264 8.0880016827 2.9988388977 3.5253609108 6.6493564054 3.9593132476 1.0667723491 7.8878465351 0.5540995855 3.6191059180 6.4351682420 6.4884232722 0.9944584702 1.6821474064 3.7482852853 1.6219129654 3.0415394540 3.0054036031 4.1638291415
5.3209844938 0.4064791570 2.5752710450 0.2469479277 2.8917682810 0.3211079955 2.8518271614 5.1136629114 5.2456767996 2.3061361034 1.7482260676 2.5607982497 7.3672629152 1.4977100507 0.0432779704 7.8429168489 4.7000707844 2.7615875276 1.0533430924 5.0159721320 2.2916815527 4.0550816487 1.8351557345 4.8141647042 9.1091673205 1.7337542876 2.9069446994 6.1688961884 4.9509279014 0.3957113764 1.3898949755 5.0790477380 3.8173025432 3.6986033311 1.5407815849 1.2950612790 8.8628475163 1.7568652507 1.3736201011 6.3259777056 5.1327463524 3.9092721486 4.6454267183 5.1119493841 0.7730990596 0.4157881694 1.8667216486 3.2248354330 5.5901939850 1.7617502195 4.6053934499 9.7074553196 4.7925814080 2.1565730183 1.5748997431 6.2658489195 1.5599233188 3.3957313377 0.6823776837 3.9859620156 8.3059544254 2.8737371339 3.6531467570 6.8412516331 3.7216896166 1.1067080426 8.5932513349 0.4113178050 3.6251269858 6.9325278901 6.1121284973 1.0727510834 1.9133300610 3.8806717210 1.6131081697 3.2924193780 3.0916021549 4.2302982900
5.0919389541 0.2831998878 2.5818963947 0.2458712591 3.1113726943 -0.0643202555 2.6508189032 5.1010166584 5.1332466033 2.2754830730 1.9931726616 2.4287938934 7.1358278781 1.3086850024 0.0291195927 7.6273669638 4.6867728672 2.6289503803 1.0309259247 5.0569953063 2.3610705876 3.8705400538 1.8519581731 4.7392224584 8.7262283213 1.7258033341 2.8475766366 5.9293728660 5.0650120500 0.3557914204 1.0451157215 5.0199412193 3.8961520098 3.7884513021 1.7165029641 1.1794808665 8.5288646473 1.6844448510 1.3501713883 6.1995522144 5.1782170370 3.9190562794 4.4183122921 5.0641888182 0.6461964845 0.4157670014 1.7866286541 3.1786477235 5.3540844187 1.9209571218 4.2740173503 9.3704847432 4.9292499811 1.9916786557 1.7700967500 6.2496443098 1.6305056736 3.1533857001 0.6140933411 4.0762341944 8.0845030678 2.9781623564 3.6711066990 6.7267191537 3.9849099017 1.1236052776 8.1210294740 0.4880777588 3.5328757141 6.4604173195 6.4022290777 1.1179451803 1.8106479224 3.8051113403 1.5983660703 2.9934043886 3.0001181297 4.1697932294
4.7425675444 -0.1180752606 2.7525258562 0.0210487323 3.3590768141 -0.0976548931 2.5956637671 5.2335475475 5.1143492485 2.2352905867 2.0137257970 2.5754314661 6.9055732573 1.4097666548 0.0025948006 7.5669268942 4.6722793461 2.7108364517 1.1170683994 5.0815239373 2.1995106113 3.7347168119 1.7474520652 4.9037114354 8.5803143927 1.6553643150 2.7845310091 5.8581256626 5.0523489196 0.3259719783 1.2418979118 5.0117048879 3.7381624856 3.5617303263 1.7802813954 1.2495012436 8.4045793809 1.6855656454 1.1982513267 6.1039101098 5.0605949089 3.9736370744 4.3583391291 4.9704836504 0.6717751923 0.5031257467 1.4686662460 3.1110715334 5.2645278505 1.7591518422 4.4985728367 9.2384032236 5.2897091132 1.8707836671 1.9654747162 6.2353336512 1.5254743790 3.0754015610 0.4694545832 4.2473697013 8.1153898940 2.9712978193 3.5062274389 6.6958370418 3.9765459643 1.0843709033 7.8249127461 0.5133556618 3.5384128078 6.4066393537 6.3798944207 0.9411214137 1.5587013447 3.7431919870 1.5716333485 3.0402251423 2.9707424569 4.1754082509
4.6535863424 -0.1255981329 2.6471900710 -0.1619069558 3.4041399643 -0.0667113109 2.9679213600 4.6599045821 5.1119475261 2.1974335779 1.7191815265 2.3965042935 7.2475271933 1.4473804165 0.1385070354 8.0101509926 4.9759955871 2.6860250236 1.2002974276 4.8620945313 2.2934618218 4.0103085504 1.4505026980 4.8531082703 8.9550964632 1.7628997734 2.9341120592 6.2667138121 4.6233318969 0.1889490103 1.3018858491 4.8825673107 3.8239688917 3.8553763325 1.6698473065 1.2370740225 8.8553244673 1.8191029671 1.3655191123 6.3964014910 4.8692664396 3.7993784000 4.7605751952 4.6641735534 0.5687492989 0.3558395961 1.5288796314 3.3277214730 5.5019069478 1.3322528480 4.4259802131 9.8226423504 4.9861839381 1.7917050495 2.0293154997 5.9782455014 1.6967113828 3.2079544027 0.2260355924 4.3749941839 8.4176762721 3.0848087410 3.5597402388 6.9189187005 3.3812098801 0.7677656045 8.1584601495 0.5187622322 3.6318263887 6.9747637954 5.9012194941 1.0471298527 1.9817435598 3.5951552216 1.6036967090 3.2188040244 2.6198771162 4.1060791011
5.3346732723 0.2280712204 2.4008893642 0.2426388004 2.9314788977 -0.0018284688 2.9579883935 4.8034957593 4.9085029551 2.2048429649 1.3870537346 2.5288587845 7.4601106499 1.6672190758 -0.0112113966 8.0726005327 4.5523170715 2.4042410036 1.1127906882 4.7105007105 2.1830652020 4.0588001793 1.6933254249 4.7534886958 9.1483322806 1.5473619763 2.7299433693 6.3138342381 4.6505687708 0.2674872499 1.4059911984 4.7371192866 3.7253189997 3.8000926654 1.6257269998 1.3136962930 9.0209521175 1.5594830782 1.1626259907 6.5432848358 4.7081033279 3.7051768047 4.8684449082 4.8551309654 0.7298583159 0.3336383421 1.6278444009 3.1186965684 5.5664139953 1.5174720209 4.3615389345 9.9433331792 4.6661080301 1.8252805618 1.7054943741 6.0372353629 1.5921336000 3.2768625872 0.4803216593 4.0414151489 8.4855343525 2.8271208854 3.4992667364 6.9712883061 3.4256630752 1.0103572740 8.4439371916 0.3364607672 3.4451718206 7.1806202529 5.8510973378 1.0103703119 1.9905218311 3.5883553000 1.4319678485 3.3318653220 2.8816113946 4.0511316608
5.1519199188 0.3490141486 2.5394379929 0.3041223263 3.0660314426 0.0834510525 2.6529587752 5.0948677646 5.1253110656 2.2657881696 1.9458572754 2.4100305860 7.2162196891 1.3238637026 0.0377839205 7.6759227717 4.6972546129 2.6543516548 1.0737530278 5.0499801400 2.3377657733 3.8974567883 1.8234596581 4.7338233195 8.8084621223 1.7247705206 2.9029749966 5.9694568711 5.0679206514 0.3581416996 1.1983528841 4.9923447926 3.9066313645 3.8212468799 1.6656865401 1.2845512152 8.6042779896 1.6934793732 1.3179786102 6.2718674920 5.1916024855 3.8906693372 4.4599716620 5.0511063460 0.6576218103 0.4223515771 1.8896449926 3.0903368102 5.4125609951 1.9317564797 4.2819463472 9.4777455303 4.8610673050 2.0584325626 1.6297894620 6.2550842137 1.5757645493 3.2417950351 0.6068992818 3.9950722359 8.1166186317 2.9270218879 3.6348118832 6.7164826012 3.9174737352 1.0962739654 8.1344730867 0.4728657253 3.5962374701 6.5643011138 6.3242724641 1.0803307018 1.7259328182 3.8025082892 1.6541755313 3.0934265426 3.0872655605 4.1862262749
5.3624537323 0.2570038070 2.3987687435 0.2395154201 2.8816901116 0.0502850245 2.9666385124 4.8796092098 4.9495164524 2.2240616336 1.4245863445 2.5662373012 7.4758631684 1.6684704086 -0.0219227631 8.0260449520 4.5796812621 2.4320347008 1.1163138031 4.7632294145 2.2018155748 4.0292077936 1.7268658654 4.7432195605 9.1748135111 1.5595259504 2.7592433501 6.3363944833 4.7355880592 0.3138652308 1.4224312601 4.8352104097 3.6960156869 3.7365573776 1.6002088551 1.2525476265 9.0110549410 1.6122085405 1.2201577283 6.5097055923 4.7337473122 3.7464939712 4.8700095560 4.9381070178 0.7626176140 0.3685801282 1.7163254109 3.0953134844 5.5324352160 1.5640585539 4.3888259579 9.9325038676 4.6579510924 1.8549162659 1.7322024968 6.1037124534 1.5862718230 3.2798484773 0.4805604147 4.0071049210 8.4876556239 2.7866511446 3.4974241649 6.9618326469 3.4400047071 0.9914617132 8.4781241030 0.4073206886 3.4445481247 7.1630902002 5.8893792473 1.0105224002 1.9753495586 3.6854899750 1.4585872705 3.3806345813 2.9314590167 4.0651636285
5.2681824086 0.1393384183 2.5179558924 0.1692980864 3.1123564089 -0.1045067556 2.9728426508 4.6230724171 4.8923726281 2.1932317759 1.4483691954 2.4758801585 7.4296297946 1.6068379902 0.0763321379 8.2347563742 4.6099343036 2.4595138097 1.1381901429 4.6019410176 2.2170503340 4.0770814892 1.6520991018 4.8441762793 9.2209140555 1.5343491126 2.7683851897 6.3164028948 4.5923114639 0.2643996153 1.2386618965 4.5204864783 3.7651492421 4.0908807073 1.6419967211 1.3872644126 9.0706215947 1.5946557823 1.2095323631 6.4778014886 4.6310226373 3.7150597487 4.8343008431 4.6215260115 0.5780888137 0.3514383879 1.4108519627 3.2530864131 5.5629414965 1.5530734486 4.3810096999 10.0160727544 4.6123302009 1.7579659055 1.8056768212 5.8347335857 1.4142454876 3.3235393332 0.4048230160 4.0866164820 8.4921905318 2.7817651385 3.4147784575 7.0114090851 3.3606294451 0.9821521497 8.3941872546 0.3559204525 3.3754282750 7.0854749775 5.8187553319 1.0193325659 1.8575824554 3.3474259281 1.5135298236 3.3597392265 2.8400468007 4.1412146959
5.3647670036 0.2599005474 2.3997644344 0.2389152485 2.8776450595 0.0555549684 2.9674206884 4.8868667934 4.9546045144 2.2260582355 1.4291538300 2.5702968036 7.4770399236 1.6680693398 -0.0225994666 8.0216801937 4.5828474694 2.4359320442 1.1176467423 4.7696988561 2.2038326825 4.0263074983 1.7290712508 4.7419670796 9.1793163093 1.5629723169 2.7614111935 6.3398278386 4.7447454192 0.3185189732 1.4217264137 4.8433606933 3.6949899328 3.7323574448 1.5973148350 1.2502329352 9.0106490080 1.6177494141 1.2287938829 6.5048118196 4.7368480924 3.7523543973 4.8676594308 4.9456731875 0.7648263513 0.3706124417 1.7238805476 3.0939215012 5.5284536465 1.5691006336 4.3928949891 9.9334740583 4.6571486115 1.8580519172 1.7332914523 6.1073392219 1.5835969265 3.2816113244 0.4816129246 4.0040643846 8.4872039245 2.7829017581 3.4969974490 6.9605101339 3.4423817019 0.9892882191 8.4806627138 0.4109713938 3.4458750677 7.1598033926 5.8917658827 1.0097666849 1.9714881967 3.6956195290 1.4620798638 3.3849330561 2.9385072148 4.0663938625
5.3494009872 0.2425349073 2.3974379779 0.2417880229 2.9047359293 0.0241088582 2.9623435200 4.8425714293 4.9274680252 2.2140948507 1.4036381575 2.5468942847 7.4687651074 1.6692347168 -0.0175123653 8.0487739968 4.5649370220 2.4159318965 1.1112462429 4.7351782568 2.1915786184 4.0443493363 1.7122029206 4.7493227965 9.1576730967 1.5491079310 2.7462093609 6.3205793715 4.6899649772 0.2900430877 1.4202642122 4.7900127242 3.7097710379 3.7627598664 1.6139984712 1.2767579423 9.0142662053 1.5846943606 1.1823858127 6.5308704196 4.7204414185 3.7213751946 4.8760226598 4.8983672764 0.7486594627 0.3548389365 1.6746847987 3.1056065239 5.5523219911 1.5394022396 4.3724644026 9.9330227282 4.6626878232 1.8401519551 1.7220708839 6.0782693002 1.5948876018 3.2749003438 0.4787638585 4.0241872343 8.4872282827 2.8088408386 3.5006229780 6.9674554934 3.4317293658 1.0020837727 8.4617469007 0.3761912997 3.4437584476 7.1771201526 5.8757920859 1.0134857954 1.9899861797 3.6339726817 1.4421258269 3.3561533276 2.9027226185 4.0583614365
4.8559082962 -0.1550372333 2.5477178382 -0.0017648065 3.1435709675 0.0851458227 2.8235681632 4.6063778883 5.1523227416 2.2333864697 1.8143503699 2.5726799111 7.1865193302 1.3329710660 0.0684997197 7.8425253723 4.8753204161 2.5785341903 1.1394827198 4.8412412741 2.3763370134 3.8385172999 1.5134060652 4.9264126432 8.9119761464 1.7457781187 2.7067351084 6.1346741022 4.4732382988 0.1987000175 1.3003838128 4.6746063097 3.9258023498 3.7687451823 1.5020088400 1.3651150821 8.9793593462 1.4999791637 1.1752309188 6.0980209043 4.7171748405 3.7920213494 4.7003615648 4.6915493061 0.8069138360 0.3868541430 1.9269274858 3.2412614917 5.3065113781 1.5285648346 4.4403209327 9.5904555026 4.9329045062 1.9772955941 1.8950684772 6.1112243312 1.9054855975 3.0737382443 0.3008426678 4.2531087052 8.2633668595 3.0691548015 3.2566372596 6.7414489856 3.1847635214 0.7007489012 8.1768718339 0.5937464593 3.4885827296 6.9487901236 5.6191377308 0.8885746429 1.7790983998 3.7235996814 1.4698002087 2.9673313650 2.7162280185 4.3838238531