-30088.5575816907
-30088.6821191511
-30088.9813771441
-30088.6494090436
-30088.6590196913
-30088.7978331887
-30089.0137667017
-30089.3614203883
-30088.6929616575
-30088.3263970212
-30088.6421867378
-30088.5662598047
-30088.4089280177
-30088.7461226061
-30088.4941669537
-30088.501282999
-30088.5188339244
-30088.4577800459
-30088.5146069102
-30088.5465419019
-30088.7948290534
-30088.5074510002
-30088.816348349
-30088.7436353508
-30088.9624838818
-30088.9574724999
-30088.9562409133
-30088.9177958735
-30088.4044686184
-30088.5500419643
-30088.9659666651
-30088.8437199939
-30088.710457752
-30088.482296946
-30088.7527540169
-30088.5288190006
-30089.0410212016
-30089.0834619589
-30088.6258048128
-30088.4767507245
-30088.6717314827
-30088.8985321284
-30088.7454234099
-30088.9590493988
-30088.8133957793
-30088.5810059182
-30089.7549385667
-30088.8918785403
-30088.6406072539
-30088.5198589768
-30088.767549383
-30088.6841585072
-30089.026784485
-30088.6968489377
-30088.5384678802
-30088.8741934628
-30088.6210226867
-30088.6059168389
-30089.1620479871
-30088.7880255307
-30088.8755498136
-30088.5743768203
-30088.423929918
-30088.5480122682
-30088.7352931611
-30088.5882080875
-30088.7346289316
-30088.7107754447
-30088.4061312331
-30088.4390081463
-30088.7754457144
-30088.6052071664
-30088.7702660301
-30088.5912069166
-30088.7398092961
-30088.6554784036
-30088.5497435917
-30088.5741202171
-30088.7351165593
-30089.6183321835
-30088.5050757198
-30088.5771704756
-30088.546695374
-30088.7373982327
-30088.7375423169
-30088.6802304099
-30088.7440016158
-30088.8054329161
-30089.0615603436
-30088.5906207837
-30088.7756687115
-30088.5481966253
-30088.5083787719
-30088.6490718947
-30088.6334211392
-30088.5519108412
-30088.6121734131
-30088.645659725
-30088.3658619431
-30089.7204635298
-30088.6047638932
-30088.5223311297
-30088.5551957978
-30088.6721384287
-30088.5143428239
-30088.7979510139
-30088.4938250428
-30088.7940003312
-30088.935382718
-30088.5374869104
-30088.6344972128
-30088.7539211126
-30088.2776142459
-30088.6322811189
-30089.035754577
-30088.9006404654
-30088.6093359475
-30088.6414110777
-30089.2516648243
-30088.3854953547
-30088.9494542616
-30088.7017397733
-30088.4875457471
-30088.9972793327
-30088.7246326988
-30088.7193973673
-30088.7248952885
-30088.4408596079
-30088.7670814835
-30088.597133825
-30088.609375404
-30088.6819445901
-30088.8360356391
-30088.6385251759
-30089.0237263352
-30088.6827044676
-30088.5006204022
-30089.6742969917
-30088.6376448881
-30089.1910229259
-30088.754867388
-30088.6165277766
-30088.6349169482
-30088.6966984588
-30088.5327692752
-30088.5089459929
-30088.4995411992
-30088.7839013754
-30088.6770224615
-30089.1240535676
-30088.6331306579
-30088.5917903283
-30088.672055162
-30088.6245752671
-30088.4149200974
-30088.7575859399
-30088.8419864936
-30088.5650574704
-30088.4811509391
-30088.9620743507
-30088.6270493248
-30088.3949748435
-30088.7672465204
-30088.7867878215
-30088.731214721
-30088.4209195242
-30088.4340672418
-30088.7087222108
-30088.4471929182
-30088.8188866256
-30088.4958971886
-30089.0987932529
-30088.7036108271
-30088.53099074
-30088.2964553985
-30089.1658558101
-30088.6556550054
-30088.6583311075
-30088.61478897
-30088.4235486868
-30088.6246782621
-30088.3832074227
-30088.6227125128
-30088.8277254228
-30088.8043176581
-30089.7829681825
-30088.6832213476
-30088.9357122476
-30088.7797374916
-30088.4205807426
-30088.5433525933
-30088.5521187361
-30088.7531398742
-30088.9882847504
-30088.7359323562
-30088.7090226243
-30088.4507308044
-30088.7766276402
-30088.6860254793
-30088.8647798254
-30088.5449240499
-30088.5386876121
-30088.6602624345
-30088.4897936784
-30088.8233551407
-30088.5701932083
-30088.4616571219
-30088.8746197289
-30088.5484608477
-30088.8423645955
-30088.6544971616
-30088.5364633547
-30088.5476998817
-30088.9003661747
-30088.6097737785
-30088.4053237357
-30088.508041487
-30088.7104916301
-30088.4793860097
-30088.5148093628
-30088.6797165232
-30088.6266154396
-30088.9463552947
-30088.9191254211
-30088.5996556388
-30089.0264695134
-30088.8719104289
-30088.5113033139
-30088.686596782
-30088.6254686164
-30088.3427298296
-30088.8359723726
-30089.0145502531
-30088.766367185
-30088.6493076812
-30088.6925687253
-30088.2783926272
-30088.621021054
-30088.6207345183
-30088.4462024243
-30088.6329661651
-30088.777081934
-30089.0078765286
-30088.6909295124
-30088.6087571617
-30088.5831269084
-30088.7153817854
-30088.6301602647
-30088.9028195519
-30088.4609180611
-30088.846867533
-30088.6175427607
-30088.6190664613
-30088.6198945033
-30089.2135890429
-30088.4342038429
-30088.6926272297
-30088.4918787496
-30088.8486159996
-30088.7169056221
-30088.5230244754
-30088.4826932796
-30088.4902442986
-30088.5796052129
-30088.6316026034
-30088.8924946057
-30088.7666099104
-30088.6093204371
-30088.4467629785
-30088.6676873289
-30088.6638694377
-30088.5902512533
-30088.4110343138
-30088.9210381082
-30088.485571018
-30088.5937231519
-30088.5988729037
-30088.8073216573
-30088.6161492664
-30088.9994325684
-30088.5078085576
-30088.5028932318
-30088.564566033
-30088.5713071057
-30088.8523805566
-30088.5562694224
-30088.388413502
-30088.8505942662
-30088.99335763
-30088.7157298188
-30088.535123875
-30088.6675964429
-30088.6204541051
-30088.4010354959
-30088.6206833609
-30088.7332871389
-30088.7137824372
-30088.2723304782
-30088.7445039377
-30088.8087346077
-30088.9598607058
-30088.5151945398
-30088.8238212715
-30088.5225440587
-30088.7635642778
-30088.7236676476
-30088.5461589018
-30088.9452450708
-30088.5291013185
-30088.4639402919
-30088.6842606859
-30088.5820399503
-30088.8339775071
-30088.429271646
-30088.6400797614
-30088.6097777241
-30088.6114272774
-30088.9451695593
-30088.7114769538
-30088.9235868612
-30088.6617870876
-30088.6402971803
-30088.9893564702
-30088.642603616
-30088.7674542792
-30088.6316404272
-30088.5065732975
-30088.6303718331
-30088.9387523019
-30088.7981146903
-30088.8657104543
-30088.8369035457
-30088.5414378652
-30088.9618758438
-30088.7618575807
-30088.6180958317
-30088.6381937414
-30088.9321388505
-30088.8084826304
-30088.5983643232
-30088.9816657207
-30088.702830405
-30088.8215476254
-30088.532984245
-30088.8311518785
-30088.4131110855
-30088.7259596612
-30088.8346515327
-30088.6123730085
-30088.5555205655
-30088.6059991533
-30088.605376149
-30088.8096378891
-30088.4959235837
-30088.943036596
-30088.6065756262
-30088.7633521652
-30088.4566641076
-30088.6312349778
-30088.930105753
-30088.4907617228
-30088.6262229155
-30088.688729337
-30088.5334386749
-30088.5535265163
-30088.5156933242
-30088.8530934945
-30088.9350591748
-30088.6089620633
-30088.8655505875
-30088.5268810068
-30088.9763922933
-30088.6277188606
-30088.7973395744
-30088.7790457786
-30088.6182976041
-30088.3731208481
-30089.0663241021
-30089.0233331309
-30088.6196135459
-30088.6369382088
-30088.6787184101
-30088.6238284511
-30088.4344332347
-30088.9613567869
-30088.6899380661
-30088.447393602
-30088.4159689597
-30088.9279091152
-30088.5173190675
-30088.967053079
-30088.6245996213
-30088.9635126077
-30088.4530557439
-30088.4422898375
-30088.629502702
-30089.2245659734
-30088.5867076526
-30088.6789552851
-30088.5747081188
-30088.5897468905
-30088.5561060181
-30088.5370105753
-30088.5833114015
-30088.6320857412
-30088.4761980616
-30088.5752841835
-30088.8003879281
-30088.4061049741
-30088.546736055
-30088.9118427061
-30088.5314620409
-30088.4613243268
-30088.5039842717
-30088.8638158627
-30088.7116443038
-30088.7070700725
-30088.2926087992
-30089.303476089
-30088.5951743343
-30088.7569121864
-30088.7439274649
-30089.1313379153
-30088.7736481313
-30088.7306944396
-30088.6479205816
-30088.5700804171
-30088.771077065
-30088.7248665805
-30088.5891011647
-30088.6317551231
-30088.6362290805
-30088.6799939431
-30088.4910645854
-30089.55585447
-30088.8973008139
-30088.7926043879
-30088.8727762947
-30088.5271831891
-30088.6837246219
-30088.5108053458
-30088.7204386104
-30088.7131148062
-30088.4088036617
-30088.6070603967
-30088.6394630157
-30088.6177782751
-30088.5442045812
-30088.9885602655
-30088.5506617033
-30088.7761903535
-30088.6794981519
-30088.5720181388
-30088.4645224791
-30089.2103893939
-30088.5521734309
-30088.5920205365
-30089.2266431533
-30088.9812654415
-30089.2302496123
-30088.7683220498
-30088.5010480288
-30088.5948829005
-30088.6685017652
-30088.6527240687
-30088.5229843386
-30088.61441563
-30088.5689978128
-30088.6195606198
-30088.6353770925
-30088.4403487144
-30089.1605347628
-30088.5297538472
-30088.8409411688
-30088.5346290362
-30088.470912253
-30089.776222756
-30088.8222715839
-30088.5533454246
-30088.9929423845
-30088.6929178472
-30088.6183940684
-30088.9275051624
-30088.6177694314
-30088.6543412404
-30088.6180024968
-30088.9752837021
-30088.8098995264
-30088.619324289
-30088.6995868097
-30088.8317846789
-30088.6350161337
-30088.7020879428
-30088.4119046694
-30088.8254087828
-30088.5547647697
-30088.594070233
-30088.4976885131
-30088.7451039484
-30088.9492737141
-30088.4997882785
-30088.5693893844
-30088.5654931244
-30089.1890077879
-30088.9887934669
-30088.6426591272
-30088.5422792408
-30088.6367360283
-30088.6042004818
-30088.7480559739
-30088.6302846207
-30088.7104629221
-30088.5245738908
-30088.5150252851
-30088.8016689034
-30089.4901120724
-30088.6401254765
-30088.6158502134
-30088.6087496786
-30088.5604097684
-30088.7045475785
-30088.855806332
-30088.6542080408
-30088.6352546413
-30088.5403638324
-30089.4243450485
-30088.7659752052
-30088.7777290204
-30088.5236172751
-30088.5341769193
-30088.4100171528
-30088.7876917832
-30089.0950956359
-30088.7572657981
-30088.6912378172
-30088.6380500654
-30088.542801427
-30088.7023995129
-30088.6805531367
-30088.4614791595
-30088.7918111765
-30088.6395264182
-30088.6969562866
-30088.8096844206
-30088.6226287017
-30088.7633389677
-30088.6729351777
-30088.6391484523
-30088.6259497134
-30088.3151160036
-30088.6085193343
-30088.9329521984
-30088.5602671808
-30088.8748419098
-30089.1294818277
-30088.4322613592
-30089.0022833675
-30088.8801588754
-30088.9701173514
-30088.612981999
-30088.8108930135
-30088.9730848873
-30088.5621715685
-30088.7943573443
-30088.5335234383
-30089.2060758476
-30088.7822643394
-30088.5083780916
-30088.9287646407
-30088.4042241242
-30088.6136322147
-30088.5727124369
-30088.8419271728
-30088.6339918977
-30088.6697532161