0.530772605800114 -0.384878003437942 -0.595856706248009 0.189447781847475 -0.152704422674742 0.0879954459841548 -0.393847292179314 0.181000169667841 -0.185833841112239 -0.174705083942063 -0.212128242439211 0.724105065405749 -0.221244341095197 -0.0584663414421847 0.115804740510616 0.000935623956710746 -0.266818920840918 -0.461778887906288 0.824493993551302 -0.77051679590801 0.704789148671534 0.0783512430118492 0.937841274930771 0.441183333790224 0.95337767197176 0.245147360608109 -0.986718949200224 0.387001476441095 1.46766642970575 0.429902110281404 -0.371195627928099 -0.905611742134519 0.259318245466056 -0.24983807879064 -0.141125465573761 0.781109478346186 -0.0601774097114647 -1.05130014212975 0.841803679525909 0.427699961562188 -0.468850703495552 0.768223630183936 -0.467877541452092 -0.012690701533192 0.446245576187498 0.903368455785989 0.20131675923512 -0.530083550509104 -0.134088874079598 0.301367844599931 -0.109606842434092 -1.07348797961045 -0.199798780713432 0.66602336079765 1.04786386453112 1.79396393478016 -0.746473137124881 -0.15459778206392 -1.030225077522 -0.681155323520446 -0.344870116268958 0.0261290794791663 -0.00754541254674093 -0.376121601928269 1.10255068628008 -0.402739447865723 -0.0693202478265057 0.730126585896589 -0.412010069741821 -0.674722169626283 -1.70811870125821 -0.729260638799528 -0.787476040702898 0.0319665090788258 -0.417459777185195 0.210257765856339 0.344157149730909 1.92832637409469e-05
0.00661853033625942 0.0427504814933129 -0.62489370189931 1.13711066577697 0.398999780250895 0.545044534960064 -0.189723918184246 0.357796844950339 0.106231499948877 -0.263027059858898 -0.784441626320622 0.450922924640502 0.226884567184333 0.221715366950843 -0.310726398158688 0.346779159379312 -0.379063456644588 -0.476068043448513 0.71226771257064 -0.522800133239057 -0.156566474736779 -0.595592911200032 -0.377138472702875 0.438402944268963 0.0741492912876052 -1.06175989860321 1.34747847479172 0.420493677347104 1.93866143212929 1.47311922247132 -0.465400799057205 -0.912059808419308 -0.755310785452448 0.726318526973026 0.586987947588272 -0.471725709564235 -0.738319916105025 0.0934839770651947 -0.126522635608017 -0.444752794463765 -0.153855762075168 -0.379975426464443 0.170206941286758 -0.578758364844003 -0.673810456916611 -0.0607008860444856 0.266126266007343 -0.0678310656453382 -0.435904347508503 0.0805477353070346 0.233623425086336 0.166642365706698 0.299871206223451 0.847669905466088 -0.82583353760584 0.123043163498601 -0.114057933925869 0.160791052157146 0.444941513338243 -0.206614257450033 -0.48698802714992 -1.10976776912286 -1.57117076194129 -0.171987429305506 -0.263393698980159 0.307063863598824 0.52213293231362 1.67709861476379 -0.205376529028047 -0.0893061936981727 -1.58784744264482 -0.0883278894510487 -0.258325028828306 1.4967777302 0.555956034025424 0.355466912470066 -0.297916140390302 -0.0765345024572688
0.0461962721687285 -0.158429238014154 0.246126693295966 -0.717403488480312 -0.670336641231225 0.479008612613916 0.111563965148707 0.24237674127381 0.404346643620985 0.270022513723747 0.764529213961354 0.050383054392163 0.0751229675514314 -0.387178882467512 -0.000770302108905027 -0.815209744835494 0.07683712114291 0.402430915645868 -0.803527172330679 0.786324187082105 -1.77741452361731 0.46217355203752 -1.08924369163772 -1.19229808105264 1.70452044424415 0.430971431533385 -1.35507196694272 -0.418942788721966 -1.35691159030361 -0.904678946389823 0.684860024150357 0.842026594054754 0.12436599539123 -1.27092803150309 -0.252241287673128 0.61441440505193 0.0474491700915237 0.276504518552721 -0.0332332909515144 0.394365369198488 -0.152260136278151 0.215921131861963 0.0601979785261217 0.261652805929627 0.652891972410432 0.18711604959592 0.305482378861883 -0.189233609064859 0.365273866188345 0.174108074096644 -0.299836496348717 -0.162466382110959 -0.21112139896175 0.0254158558309345 0.510121772994659 -0.855461372458163 1.08844125075592 -0.036166403921604 0.387898790980507 0.0661554785813415 -0.225198181492641 0.7073458523334 0.615369569382564 0.0303032633036233 0.641226369177709 -0.396124774182212 -0.955626100523955 -1.37438556968529 0.833925566402091 0.351536469099295 0.945200539704866 0.46265614785141 0.490814083786307 -0.68444247721282 0.0554290988478939 -0.386169210778036 0.349527153017488 -0.18862065838808
-0.163645746521355 0.0916168429147046 0.0822629173392461 0.093490404819775 0.301789762410583 -0.359255945240071 -0.36177768191702 0.0154471798074146 -0.20448358536175 0.039728665510015 -0.208100611419185 -0.294548768320766 0.509399293379832 -0.374428274261631 -0.0984816848064817 0.145796386272185 0.123329841352883 0.343511803171046 1.01315141869558 -0.870793109793315 -0.580015119419546 -0.185478771949222 0.854797771075292 0.0600262289237357 -0.502117161660701 -0.69192618331559 0.314436498102446 0.129230520057613 -0.0731049097233955 0.0964083482890551 -0.587513223692576 -0.58176089756356 1.36687023902998 -0.397842270206072 0.392140080562782 0.306301531905598 -0.499187648233176 0.237474678520678 1.11734043534902 0.855257998303242 -0.115008213163023 -0.119557520744787 -0.257640858630777 -0.317051051555535 0.590071984235908 -0.211292377233586 -0.749572343273326 0.0160907265959958 0.115614736085221 -0.198821504907041 -0.704971696901615 -1.40110343148401 0.091319880653094 -0.229332256128517 0.830440437868644 0.706499445610264 -1.23502747951093 -0.28846914092852 -0.754857757309628 -0.210924195451226 -0.692168638218359 -0.228968188109088 0.415768506400023 -0.115024925324932 1.71517560445685 -0.323187243188088 0.458209684342931 0.969980304942533 -0.748588125491988 0.0594058220516436 -0.493295197054309 0.0898327553533922 0.811281358346188 0.524686550653288 0.344512990224476 0.602254893157255 -0.366569701511737 -0.0350613443541562
0.296532630494435 -0.16448803948156 -0.526739832576424 0.194377355390211 0.0595189505322572 0.515982342510808 0.076228798449429 0.159484932426425 -0.645637865701271 -1.33445198735925 0.200397847440318 0.536926538035308 1.01536513737304 -0.488404961369605 0.704936987026881 0.554746330613409 0.538446830548645 -0.976036535308106 -1.46868535736182 -0.733698617671962 1.777440748856 0.334690095674837 0.821464721372691 0.352358964575392 -0.0153826451514282 -0.940752276425105 -1.92155152076704 0.436629141114979 -1.36859262014733 0.14045389377521 0.26293681418459 0.324182516707304 -0.206411654625661 1.12335758496674 -0.506682410073824 -1.35973234612364 -0.202795142788592 -0.478097671234794 1.09677059225127 -0.469497335606332 -0.444378442037008 -0.161287789031112 0.123092271543594 -0.0559363772393725 -0.32173405643257 0.585035709967139 0.0962646236966393 0.168169085974615 -0.359487601515145 0.0179390917031113 0.166521266810405 -0.76805985099723 0.0435590930195166 0.474734412928189 0.370669323383062 -0.17358999707747 -0.401498377011355 -0.352736659434531 -0.26503200506759 0.233511582156638 -0.671220328930927 1.15016749221106 0.658894723857897 -0.542179299078342 -0.227960059080711 -0.568526407992873 -0.13418503328812 0.130978097972909 -0.341607645154173 0.454302380888649 2.622664508039 0.851489534347895 0.712446404147972 0.209760771872189 -0.536863546040421 -0.22172873668037 -0.527215743525551 0.289437160768316
0.118009460331664 -0.0083044018075846 -0.309402023604959 0.00813085243391608 -0.105650173824633 0.0942421949954887 0.733386485909541 0.140554938077213 -0.819221435024161 -0.434221561359376 0.0350718858716679 0.0616048854486612 0.972732155233457 -1.03153711078693 0.301086308949313 -0.171513832348028 0.943882850015902 -0.35769605775852 -0.821186013934088 1.41183829585351 0.0341812561970193 -0.0986485493153867 -0.315017567116506 -1.47605182122104 1.60178384301568 -0.981881163992895 -0.0455617242365598 0.684641994714993 1.51957414748436 0.391461823899467 0.219408831497242 0.0526726205736714 0.807247556681765 0.47799971225499 0.0370881439284213 0.947060217660043 0.245766481929285 0.449937935528614 1.68339447182012 0.0533426497111235 -0.440665256771051 -0.671200788557003 -0.142118939321695 -0.247432298806319 0.0569897576599946 -1.62919873052109 0.512095607871183 -0.345836336337471 -1.54216461951197 0.236643955518718 -0.232372326934823 0.0187178784480624 -0.302881452248504 -0.0458003224865811 -0.764607632567234 -0.824563413300769 0.999694271706232 0.587317562843151 0.470338085905437 -0.0393458284472114 -0.00158199895730729 -0.416786919835728 -0.437359334035303 -0.179221995640743 -0.833075045916023 -0.254911891146158 -0.312626699522812 0.552273187761087 -0.167257373264943 -0.312887666358773 0.225638097016118 -0.0437845786501941 0.580010748546431 -0.607461631477494 -0.430608134844506 0.108729582488971 -0.472353829741824 0.299447231531333
0.0393062334789966 -0.114605578616112 0.217197941031797 -0.37220015741391 -0.17991722157615 0.152762015355782 0.264096895331246 -0.451511964070242 0.28925101299567 0.288960735598823 1.34796389881763 0.211750033359705 0.180227553567287 -0.743366474781123 0.0507651201244169 -0.0161089814190039 0.592102126242555 0.530564860772078 -0.747365823680995 -0.416228219407607 0.394602681897593 -0.735233565465741 0.485002622315152 0.46663209972461 0.289841337976326 -0.743761653132721 1.27715935390344 -0.87891264937917 0.31736601152997 0.911295934064984 -0.0194542420127833 0.184870449255741 -0.0216422496719228 -0.0668866999423982 -0.271761864113181 -0.99917465202596 -0.330323336323154 0.572263504505868 -0.61713874455325 -0.417127590828485 -0.373201858687707 -0.463939641886007 0.665641037955213 -0.155569915666647 -0.386338389278589 1.05917851236376 0.191470724768992 0.182456184635374 -0.137114289605461 0.416085266145741 0.0189153390687697 -0.470500322431044 -0.609893636700502 -0.191109227851395 1.1125898104938 0.65325835442151 -0.744277416160245 -0.219575696006147 -0.707851073843413 -0.441095659217749 -0.134344698711895 -0.683890718759645 -0.421300231991842 0.0452472784824907 -0.478611891601219 -0.440143580209312 0.0665226319229691 1.09972787357859 -0.52515886205985 -0.078216774386029 0.76331565389659 0.161786325676362 0.0374036181232232 -0.685367816762202 0.0325514347456345 0.574349696532456 -0.00788659775986409 0.353628574660096
0.0301423123289322 -0.0269978547882418 -0.105483052205545 -0.0837220176289777 -0.0184288866021314 0.0833183546413339 0.541670992246131 -0.04225965815356 0.0463423107527933 0.166665762733371 0.199442940219866 -0.0463793346191759 -0.318375426109263 0.0189688179868779 0.31875209252767 0.0633828023655765 0.00202988489646368 -0.434716241351877 -1.53484032172279 -0.347831254249018 0.910892013967157 0.512399254997557 -0.595998373958959 -0.179974300036823 -0.137885877265282 1.22791915427565 -1.87335390293219 1.23347684799598 0.779975365328036 1.44142782128853 -0.578578387715754 -0.157131860029663 -1.55366670066817 -0.2420782363511 0.00355069163016636 -0.109328392105673 0.545987615112088 0.339978852143521 0.257096813483099 -0.229202929706361 -0.181353181949392 -0.0259223628918634 0.0991740825298733 0.187533082313091 0.0206487759239892 0.428764654830871 0.11497273195774 0.351439795670407 -0.0457712690358781 0.119607657230514 0.118286367998984 1.04663770606738 0.454904790047916 0.719079332654492 -0.111935232253266 -0.298680528964993 -0.27502947743163 0.203661346995836 0.282434507818337 0.298690556262138 0.244725957017823 0.678396274144392 -0.123466109749985 -0.363219555824477 -0.51803768131541 -0.179409171854121 -0.717877085437789 -2.16385112898589 1.33016647482547 -1.01196408386951 -0.336937752896482 -1.14061430624361 0.506642815105609 -0.0883885674542869 0.130810462133454 -0.247880956076025 0.366181979355452 0.0203929512916926
0.120074826433411 0.0593919381017501 -0.23099473057317 -0.0599704360139786 0.153839049913259 -0.519950838188695 0.131750971183646 -0.337478969832144 -0.274574392407343 -0.262548063587573 -0.174851893856678 -0.587948768342938 -0.507366066050986 -0.0143012397208359 -0.431256566726568 0.795865803091309 -0.11500641339174 -0.289914100158175 0.245079483519741 0.738614050154621 0.690840407011883 0.454495984856608 -0.264154488012285 0.441946951034366 -1.59557386076055 0.0944139445978748 0.975805907473764 0.150344408303033 -0.60926603074328 0.329567175274326 0.234448234554082 0.504553537756823 -0.65990413843719 0.274687263777774 0.209265063438955 -0.632161949668547 0.815382779988796 -0.239784299296477 -0.416275013460952 0.492105548236584 0.236882810878922 -0.283703860792857 -0.107764905081557 0.659809778999951 0.129979996241677 -0.86491917054764 -0.36986559695034 0.301492800148973 0.138574675446109 -0.465250389600025 -0.191393591714028 0.413022569643312 -0.76608550190034 -0.376972636634703 -1.17767776759444 -0.94246540157585 0.692620637920447 0.278220986135848 0.587253285297348 1.20065159090522 0.553678552022527 -0.184150540742745 0.827419393215895 -0.389418312163293 -0.019043894160376 -0.467177687533387 0.43256602888967 0.298103059493497 -0.438176944417919 -0.967220227125745 -0.135831566901413 -0.390261890674414 -0.0474771951014939 0.950685728353524 0.220168849198819 0.449637887944805 0.144724236808189 0.380173144195334
-0.128661792332346 -0.227595991061282 -0.0690312559805747 -0.128175596975891 -0.00763771510251426 0.118756108303713 1.1038246672379 -0.184743693935417 0.483958497861126 -0.698563739805407 -0.223482485240063 -0.979256840352844 -0.641066960864117 0.355723508432912 0.970765005221698 -0.413832723830615 -0.269031096857279 0.328373926914036 -1.62267738783409 0.06389368029962 1.62913239609383 -0.495022463265131 -0.564426786121548 0.317949651645863 2.3670028835986 2.21389222683438 -2.04509347802107 -0.23930838834735 1.4721974824645 -0.198728431020718 0.609392528953421 -0.331083096914547 -1.63060820854547 -0.0489566070956993 -0.28679483941544 0.323524057528096 -0.229456183236825 -0.294432554517954 0.76874890628824 0.478722963200367 -0.580121820145579 -0.779026628751981 -0.772631527164933 0.207006864699798 0.518001428779577 1.81528865337581 -0.0605448201632756 0.315032993727499 -0.571654667592021 0.550574460780601 -0.0564943063369438 1.68839860731598 0.0906146274205418 -0.138695774342402 -0.302747240732867 0.214126245672956 -0.186082980879772 0.458798980882854 0.337974935375562 -0.216148417263923 -0.788135271212655 0.0778416506287218 -0.437313825532874 -0.227252234746327 0.550802774623294 0.736651785236342 -0.833607263995273 -1.64943535882139 0.565674027620312 0.399920748927163 -1.38904007879786 -0.71083200930758 -0.749743578655345 -0.608090522985632 0.151484177745215 -0.0298564058051998 0.541812402846898 0.219258936260429
0.313816348340537 -0.259018197882247 -0.461246412716855 -0.238942520556639 -0.227751028501759 0.140569336247473 0.181281448208276 0.38554134771063 0.109948798977765 0.0948805995804057 -0.947066645414623 0.675206308101272 -0.769627451784277 0.642040637127943 -0.630284788220912 -0.114720506868008 -0.469392948871947 0.057597309022926 -0.512096379201732 1.47503906420937 -0.237527386108236 0.85856314970844 -0.765794710283127 0.327950466442285 0.113115367994212 0.418667423715745 0.761986137139198 -1.99981714608788 -0.959874074970994 -0.669438041140897 -0.112359978275933 0.357234802089836 -0.289601711285572 -0.506916894560914 0.00901891100673249 -0.540814301115666 0.346950651871514 -0.506686266726572 -1.27052951071911 0.569939999780176 0.0806639491098467 -0.550572918119502 0.219936421593195 -0.187570106179473 -0.0410314428083533 -0.186527524386546 0.326882944961586 -0.212214374350587 0.369269101325286 0.214944884496305 0.258077945942238 0.600388787447498 -0.114398604918626 0.754986055291051 -1.09887529621105 -1.34942402754809 1.30712143199394 0.323145334228224 1.28993027381379 0.00779300965317469 1.0271711227658 0.0205289625786121 -0.0105944822094595 0.00200237410685993 -0.499913727390568 0.209315714145048 -0.420852088942503 -0.56583549281537 0.265844216136359 0.816139712368174 1.63011635676498 1.33523488786714 0.114394234045511 0.125710167429065 -1.62475998031811 0.00974113351137676 -0.123593636400859 0.326983732153405
-0.15807596862242 0.0131563280749901 0.0971557675916542 0.206563863854123 0.618566991620997 -0.104004411541889 -0.697012336959902 -0.677446509127604 -0.126606453527744 0.170337039039464 0.389729415484981 -1.62119437629732 -0.51174568091183 -0.380908479319322 0.446951343640416 0.851658455738265 0.338080093440496 0.090577346443976 0.211103915469291 -1.80655024957897 0.411452397754432 1.41034397146868 1.0303965700142 1.08861248613794 -1.88797035973764 -0.40508892071992 -0.495260290184603 0.45889231187936 0.985959959939381 -0.284841573353573 0.135055351258295 0.0533580763221162 -1.31299665679053 0.290468429713182 0.338379883914122 -0.914359916118328 0.349225305662397 -0.18432460433678 0.767959320915594 0.469117583865726 0.467187714830533 -0.335986445218595 -0.293885166937894 -0.13637072695561 0.120500086676445 -0.925755553658678 -0.398392228887964 0.316026981695799 -0.017463437864168 -0.0799360701811718 -0.0232095933487869 -0.476596147764832 0.610548753447328 0.236695120445177 -0.124571940647983 0.36698930533074 0.606537834589211 -0.179718218294343 -0.0446119592197724 0.344130153161672 0.629362019773362 -0.315896883943093 -0.10656625740742 0.296116626217997 -0.0219764929100992 0.632577439724619 0.763764825386663 1.19528055917791 -0.395942483062314 -0.821894095378656 -1.2539489892241 -0.540917659409318 0.0572113866379239 0.556392350006336 0.542143046542509 -0.204532179186377 -1.25857363008954 0.560566533830793
-0.0681110586348567 -0.270473227874919 -0.163793841986886 0.27373621321007 0.468482778823374 -0.728962648097185 -0.578355216076725 0.166100891660853 -1.05103506153086 -0.740936012219214 -0.0524527913670246 0.182610450745302 0.725835931159136 -0.326151466490346 0.349105749427203 0.878966642517645 0.163377837710448 -0.750887204750275 -0.794816793543801 1.12971643401796 0.974522413439167 -1.67792933776575 -0.0563976329080559 0.280434704813309 0.0658227780042644 -2.00974519870245 1.57879742130592 -1.36688952229373 -1.61272876640486 0.108335689688289 0.603662571410344 -0.229356938706105 0.825526548047084 0.66527902681725 0.430683468128187 -0.353901882784851 -0.628281128563136 -0.159874197243809 -1.2618381580858 0.191879787070483 -0.229394733903038 0.140218123737204 0.829402741169197 -0.314284031763801 -0.18794677259788 1.54308378841696 0.582064030469567 -0.425235303345912 0.334197986784168 0.209914780871933 -0.37320211579789 -0.0918991498958721 -0.215444192472104 -0.274419869187233 0.344194430707475 0.170165289437078 0.0145097560794213 -0.027030764891693 -0.474616913574461 0.0912196076816411 -0.5859001144031 0.580958713791936 0.406110676588007 -0.416233361611271 -0.289512236941814 -0.390680208942501 -1.17361131293675 0.734876953641625 0.0209979315527919 1.10032925429712 2.79531913826994 1.04499168667445 0.190114725662729 -1.2678020858956 -0.310447690720085 0.403488152719238 0.0765743545356667 0.254969740937381
0.531319479159807 -0.353905225217233 -0.370193926654302 0.485494988316004 -0.071595158727571 0.415538392786047 -0.367616654177779 0.164442273868948 -0.341940088621067 0.0980178580359661 0.181958676430858 0.587240944008554 0.631953433309962 0.194646035531668 0.681018540902977 -0.138403954284456 -0.15970141920069 -0.382498448692309 0.242572659233418 0.45341972162968 -0.946043346885437 -1.82432299099354 -0.0123407745738396 -0.0238320571023447 0.298808569836233 -0.213977635987059 0.636874007996285 -1.14377367617492 0.129701031692892 0.769778375461823 0.0510258298501945 -1.18011748612294 0.0487352352279532 0.394413448802748 -0.194624438276278 -0.035733430373074 -0.386091820612889 -0.486322883105949 -0.377283997066574 -0.351471677333125 0.0970552375100181 -0.417236605546167 0.244278842409217 0.336884273978374 0.134408204927148 0.29932613263504 0.176281683585523 -0.374825766604878 -1.05670562662162 0.20328236658578 -0.11269987793814 0.985757357115009 0.153501464242701 0.587760820799009 -0.381562824735598 -0.615148711735185 -0.23389030545651 0.752041372362717 0.0014519012046017 -0.0495988683333644 -0.524366962695555 -0.579138373694791 -0.657004706901101 0.704906133804896 -1.14958410920535 0.241386867068441 0.839383244261145 1.28729232333403 -0.538270452962961 0.263031173621829 0.704817173681504 -0.10269520648897 -0.890067888898216 0.701355699284912 0.736745887563398 0.242053810883694 0.230365581954849 0.124260323105929
-0.129670692691273 -0.039913784841928 0.00486195356455075 0.298351942150847 0.639515558018612 -0.317400207184338 -0.911623492438396 -0.341061028904663 -0.356924727208882 -0.149143446637247 0.227142962918461 -1.25096342577663 -0.440177518753497 -0.271614025757833 0.654436176170807 0.924152214556165 0.285168360396437 -0.450570426579317 -0.042393869669197 -1.25187462426594 -0.585504678941319 1.70177913547074 -0.518075476512342 -0.42707749780863 0.177249446315135 1.18023781368869 -1.21612088218839 1.82390595827637 1.3067267678627 0.0359445178334915 0.578412551647582 0.0558659290491722 -0.772555936771069 -0.0313203911884124 0.318097747111394 0.72063099261018 0.0495461607458059 -0.259904713793964 1.03323738042852 0.378384428650724 0.296068546613736 0.168206881171547 -0.757260194861567 -0.128422679861958 0.282118005182802 -1.39000424198491 -0.276934663889235 -0.0694102363906301 -0.0247044319539852 0.0713524467146183 -0.0916849771132559 -0.220932980663327 0.539514352029343 0.159601660449604 -0.174480369641935 -0.527294162131431 1.13652779699163 -0.0889668082563321 0.102651240647641 0.483043442719072 0.602543885003186 -0.687201269478691 -0.130868826145043 -0.0291526952337468 -0.149515485072356 0.309981292847737 -0.468759686490694 -0.306475852609816 0.505200426977786 -1.09319136139077 -1.19505173111485 -0.735855000778566 -0.123597235943424 0.927432940493958 0.801509114502643 -0.458946047907652 0.00356406135969342 0.109636667215345
0.146478242478065 -0.209718605802142 -0.47199336126496 0.281146642910625 0.253936672221232 0.916892965643339 0.00347587256685149 0.480856720610849 0.396520466754176 -0.241777674546924 -0.210969189733288 -0.415307250731339 0.105231084225996 0.758192733496079 0.0750640893194758 0.198176415457361 -0.00245951601261198 -0.668044761058068 0.901838135975507 0.567446288113197 -1.36534017632969 1.18179307318694 -0.40581242877548 -0.913389839397067 0.0684396454490025 1.76103840471795 0.114613806141975 -0.182446157338229 1.14431077934766 -0.0603352753639573 -0.332090197502191 -0.196090223430773 0.537636676361342 -0.416849140500065 -0.353974902076883 1.36418395183578 0.348933999824817 -0.804981130416746 -0.405363257285408 0.192563700157829 0.146274096992594 -0.218276775360557 -0.43824507861647 0.378642567274669 -0.160968458183562 -1.9961502406549 -0.104464381659656 -0.286713849707728 -0.143909711747771 -0.0193076892083521 0.0354012440163632 0.104707093672609 0.22603918890193 1.28713780011392 -0.904171153777979 -0.942208291392638 -0.622490750127005 -0.149435523805377 0.66486687919356 0.538529877137822 0.602473436812985 -0.881708208401241 0.0818885649124885 0.894204791746107 0.127058453229832 0.767099801573114 0.427812318712252 -0.379014605709778 -0.307643389951785 -0.46340845224749 -1.942966485037 -0.305982715278415 -0.224942871080711 0.170299243842532 -0.145692513758167 0.0361517486411609 -0.225286627395666 0.232573387098095
0.578602813183159 -0.398995152267597 -0.53663291820608 0.362443340181358 -0.103232309661701 0.221878117696817 -0.404742079082766 0.0501753093641271 -0.255395515400781 -0.0989758505786164 0.0718862074549677 0.670272363685422 0.145732365836565 -0.169719460379387 0.428680579800961 0.00667895122931438 -0.128283326142657 -0.558623809286439 0.0400670225111228 -1.47652747505999 0.0564233439263772 -0.717151777610947 1.04531538839511 0.0749530177203279 0.448464437068623 -0.345247296907731 -0.713751752548143 -0.518707967563045 2.5046907860228 0.431204630469559 -0.271098776950675 -1.15642606829082 0.467633543888223 0.0581436681622529 -0.215713901054294 0.804146293651855 -0.260308633891791 -0.858335092975931 0.950164051791786 0.0463315121250984 -0.39559641275571 0.604272950985291 -0.140157959954332 0.130224250915729 0.286187288052508 0.894751665105801 0.114326356957143 -0.471148497202923 -0.631451554232331 0.288996216804106 -0.117054810221395 -0.146539177591486 -0.102818105156546 0.815373009801834 1.23446903619299 2.04767974935401 -1.11765359555217 0.103506646227189 -1.05522878572924 -0.575604394226533 -0.574268963934927 -0.236760683541896 -0.268257966536359 0.508766288108762 -0.592078729215882 0.138654636713088 0.586574257303483 1.59089985473992 -0.726188686330504 -0.541617513328023 -1.35519280872883 -0.889398373981131 -1.10315129566806 0.505884082954949 0.226441309228474 0.393639547151278 0.240078176235889 0.0534249249697515
0.312791250040068 -0.207269888417225 -0.601334695811537 0.2843234963344 0.197738813925533 0.809951584478613 -0.106432560112149 0.363954119617915 0.0142870986607592 -0.583245451761429 -0.0289871162757579 -0.0655147600047756 0.10383163349877 0.456874768271691 0.250042738496477 0.569485171866073 -0.0243984708359621 -1.00427648939145 0.159135519687439 -0.887983239532729 -0.430522774263679 0.773465592599275 -0.535996313392445 -0.267495891953317 -0.734437038118148 1.81913142217411 1.50484816174086 0.136859493413898 0.962242831088932 0.114401433130641 -0.199421342964476 0.0523566321585031 0.150426940671845 -0.0495070799979575 -0.566547688022868 0.9825457938165 -0.410093056215787 -0.859410584872309 -2.5743771587502 -0.442233114668281 0.00579654908052865 0.573236409439145 0.450820851897766 0.345371995346589 -0.396490899083106 -0.0541540894493425 -0.208188028881477 0.258519661236997 1.61859087858211 -0.0540556162491721 0.020156409923137 -0.143782699317264 0.313937704347013 1.17057818410539 -0.421272978312422 -0.91306356657457 -0.696068742587511 -0.73295016992863 0.118426235938652 0.543999896285671 0.302486788117273 -0.668865970983249 0.415911716772072 0.377697944461546 0.164313461667159 0.268712023119912 0.333473707398058 -0.409862171271262 -0.321403926957325 -0.559302323059937 -1.21487929711366 -0.316769001684551 -0.0895527623638736 1.29138140368784 -0.0564323427827896 -0.896576890296427 0.48798278644877 -0.346931368607774
0.0172976017959958 -0.335267822256516 -0.196775164958852 0.203203433759534 0.375191634395589 -0.775403432050149 -0.251508266540789 0.092117950661786 -1.12034168251766 -0.580474575316947 0.04021486086647 0.47046715521741 0.926152531781559 -0.448425356320774 0.338224846473644 0.345613164698442 0.226117864617993 -0.693755008048781 -0.0338552404847057 0.571893522952225 2.16089770431132 -1.6621563993562 0.858409654929063 0.867202823194934 -0.690045679435572 -2.17927825419901 0.552195540485757 -0.715319096225007 -0.509021084300326 0.643921655228327 -0.0236567079573937 -0.264505700522554 0.110486673481046 0.874256126851006 0.329441448394735 -1.10352410543372 -0.0822824577131702 -0.13182090515348 0.564918895012216 0.209689295241256 -0.391908424287708 -0.0301145444291452 0.451061507029253 -0.206511927597114 -0.113152906080961 1.19880579689994 0.532825373502884 -0.506203413802499 -0.669965117016483 0.246235708013648 -0.432898215246381 0.23721319746435 -0.319552990748377 -0.284755955662563 0.501248386351625 0.813864287246742 -0.546784656680047 -0.115200017359699 -0.80473096220848 -0.110985467236478 -0.256865157208024 0.289394480477902 0.13739993901901 -0.213341802503974 -0.104469523863321 -0.299494796915227 -0.749841794745333 1.27877837672713 -0.36468996896227 0.51115021372751 1.55624371603451 0.632946135727346 -0.225449635251823 -1.0701990261468 -0.277354781928605 0.794270948624841 -0.445036386995849 0.377572731802321
-0.51739670562866 -0.0215242360978282 0.336940323998314 -0.233017416384504 -0.0838770550694549 0.34289191051932 -0.826765562019985 0.559698529852267 -0.195705329486504 -0.253040643232736 -0.663699341851591 0.772740027662249 -0.206692161835546 0.301684347235466 -0.592232738215627 0.0704846998462757 0.37356386982567 1.18175682065111 0.682338287473407 0.271826912989533 -1.4515489636507 -0.639113437692067 -1.13042914344582 -0.842107840872649 1.45256043511146 0.561738184935693 1.68894316668403 0.759457458487302 1.5908021528703 0.405413393771134 1.34735069103067 0.0584640274505358 0.514090268672546 -0.104567997063491 0.107869291815941 1.58718075593975 -0.364852205487877 0.604587139629177 -1.49354534097665 -0.168644996923742 -0.0704299353772514 0.174945481963367 0.500205804558698 -0.425767778535345 0.225164757168824 0.0444013859797212 0.193487497046112 -0.313067129266655 0.336031439500657 -0.0936351578529237 0.378293925866233 0.438927449042717 0.0728632261511757 -0.947018822920546 -0.637537095158791 -0.866839012285688 0.589189067866756 0.449826092598917 -0.329520638331164 -0.436457648622776 0.266823548824216 -1.02886393621207 -1.04016572853555 -0.600544596218524 -1.08901794889686 -0.709304003488748 -0.873443144451688 -0.254571991483951 0.760662019695653 0.0769772461927609 -0.876418680602008 -1.17748673472831 -0.930252410763067 0.939704552428513 0.657340492800377 -0.0695171942268466 1.29830589514212 -0.416911875384769