1.53299552515852 -0.583514211830896 -3.53361568000731 -0.583514211830896 -4.32654439991689 1.04503938982955 -3.53361568000731 1.04503938982955 -4.05206907379434
-6.9898980498218 0.897023417170063 2.11195355329204 0.897023417170063 -7.28350616605128 -3.91409992187298 2.11195355329204 -3.91409992187298 -3.54152134679558
2.54490740400648 -0.9855661342203 -1.2100019865675 -0.9855661342203 6.59451082679286 2.11360024427839 -1.2100019865675 2.11360024427839 2.83764982011152
8.17299274792913 0.848958782846821 0.840892666145188 0.848958782846821 -1.21798362194651 -1.11917369235151 0.840892666145188 -1.11917369235151 -1.67775227393956
6.88058151834442 -2.3606138908153 -0.482185785868134 -2.3606138908153 2.5954174039337 4.7799286599102 -0.482185785868134 4.7799286599102 -3.97279158356572
4.12010241642642 -2.70767522948491 0.721907228881217 -2.70767522948491 -1.77861201318561 2.76835728640536 0.721907228881217 2.76835728640536 1.57564099521031
2.62299218197405 -0.0799573824988372 1.97163204161767 -0.0799573824988372 7.27027126721134 2.18615184832187 1.97163204161767 2.18615184832187 3.22559782080675
-4.72980938007706 -0.115848371640401 -2.75639229075437 -0.115848371640401 1.29630333094173 -1.31627718812111 -2.75639229075437 -1.31627718812111 -0.886839258764448
-8.22586751604159 0.63024059575642 -0.484957861020362 0.63024059575642 -5.55757616257934 -0.220993455654849 -0.484957861020362 -0.220993455654849 -2.02372710780227
-4.03785937580946 1.28885208359171 0 1.28885208359171 0.214128906292926 -0.760667448069156 0 -0.760667448069156 -1.14406015647935
-0.153425344315198 -1.3748504880193 -1.42267137455911 -1.3748504880193 0.0956417730796038 1.70361908298044 -1.42267137455911 1.70361908298044 2.93301437444118
-8.45948085750522 -2.38467701307004 0.211694565128933 -2.38467701307004 -9.96417261945107 -1.11035874847039 0.211694565128933 -1.11035874847039 -9.41210640058542
-4.56207881684751 2.82233869555663 -1.94404374328266 2.82233869555663 -1.72078411512669 0.770877584010244 -1.94404374328266 0.770877584010244 -1.75237745873367
-2.80519376880924 -2.60776077628307 -0.547053916791244 -2.60776077628307 -6.11219639362247 0.481242919282523 -0.547053916791244 0.481242919282523 -3.00879654235184
-9.95318106504229 -1.11173571432506 -1.93190300545921 -1.11173571432506 -9.88395978471639 -3.08559101089088 -1.93190300545921 -3.08559101089088 -8.93374039115176
-2.85374546166889 -2.93172816630829 -1.00112931631663 -2.93172816630829 -7.07324207486027 -1.43530329349816 -1.00112931631663 -1.43530329349816 -1.14655652226579
-0.159507605267885 -1.28015078073969 -2.55416665358446 -1.28015078073969 -4.45394313171094 0.0531692017559616 -2.55416665358446 0.0531692017559616 -4.65230515364664
3.19654048031407 -3.62162354616228 -0.132575411625929 -3.62162354616228 -6.48988205483119 -0.911192908476623 -0.132575411625929 -0.911192908476623 0.921714766542173
-4.17952361460398 2.92314113831064 -3.18199380930575 2.92314113831064 -2.78003559662228 0.366181827261376 -3.18199380930575 0.366181827261376 -5.04236585125434
1.44205438739105 1.24437016401132 3.91622850948045 1.24437016401132 -2.70723341702129 -2.75925558106858 3.91622850948045 -2.75925558106858 4.01611106445125
4.09599578760749 -2.91345229246276 0.359995541884767 -2.91345229246276 -0.575574267548319 3.6020484161842 0.359995541884767 3.6020484161842 0.226043712346249
0.241096593087922 -1.04407083955871 -2.77261082051111 -1.04407083955871 -4.31930676091413 0.202275955217833 -2.77261082051111 0.202275955217833 -4.66460611881124
-0.133900833662695 -1.37051441513582 1.74267996752184 -1.37051441513582 1.59499522451152 0.559232893532433 1.74267996752184 0.559232893532433 -1.45715613103521
2.46819715271182 0.314736549674661 0.476246094902448 0.314736549674661 0.679168344034795 0.72679295352504 0.476246094902448 0.72679295352504 -1.66479069696334
-1.71299621094808 -2.40137796354743 0.678434039411493 -2.40137796354743 4.71123696576661 -0.0736130775901034 0.678434039411493 -0.0736130775901034 6.70077960333698
1.16598180871421 -2.05715309012204 -2.20437301546474 -2.05715309012204 -1.3033870723674 0.773395341133666 -2.20437301546474 0.773395341133666 -3.97886384892878
-1.75504705798039 -2.44033217483085 0.741064137989449 -2.44033217483085 5.00218293142878 0.081676423810665 0.741064137989449 0.081676423810665 7.33095706398164
-1.18316242940399 -2.0715235177023 0.945738530526934 -2.0715235177023 2.65123353746044 -0.0830983646069691 0.945738530526934 -0.0830983646069691 2.27531236423844
7.00833573491625 0.106635708561701 1.64692927667516 0.106635708561701 6.85233164276117 -2.32031402888887 1.64692927667516 -2.32031402888887 1.16509385280377
5.91244515524764 -0.206591261664227 -0.485981348867277 -0.206591261664227 2.75455015552303 -1.42646347339585 -0.485981348867277 -1.42646347339585 1.64879502166307
2.85750563400057 -0.672468924781854 -0.635434404286621 -0.672468924781854 8.46336252580524 2.57292458177405 -0.635434404286621 2.57292458177405 4.67804469413464
-0.523003571592249 -0.632134238105592 1.85728039990633 -0.632134238105592 -4.89646650884397 -0.0926581130773669 1.85728039990633 -0.0926581130773669 -1.24367778441621
2.08174829834591 -0.937817302720187 0.298864854713027 -0.937817302720187 -2.09823739377835 -0.857432962487028 0.298864854713027 -0.857432962487028 -2.92887557618766
-4.10050050107434 2.98065128825527 -2.95749651129849 2.98065128825527 -2.41862170212239 0.614654079216483 -2.95749651129849 0.614654079216483 -4.57622591855012
-6.20459239046712 2.0093380656076 1.55064068901435 2.0093380656076 -4.69251475523715 -3.6675493783363 1.55064068901435 -3.6675493783363 0.639334839056965
7.37447566448724 -2.89388799942973 -0.168127116887711 -2.89388799942973 -3.06411670527854 1.12855327210876 -0.168127116887711 1.12855327210876 -1.83678875199825
-2.41240497060185 0.194741093178733 0.192753939166705 0.194741093178733 8.24668914991572 0.594159049596338 0.192753939166705 0.594159049596338 2.21965103143515
-2.40266889369405 0.0456705657479033 0.208496061023037 0.0456705657479033 7.89703652084398 0.5381184051166 0.208496061023037 0.5381184051166 2.63896442952015
2.55032170682889 2.23859247441092 2.9059859317353 2.23859247441092 2.87041950924466 0.610905609839242 2.9059859317353 0.610905609839242 -2.99176377421273
-7.10765321323555 0.00614317477375588 0.892808067119188 0.00614317477375588 -6.30494504279812 -1.23273040460035 0.892808067119188 -1.23273040460035 0.49145398190047
1.23339775487005 -1.1060140523179 -3.76287413411993 -1.1060140523179 -4.38159497508753 1.47198945171376 -3.76287413411993 1.47198945171376 -2.11901778213739
-1.16276817132045 -0.306641517746456 2.23086849152455 -0.306641517746456 -5.3302116172035 0.576239093751729 2.23086849152455 0.576239093751729 -0.654442970760893
3.63506911272488 -1.42179751490979 0.106073846162567 -1.42179751490979 -5.00178982289641 -0.897547929067871 0.106073846162567 -0.897547929067871 -3.2413719529292
-1.5659919058407 -2.29837595305897 0.67482540936101 -2.29837595305897 3.93383518045154 -0.226264990197515 0.67482540936101 -0.226264990197515 5.08103837636525
-0.131810043198953 -0.751729152619027 1.63732788036199 -0.751729152619027 -4.530970234964 -0.358358554947153 1.63732788036199 -0.358358554947153 -1.54464894373773
1.59436909285601 -0.641809724003183 -3.61322626266349 -0.641809724003183 -4.38705380964201 1.17191205933493 -3.61322626266349 1.17191205933493 -3.78180286738584
-4.64948733534784 -0.0579437613773474 -0.969059457517706 -0.0579437613773474 -2.02603358747001 0.0639379435887971 -0.969059457517706 0.0639379435887971 -0.193811891503541
-1.88386610615558 -2.52117400164225 1.29866514552002 -2.52117400164225 5.06439324495229 0.99604410080779 1.29866514552002 0.99604410080779 8.15874352995677
-2.37858604383899 0.689686084327115 -1.77407203619083 0.689686084327115 0.589972433581026 0.11217785708935 -1.77407203619083 0.11217785708935 -9.5392725880425
1.19795580379998 -0.605089921307133 -3.30456515946185 -0.605089921307133 -4.22136807053326 0.725292969647607 -3.30456515946185 0.725292969647607 -4.43936342938802
-0.86749040284086 1.8908419655302 2.62503006060591 1.8908419655302 -0.40195772803028 4.20620051117401 2.62503006060591 4.20620051117401 1.22843203617417
-6.53974802576273 -2.45240550966102 1.27871017758144 -2.45240550966102 -6.86508813535672 -0.105014845501857 1.27871017758144 -0.105014845501857 -5.76552092951374
2.96710765641201 -0.103254567163386 1.72610465107094 -0.103254567163386 8.5175276912891 2.6125353691717 1.72610465107094 2.6125353691717 4.77698488084192
-0.0903198231214635 -1.57557913667442 -3.24749941801173 -1.57557913667442 -2.79188608804346 1.64984210235207 -3.24749941801173 1.64984210235207 1.32067652475384
0.0482958627004327 1.65675807263658 0.569051251818142 1.65675807263658 4.3592265637434 2.03052605353558 0.569051251818142 2.03052605353558 -7.18558444177742
-4.89053259726607 2.96235834101119 -0.262101663916628 2.96235834101119 -0.0893990171498576 -2.1211948614648 -0.262101663916628 -2.1211948614648 1.509624312326
7.78611169108878 -2.23179494593709 -0.492924635615804 -2.23179494593709 2.07028346958638 4.28739555403703 -0.492924635615804 4.28739555403703 -4.21607879824581
1.58860194510211 -0.732420564727791 -3.67427601862058 -0.732420564727791 -4.43712957080244 1.27615660724039 -3.67427601862058 1.27615660724039 -3.45312964312105
-2.58628184096893 -1.46120969455355 -0.840343870345409 -1.46120969455355 -0.253091800951088 -0.599115747563903 -0.840343870345409 -0.599115747563903 -0.259023640035879
4.49399716668241 -2.31604043925392 1.094208807344 -2.31604043925392 -2.75121334924924 1.88923623906621 1.094208807344 1.88923623906621 2.73238375218214
-4.69238967876468 3.10726020737601 -0.605600746761315 3.10726020737601 0.784435866610294 -1.75583572215361 -0.605600746761315 -1.75583572215361 1.40019769972666
-2.17977748836216 0.464991143752932 -0.662770182272279 0.464991143752932 1.86838070431043 1.60537666372619 -0.662770182272279 1.60537666372619 -7.755463148748
7.78245160385254 1.33543853375644 1.43862249178814 1.33543853375644 6.83196860582975 -1.73031560391622 1.43862249178814 -1.73031560391622 -0.386939842618879
-7.6990584827288 1.42567357571318 -2.00057591865218 1.42567357571318 -4.07696313527433 -2.12903395132353 -2.00057591865218 -2.12903395132353 -1.23193359201213
1.19310458565143 -0.933465245768739 0.865464466275652 -0.933465245768739 -3.10742955986591 -0.828373132006696 0.865464466275652 -0.828373132006696 -2.41505798684539
-2.65004555008421 0.122083115095222 -0.87773549990875 0.122083115095222 0.932462413572125 1.35343867252117 -0.87773549990875 1.35343867252117 -7.60072635532493
-6.34162650240564 0.478651427092401 1.63387765619305 0.478651427092401 -5.91548535845418 -3.33642260572424 1.63387765619305 -3.33642260572424 -5.5984040333339
6.88224636350904 -0.0972183123744655 0.712934290746081 -0.0972183123744655 -3.47555466738714 -0.939777019619833 0.712934290746081 -0.939777019619833 -2.02740688930917
-4.31961112423692 2.92326681640217 -2.09767561176986 2.92326681640217 -1.67434950939461 0.920365705164083 -2.09767561176986 0.920365705164083 -2.28511851282158
0.448550990614979 -3.66211348675798 -0.368527809190711 -3.66211348675798 -7.509543814709 -1.53939330581948 -0.368527809190711 -1.53939330581948 1.2887943955698
1.1444580554948 0.510030220383553 1.12787170686444 0.510030220383553 -1.68558767956028 -0.89151623888182 1.12787170686444 -0.89151623888182 -1.81413188144556
4.46254391293637 0.244013059187438 0.206790728124948 0.244013059187438 2.81442180978054 2.09685798318697 0.206790728124948 2.09685798318697 0.500433562062373
-4.35409604717408 -2.42302485138098 1.98414503415528 -2.42302485138098 -2.4863051971205 0.932874774289055 1.98414503415528 0.932874774289055 -0.52053187624444
-1.41022708599494 -2.05384816884728 -1.8242763176388 -2.05384816884728 -5.11822243274616 -0.200875369807418 -1.8242763176388 -0.200875369807418 -4.39056165436215
3.46779573616906 -0.886535176309571 -0.766956012993396 -0.886535176309571 -0.48656349211409 -0.356675780236176 -0.766956012993396 -0.356675780236176 -3.67809012682854
0.300171522762492 -2.05596933398967 -0.951913801637218 -2.05596933398967 -3.2648793023756 -1.33843603642728 -0.951913801637218 -1.33843603642728 -5.97259091524
-1.66288603772641 1.41816698271722 2.42713161115676 1.41816698271722 0.928728872698827 2.47727895849471 2.42713161115676 2.47727895849471 8.65342625663659
-0.349826919157102 1.75322613869963 1.01879418561542 1.75322613869963 2.06009185725849 1.14154047303896 1.01879418561542 1.14154047303896 1.42590270557017
-5.43331033981344 -2.43781358265592 1.69355258139091 -2.43781358265592 -4.77311187588139 0.424413298242031 1.69355258139091 0.424413298242031 -3.26203650967667
-4.78885578280934 -0.0439527856578245 -2.06378307202421 -0.0439527856578245 -0.395575070920421 -0.711235986099342 -2.06378307202421 -0.711235986099342 -0.755188771757167
7.708766220002 -0.803608988100895 2.27166540782668 -0.803608988100895 2.95179301482914 -2.65974974842174 2.27166540782668 -2.65974974842174 5.73306412242712
8.49993231495293 -2.31759083124427 -0.39256293971257 -2.31759083124427 0.251912046874377 3.08592257421111 -0.39256293971257 3.08592257421111 -3.77658143605836
-7.86722079636028 0.0327630225772422 0.567209828368506 0.0327630225772422 -6.85361478537685 -1.00336756642804 0.567209828368506 -1.00336756642804 -0.284628758639792
2.97628139176003 -1.61785508735343 -0.0633251359948942 -1.61785508735343 -4.95365983185866 -0.941706054633749 -0.0633251359948942 -0.941706054633749 -3.61157549803138
5.66497632362655 -0.684509509165346 0.544357710552856 -0.684509509165346 -4.43001554744694 -0.873409759469135 0.544357710552856 -0.873409759469135 -2.39476768933514
6.38841928606427 -2.46272725102543 -0.444338874227567 -2.46272725102543 2.61573073130191 4.90659105927705 -0.444338874227567 4.90659105927705 -3.70142665983908
-3.48587700256873 -0.635248645740319 1.28048547773442 -0.635248645740319 0.343593607129984 0.990828076374837 1.28048547773442 0.990828076374837 6.67610369202561
0.342031942974161 -1.03199293138756 1.98535782990749 -1.03199293138756 1.83399886663731 0.772520422924399 1.98535782990749 0.772520422924399 -1.99911773565932
-4.7439885698774 -0.968364670198039 -1.49148125492358 -0.968364670198039 1.20796005251508 -0.712796262393195 -1.49148125492358 -0.712796262393195 1.24789261623459
1.99212958213452 2.22674421220714 2.15133236682666 2.22674421220714 3.96750097640671 1.30713865326177 2.15133236682666 1.30713865326177 -4.7886521816609
1.70524554242703 0.399893547616545 0.75627536207274 0.399893547616545 -0.561508556497843 -0.078735517147299 0.75627536207274 -0.078735517147299 -1.99739575078938
-1.10358736954802 1.11409772544847 -0.11561391490503 1.11409772544847 3.42427395236898 1.95282412630496 -0.11561391490503 1.95282412630496 -7.70619294621528
0.931993876963705 -0.697465877290125 -3.15083269126679 -0.697465877290125 -4.20926775066321 0.546552207934952 -3.15083269126679 0.546552207934952 -4.56004006321848
0.00409544735256694 2.17877799156561 1.82452179556857 2.17877799156561 2.30573685949519 3.70637985407308 1.82452179556857 3.70637985407308 1.35764079737594
0.272343727611083 -1.2861780420757 -0.890583868392445 -1.2861780420757 1.05756834371603 1.43924714445565 -0.890583868392445 1.43924714445565 2.75921966368017
-8.90558876547302 0.715646461891001 -2.29427836312115 0.715646461891001 -5.64939736386896 -3.24356234639421 -2.29427836312115 -3.24356234639421 -3.05202167571162
-1.58873885878388 0.428938669606132 -2.56738533798233 0.428938669606132 -4.57048728051194 -4.02702615057407 -2.56738533798233 -4.02702615057407 3.55436072338673
-8.35000465255822 0.302966582147246 -0.0470826445228828 0.302966582147246 -6.55472294618569 -0.558850519771609 -0.0470826445228828 -0.558850519771609 -1.43909126519942
-3.79176788546982 1.49471408589412 -0.0896013893451515 1.49471408589412 0.549826707345248 -0.582409030743485 -0.0896013893451515 -0.582409030743485 -0.545753916920468
-4.72729090667805 -0.0619383001297631 -1.37862668030763 -0.0619383001297631 -1.48651920311431 -0.209791016568552 -1.37862668030763 -0.209791016568552 -0.419582033137105
8.13859171480678 -2.22190477596813 -0.474174201481395 -2.22190477596813 1.58197941556182 3.93606549548273 -0.474174201481395 3.93606549548273 -4.1794469440307
8.77979983553633 2.01933394895285 1.03668482215815 2.01933394895285 3.49230697811965 -1.39091882509636 1.03668482215815 -1.39091882509636 -1.3528937061369
-8.14871718667386 1.191776208697 -2.10771728781926 1.191776208697 -4.5712829489067 -2.56674063321846 -2.10771728781926 -2.56674063321846 -1.72028473940893
-8.33209946406178 0.452319818609102 -0.266070481534766 0.452319818609102 -6.13394794738226 -0.392965634266731 -0.266070481534766 -0.392965634266731 -1.76015857015307
-6.71455167397734 1.89136367729977 -1.81764683018897 1.89136367729977 -3.16982442576408 -1.15630140182358 -1.81764683018897 -1.15630140182358 -0.676088797787555
-3.79078848932858 -0.820871480039013 0.892772631575277 -0.820871480039013 0.373486537146704 0.719011515362639 0.892772631575277 0.719011515362639 5.84796032494946
8.53718264717298 0.211860231133888 0.176550192611574 0.211860231133888 2.2755358158825 -1.8616236976487 0.176550192611574 -1.8616236976487 2.95819656064725
3.90925059989491 -0.901024531726833 -1.3443203539723 -0.901024531726833 0.191751216134086 0.26597749334728 -1.3443203539723 0.26597749334728 -3.87419930232201
-1.33288948070762 -2.15876602373151 0.823896023736062 -2.15876602373151 3.05990229969283 -0.170324658753128 0.823896023736062 -0.170324658753128 3.21438280414334
-0.579203737373622 -1.5390855494875 -2.31681494949449 -1.5390855494875 -4.6397698679364 -0.0675396584216591 -2.31681494949449 -0.0675396584216591 -4.60293005425186
-2.5866764938379 1.28917960303818 -1.38482841229585 1.28917960303818 0.330612188521082 0.679938274505622 -1.38482841229585 0.679938274505622 -9.21971348366339
-6.05992838127426 0.419735299135879 1.46907354697558 0.419735299135879 -5.17808066145512 -3.11774537098526 1.46907354697558 -3.11774537098526 -5.85813256438201
-5.334921868247 0.25228580922506 0.86556594709736 0.25228580922506 -1.93829341233888 -0.953763425119129 0.86556594709736 -0.953763425119129 -3.07460510592167
-2.14652252139516 1.91898307963376 1.46591781948938 1.91898307963376 1.14977894907752 1.97737815760793 1.46591781948938 1.97737815760793 6.0267747716095
-1.93151354203058 -1.92756361658676 -1.27385095563367 -1.92756361658676 -2.95454423198134 -0.483865866868602 -1.27385095563367 -0.483865866868602 -3.2132643485519
-2.67071960016707 0.580417777183433 0.183499778353525 0.580417777183433 7.34796938537377 0.231369285750097 0.183499778353525 0.231369285750097 -0.602357968073528
-3.64690363923952 -0.910145795581441 -1.27462547760827 -0.910145795581441 -2.07100304874203 0.427684251164427 -1.27462547760827 0.427684251164427 -6.43843877615019
-2.82027586212298 -0.155904689755912 1.95280617809649 -0.155904689755912 0.385764168242193 1.52906522645222 1.95280617809649 1.52906522645222 8.10904264538124
-4.72319312069443 -0.301565395866748 -2.69611446635834 -0.301565395866748 1.64363126356512 -1.34206586769837 -2.69611446635834 -1.34206586769837 -0.635084740964409
-3.78237577738096 0.628349222757551 1.13594077729785 0.628349222757551 -2.69146328314717 -1.16868861952626 1.13594077729785 -1.16868861952626 1.70493453601642
-1.46117327054183 -2.23438572035366 0.731577933283496 -2.23438572035366 3.49531679235448 -0.222050754817755 0.731577933283496 -0.222050754817755 4.16146905680775
-6.77347203155494 0.657324099807511 1.92140890712965 0.657324099807511 -6.91100445859159 -3.68506003030549 1.92140890712965 -3.68506003030549 -4.7347560543058
-7.18136892763727 -0.519758823770748 2.68369496257725 -0.519758823770748 -6.8976758644636 0.192579962592349 2.68369496257725 0.192579962592349 -4.12908005816284
2.41972906711385 -0.0878127484033251 2.06262389027366 -0.0878127484033251 6.60351867993005 1.97481114187033 2.06262389027366 1.97481114187033 2.38850675657044
3.19344090593785 -0.892679091201479 -0.523650090450752 -0.892679091201479 -0.8205225826748 -0.531896548568087 -0.523650090450752 -0.531896548568087 -3.53566891780724
1.6466623924912 -0.943894087310352 0.583235866176484 -0.943894087310352 -2.59467828804309 -0.869701538962813 0.583235866176484 -0.869701538962813 -2.68123626111521
-4.12907879712833 3.59590055915513 -1.87019389579149 3.59590055915513 4.31630168985175 0.040700628852916 -1.87019389579149 0.040700628852916 0.32967509370862
1.32639906762519 -3.69075804055073 -0.269490604215912 -3.69075804055073 -7.26993012779331 -1.3895609279883 -0.269490604215912 -1.3895609279883 1.32850446297063
-2.19290987266165 -2.05701123266572 -0.113248866663278 -2.05701123266572 -5.18679809317812 1.48870782904636 -0.113248866663278 1.48870782904636 -2.08377914660431
-3.88635415319624 -1.55959982286617 -1.34673552271822 -1.55959982286617 -3.93272063441659 -0.219187002132543 -1.34673552271822 -0.219187002132543 -5.15089455011476
-5.02027887898138 3.08516732083624 -2.00444116086056 3.08516732083624 3.37675947343345 0.925754106847095 -2.00444116086056 0.925754106847095 -1.21326804751987
-6.66333202195232 1.93853528167773 -1.49526641326459 1.93853528167773 -0.712907074083801 0.645497522666135 -1.49526641326459 0.645497522666135 -2.23268605150027
3.49464260732021 -0.948398583697521 -1.58959849571911 -0.948398583697521 0.294828255366838 1.11746093992186 -1.58959849571911 1.11746093992186 -3.55030948071115
-2.4878510841768 1.00386973572046 -1.60037204245291 1.00386973572046 0.500895665235262 0.401132213238197 -1.60037204245291 0.401132213238197 -9.4110189717231
2.80671653650434 -0.0877098917657606 1.86139881414003 -0.0877098917657606 7.91533045468341 2.40325103438184 1.86139881414003 2.40325103438184 4.03270591251908
-4.02007416977782 1.66542937205491 -3.95513289866625 1.66542937205491 -5.32727911086243 -2.63954843872853 -3.95513289866625 -2.63954843872853 -3.76449884475808
5.93179526278106 -3.24240634356909 -0.0967254810662632 -3.24240634356909 -4.6386176354821 0.199759145680326 -0.0967254810662632 0.199759145680326 -0.590866525643912
-4.77307991585942 -0.0559423347191561 -1.74420207892226 -0.0559423347191561 -0.939032047071549 -0.471513964061458 -1.74420207892226 -0.471513964061458 -0.60737391980798
-2.13513916998233 0.0269745473369973 -1.98574167703896 0.0269745473369973 0.53119108602087 -0.441967583290802 -1.98574167703896 -0.441967583290802 -9.58633913053289
-2.39837024215302 -0.422192447585614 -0.263622514220125 -0.422192447585614 5.94240825287169 0.221997906711684 -0.263622514220125 0.221997906711684 3.00688236144308
-4.87921002966367 -2.42835316780326 1.85757765489921 -2.42835316780326 -3.63536948541398 0.68738556392746 1.85757765489921 0.68738556392746 -1.89849346227584
-4.69544504390761 1.21965017541217 1.99598040651924 1.21965017541217 -5.80270424752412 1.49230234773127 1.99598040651924 1.49230234773127 -5.43431161774945
3.01626672569157 -0.15308898333414 0.208945774550651 -0.15308898333414 -2.09152651555156 -1.13989229482583 0.208945774550651 -1.13989229482583 9.29291504239131
-6.77395071872965 1.50284355765828 2.05652276311134 1.50284355765828 -6.3967187325968 -3.98932965980276 2.05652276311134 -3.98932965980276 -0.896432999304941
-6.95458740968042 -0.253044934083212 2.80216152415098 -0.253044934083212 -7.42126864057159 0.52060883979415 2.80216152415098 0.52060883979415 -4.14620346911755
-1.03515183012212 1.50772114387353 1.02083154788723 1.50772114387353 0.99628249262742 0.204575460498443 1.02083154788723 0.204575460498443 1.54249897215826
-9.93987495120738 -0.850189937748466 -2.10343288302213 -0.850189937748466 -9.34999008081894 -3.29369879586998 -2.10343288302213 -3.29369879586998 -8.21010579391173
0.292512268070664 -0.84045778431571 1.39664308275993 -0.84045778431571 -4.09517175298929 -0.570604917292774 1.39664308275993 -0.570604917292774 -1.84159132151531
-3.76991996830166 1.47991861054374 -3.86620887365529 1.47991861054374 -5.3356612988345 -2.95146427279586 -3.86620887365529 -2.95146427279586 -2.95355750986876
-2.38122031645614 -0.11509231529538 0.188513275052777 -0.11509231529538 7.35797077784946 0.442510108808099 0.188513275052777 0.442510108808099 2.9070731363402
0.112577741528857 2.09599286046454 1.47169811198633 2.09599286046454 2.64455349191424 3.03345841719575 1.47169811198633 3.03345841719575 1.3366048221517
2.34953244612967 1.66572885932352 4.18412743512179 1.66572885932352 -1.05697688570341 -1.70950896701538 4.18412743512179 -1.70950896701538 2.7393838812905
7.81956227731269 0.531132458402179 0.809825535434501 0.531132458402179 -2.06596389713091 -1.05418685660052 0.809825535434501 -1.05418685660052 -1.77111469969092
8.44449275938405 1.159758662233 0.869818996674752 1.159758662233 -0.28389925585912 -1.18593377092923 0.869818996674752 -1.18593377092923 -1.5986951003698
6.71174296722081 -0.580804979562962 1.77194739527683 -0.580804979562962 6.01477699174526 -2.7406119713615 1.77194739527683 -2.7406119713615 2.75636261487508
3.68233471778794 -0.884502572189824 -0.987591450067426 -0.884502572189824 -0.206177755755204 -0.158756871931507 -0.987591450067426 -0.158756871931507 -3.78336181810799
1.05283935684802 -0.55288770694812 2.20370844897052 -0.55288770694812 2.90168016412489 1.06852411449193 2.20370844897052 1.06852411449193 -1.62729360555652
8.46448962070637 -2.42322525981026 -0.338075621169369 -2.42322525981026 -0.535461387566391 2.61011178331382 -0.338075621169369 2.61011178331382 -3.41645363753145
-2.3645013219007 -3.14213143578783 -0.874570453287693 -3.14213143578783 -7.38221758522118 -1.56158242382212 -0.874570453287693 -1.56158242382212 -0.421479736524189
3.10817835346609 -0.436235558381205 -0.00973740085672332 -0.436235558381205 9.66339661021223 2.94264253890179 -0.00973740085672332 2.94264253890179 5.96318428465736
-1.83793433306351 -0.625767946544736 -2.02234939015782 -0.625767946544736 0.18441505709431 -0.924147364764743 -2.02234939015782 -0.924147364764743 -9.33678929513437
-3.21918489624736 0.792005438555454 1.09079818798464 0.792005438555454 -2.02401389853061 -1.01712326346786 1.09079818798464 -1.01712326346786 1.73136072614448
-1.00949764089829 -1.53484845401883 -0.140093550165478 -1.53484845401883 -3.68569648891234 2.07256046274221 -0.140093550165478 2.07256046274221 -1.82945694921977
0.513169182364841 -1.16854187309584 -0.53996114770919 -1.16854187309584 -2.00527556000398 2.19694115823663 -0.53996114770919 2.19694115823663 -2.10626066014806
-2.75677122219808 -2.65192757392656 -0.711292201998907 -2.65192757392656 -6.10971220907732 0.273415788629638 -0.711292201998907 0.273415788629638 -3.27276643231867
-4.88450736042596 2.68553121368827 -1.83248012228141 2.68553121368827 -1.86828720513059 0.526574747782014 -1.83248012228141 0.526574747782014 -1.29537387954376
-7.09094765870897 -0.62828565673201 2.41187289936268 -0.62828565673201 -5.98524757202599 -0.146737768513068 2.41187289936268 -0.146737768513068 -4.12932480970577
2.49214915188706 -0.925537608930762 0.0144293168430186 -0.925537608930762 -1.6305128032611 -0.791551095388447 0.0144293168430186 -0.791551095388447 -3.15795905764349
6.81761943951342 -0.877982105866465 1.97005828229097 -0.877982105866465 4.7473887021907 -2.89714453278084 1.97005828229097 -2.89714453278084 4.37026887148296
2.0222134477797 -1.00801465439783 -1.11932915611048 -1.00801465439783 -0.645211834001067 1.87585549182419 -1.11932915611048 1.87585549182419 -2.72926667162113
8.87462933736999 0.18627701879146 0.43137835930654 0.18627701879146 2.12747963567089 -1.88629991660405 0.43137835930654 -1.88629991660405 3.31573093448799
-2.33190278867911 -1.71335569303796 -1.04342768849371 -1.71335569303796 -1.77264135715692 -0.594832829993571 -1.04342768849371 -0.594832829993571 -1.78252230117675
-0.446776375155555 2.11296533387788 2.36094671641834 2.11296533387788 0.975530066853413 4.26896875894046 2.36094671641834 4.26896875894046 1.33623025963955
6.52374459114314 -0.0570188647206604 -0.444353911271353 -0.0570188647206604 2.70741299035687 -1.57686653468861 -0.444353911271353 -1.57686653468861 1.82853600655911
-4.3194504904487 1.05178108869082 0.149087416455203 1.05178108869082 -0.210356217738164 -0.888397618602924 0.149087416455203 -0.888397618602924 -1.70531496904239
-4.75057209947274 -0.573103906073425 -2.36829697771109 -0.573103906073425 1.63544285391685 -1.18814224429856 -2.36829697771109 -1.18814224429856 -0.115818907847591
-3.1429317194041 1.10963879189068 -3.57968220434789 1.10963879189068 -5.19085265359029 -3.49400387955031 -3.57968220434789 -3.49400387955031 -1.00933246042033
-0.335532919043329 -1.47993983935182 -2.07111688719007 -1.47993983935182 -0.918721087856733 1.77952280278337 -2.07111688719007 1.77952280278337 2.75816048332641
-8.28157971739392 0.182215227403723 0.167883692664104 0.182215227403723 -6.81566844974149 -0.716576736980932 0.167883692664104 -0.716576736980932 -1.0748651054714
6.69612008908425 -0.721937741684465 1.82746638153915 -0.721937741684465 5.62403270701876 -2.82873698240398 1.82746638153915 -2.82873698240398 3.31461878675293
2.67144443904246 1.90340416281775 3.97586066904366 1.90340416281775 0.144007551792133 -0.978833938992901 3.97586066904366 -0.978833938992901 1.06440364368098
-4.37025726040353 0.470800547959163 1.16676657537706 0.470800547959163 -3.37748219188095 -1.27934931510642 1.16676657537706 -1.27934931510642 1.63347320552788
-4.45568603562287 3.44719742673704 -2.08013509024735 3.44719742673704 4.45568603562287 0.743633014632989 -2.08013509024735 0.743633014632989 -0.570458203006129
2.4676061583185 -0.98333177737504 -1.29049411454251 -0.98333177737504 -0.30922382936322 1.70691553808498 -1.29049411454251 1.70691553808498 -2.95824130090814
-1.08321281528464 1.72534465464845 2.71213511705738 1.72534465464845 -1.17758362873747 4.03742958424275 2.71213511705738 4.03742958424275 1.14065591912549
-4.37785195436592 0 0.00199810677971973 0 -3.01913934415651 0.623409315272555 0.00199810677971973 0.623409315272555 0.349668686450953
-4.16718758901016 3.5971765851397 -1.98689549920563 3.5971765851397 4.59062433474251 0.325720573640267 -1.98689549920563 0.325720573640267 0.0447865788755367