5.279930 6.370410 2.489490 10.383100 3.200090 5.057390 2.923780 4.650190 4.856270 2.199890 1.491670 2.544790 7.510460 1.568010 0.143094 8.136170 4.701160 2.504480 1.109560 4.745470 2.147920 4.089860 1.519670 4.677110 9.243080 1.469180 2.818860 6.359060 4.603170 0.193318 1.310920 4.554610 3.635870 3.893050 1.530450 1.163550 9.105090 1.480940 1.308310 6.533720 4.721810 3.614950 4.882350 4.570860 0.552163 0.355599 1.512650 3.226110 5.684080 1.552040 4.352240 9.958000 4.704040 1.811230 1.665370 5.973390 1.397170 3.409960 0.234349 3.970380 8.500290 2.716930 3.400140 7.105240 3.437860 0.926809 8.585680 0.245667 3.500090 7.038600 5.881380 0.975329 1.840150 3.428950 1.579860 3.357080 2.611890 3.863990