0.0964875382254846 -0.197734185942235 -0.29535737984697 -0.188668223771974 -0.397969025526396 -0.46462175520207 0.415571045779315 -0.334717606464441 -0.0343329512051148 0.0254317966622937 0.486341652149323 -0.466623872198747 -0.343226925088046 -0.358097406754515 -0.383092887435896 0.201335014058128 -0.235880852494943 -0.493559249212468 -1.37991780949748 -1.86882902081783 -0.54417113166769 2.27057936580873 -0.732305851809499 -3.91812187946131 1.35904483349373 0.182397820623785 0.496098212271693 0.654653434275622 1.2083343002898 1.03920825021327 0.216465691230008 0.920010683724976 2.01543710393841 -0.878894908776529 -0.161265420445173 4.69259920063153 0.0132799980731153 0.131873869851222 -1.45331093973625 -0.0384870804352812 -0.283109164939087 0.328000860038194 -1.5760316870651 0.167773393402651 0.220988259352718 -0.32304660391787 0.246036190511475 0.00749810427302981 -2.00855246456253 -0.276451553854979 -0.119694560472439 1.04078022187343 -0.38440492070083 0.0927645827725658 1.08688007772345 0.107193863364642 0.273724386141643 0.429467594071775 0.230174034868355 -0.22298523414573 0.00488355081994061 0.225714458740532 1.00293643111654 0.483996035947875 -0.00433513479914808 -0.265783281022937 -0.510285295071182 -0.0114308616354501 0.306145208914205 -0.340539866563291 -1.03996903924539 -0.419406101272115 -0.31576138687654 1.09931778283636 -1.43893385251137 -0.395443946417065 1.28133173795661 0.0445942186171307