-5.93038092220815 -0.0119886406783184 -3.63056001875075 -0.0119886406783184 -3.00715070347819 1.88621280005542 -3.63056001875075 1.88621280005542 12.7239439732552