10.880559 0.000000 0.000000 0.000000 6.185332 0.000000 0.000000 0.000000 4.997318
10.933377 0.000000 0.000000 0.000000 6.185332 0.000000 0.000000 0.000000 4.997318
10.933377 0.000000 0.000000 0.000000 6.237771 0.000000 0.000000 0.000000 5.008742
10.933377 0.000000 0.000000 0.000000 6.267349 0.000000 0.000000 0.000000 4.960558
10.986196 0.000000 0.000000 0.000000 6.267349 0.000000 0.000000 0.000000 4.960558
10.986196 0.000000 0.000000 0.000000 6.271693 0.000000 0.000000 0.000000 4.985752
10.986196 0.000000 0.000000 0.000000 6.252618 0.000000 0.000000 0.000000 4.983036
11.039014 0.000000 0.000000 0.000000 6.252618 0.000000 0.000000 0.000000 4.983036
11.039014 0.000000 0.000000 0.000000 6.230613 0.000000 0.000000 0.000000 4.996460
11.039014 0.000000 0.000000 0.000000 6.180477 0.000000 0.000000 0.000000 5.022694
11.091832 0.000000 0.000000 0.000000 6.180477 0.000000 0.000000 0.000000 5.022694
10.616468 0.000000 0.000000 0.000000 6.309166 0.000000 0.000000 0.000000 5.024798
11.091832 0.000000 0.000000 0.000000 6.198551 0.000000 0.000000 0.000000 4.926750
11.091832 0.000000 0.000000 0.000000 6.187938 0.000000 0.000000 0.000000 4.963510
11.144650 0.000000 0.000000 0.000000 6.187938 0.000000 0.000000 0.000000 4.963510
11.144650 0.000000 0.000000 0.000000 6.209317 0.000000 0.000000 0.000000 4.971954
11.144650 0.000000 0.000000 0.000000 6.189332 0.000000 0.000000 0.000000 4.887969
11.197469 0.000000 0.000000 0.000000 6.189332 0.000000 0.000000 0.000000 4.887969
11.197469 0.000000 0.000000 0.000000 6.153791 0.000000 0.000000 0.000000 4.911903
11.197469 0.000000 0.000000 0.000000 6.083157 0.000000 0.000000 0.000000 5.007925
11.250287 0.000000 0.000000 0.000000 6.083157 0.000000 0.000000 0.000000 5.007925
11.250287 0.000000 0.000000 0.000000 6.149947 0.000000 0.000000 0.000000 4.991982
10.616468 0.000000 0.000000 0.000000 6.303636 0.000000 0.000000 0.000000 5.025658
11.250287 0.000000 0.000000 0.000000 6.185210 0.000000 0.000000 0.000000 5.025857
11.303105 0.000000 0.000000 0.000000 6.185210 0.000000 0.000000 0.000000 5.025857
11.303105 0.000000 0.000000 0.000000 6.172611 0.000000 0.000000 0.000000 4.958021
11.303105 0.000000 0.000000 0.000000 6.156552 0.000000 0.000000 0.000000 4.983166
11.355923 0.000000 0.000000 0.000000 6.156552 0.000000 0.000000 0.000000 4.983166
11.355923 0.000000 0.000000 0.000000 6.161889 0.000000 0.000000 0.000000 5.091284
11.355923 0.000000 0.000000 0.000000 6.098742 0.000000 0.000000 0.000000 4.942614
11.408742 0.000000 0.000000 0.000000 6.098742 0.000000 0.000000 0.000000 4.942614
11.408742 0.000000 0.000000 0.000000 6.178122 0.000000 0.000000 0.000000 4.989154
11.408742 0.000000 0.000000 0.000000 6.048775 0.000000 0.000000 0.000000 5.040884
10.616468 0.000000 0.000000 0.000000 6.293380 0.000000 0.000000 0.000000 5.006095
11.461560 0.000000 0.000000 0.000000 6.048775 0.000000 0.000000 0.000000 5.040884
11.461560 0.000000 0.000000 0.000000 6.056000 0.000000 0.000000 0.000000 4.973827
11.461560 0.000000 0.000000 0.000000 6.142058 0.000000 0.000000 0.000000 5.069897
11.514378 0.000000 0.000000 0.000000 6.142058 0.000000 0.000000 0.000000 5.069897
11.514378 0.000000 0.000000 0.000000 6.084040 0.000000 0.000000 0.000000 4.980950
11.514378 0.000000 0.000000 0.000000 6.138668 0.000000 0.000000 0.000000 5.081226
11.567196 0.000000 0.000000 0.000000 6.138668 0.000000 0.000000 0.000000 5.081226
11.567196 0.000000 0.000000 0.000000 6.278765 0.000000 0.000000 0.000000 4.909012
11.567196 0.000000 0.000000 0.000000 6.061142 0.000000 0.000000 0.000000 4.951503
11.620015 0.000000 0.000000 0.000000 6.061142 0.000000 0.000000 0.000000 4.951503
10.669286 0.000000 0.000000 0.000000 6.293380 0.000000 0.000000 0.000000 5.006095
11.620015 0.000000 0.000000 0.000000 6.239011 0.000000 0.000000 0.000000 4.976648
11.620015 0.000000 0.000000 0.000000 6.091566 0.000000 0.000000 0.000000 4.895496
11.672833 0.000000 0.000000 0.000000 6.091566 0.000000 0.000000 0.000000 4.895496
11.672833 0.000000 0.000000 0.000000 5.986477 0.000000 0.000000 0.000000 5.023254
11.672833 0.000000 0.000000 0.000000 6.096811 0.000000 0.000000 0.000000 4.979987
11.725651 0.000000 0.000000 0.000000 6.096811 0.000000 0.000000 0.000000 4.979987
11.725651 0.000000 0.000000 0.000000 6.283142 0.000000 0.000000 0.000000 4.908772
11.725651 0.000000 0.000000 0.000000 6.076238 0.000000 0.000000 0.000000 4.944900
11.778469 0.000000 0.000000 0.000000 6.076238 0.000000 0.000000 0.000000 4.944900
11.778469 0.000000 0.000000 0.000000 5.988259 0.000000 0.000000 0.000000 5.051799
10.669286 0.000000 0.000000 0.000000 6.292855 0.000000 0.000000 0.000000 4.971449
11.778469 0.000000 0.000000 0.000000 6.084702 0.000000 0.000000 0.000000 5.035670
11.831288 0.000000 0.000000 0.000000 6.084702 0.000000 0.000000 0.000000 5.035670
11.831288 0.000000 0.000000 0.000000 6.054653 0.000000 0.000000 0.000000 5.035140
11.831288 0.000000 0.000000 0.000000 6.107105 0.000000 0.000000 0.000000 4.958498
11.884106 0.000000 0.000000 0.000000 6.107105 0.000000 0.000000 0.000000 4.958498
11.884106 0.000000 0.000000 0.000000 6.104736 0.000000 0.000000 0.000000 5.081043
11.884106 0.000000 0.000000 0.000000 6.051789 0.000000 0.000000 0.000000 5.109530
11.936924 0.000000 0.000000 0.000000 6.051789 0.000000 0.000000 0.000000 5.109530
11.936924 0.000000 0.000000 0.000000 5.988902 0.000000 0.000000 0.000000 5.076558
11.936924 0.000000 0.000000 0.000000 6.035972 0.000000 0.000000 0.000000 5.054443
10.669286 0.000000 0.000000 0.000000 6.236061 0.000000 0.000000 0.000000 4.931407
11.989742 0.000000 0.000000 0.000000 6.035972 0.000000 0.000000 0.000000 5.054443
11.989742 0.000000 0.000000 0.000000 5.977228 0.000000 0.000000 0.000000 4.985455
11.989742 0.000000 0.000000 0.000000 6.087863 0.000000 0.000000 0.000000 5.097418
12.042561 0.000000 0.000000 0.000000 6.087863 0.000000 0.000000 0.000000 5.097418
12.042561 0.000000 0.000000 0.000000 6.166856 0.000000 0.000000 0.000000 5.038486
12.042561 0.000000 0.000000 0.000000 6.115510 0.000000 0.000000 0.000000 4.972402
12.095379 0.000000 0.000000 0.000000 6.115510 0.000000 0.000000 0.000000 4.972402
12.095379 0.000000 0.000000 0.000000 6.121142 0.000000 0.000000 0.000000 4.978439
12.095379 0.000000 0.000000 0.000000 6.086259 0.000000 0.000000 0.000000 4.963359
12.148197 0.000000 0.000000 0.000000 6.086259 0.000000 0.000000 0.000000 4.963359
10.722104 0.000000 0.000000 0.000000 6.236061 0.000000 0.000000 0.000000 4.931407
12.148197 0.000000 0.000000 0.000000 5.992368 0.000000 0.000000 0.000000 5.064517
12.148197 0.000000 0.000000 0.000000 5.916089 0.000000 0.000000 0.000000 5.115003
12.201015 0.000000 0.000000 0.000000 5.916089 0.000000 0.000000 0.000000 5.115003
12.201015 0.000000 0.000000 0.000000 5.927128 0.000000 0.000000 0.000000 5.024717
12.201015 0.000000 0.000000 0.000000 6.011919 0.000000 0.000000 0.000000 5.133418
12.253834 0.000000 0.000000 0.000000 6.011919 0.000000 0.000000 0.000000 5.133418
12.253834 0.000000 0.000000 0.000000 6.001651 0.000000 0.000000 0.000000 4.995287
12.253834 0.000000 0.000000 0.000000 6.063131 0.000000 0.000000 0.000000 5.059880
12.306652 0.000000 0.000000 0.000000 6.063131 0.000000 0.000000 0.000000 5.059880
12.306652 0.000000 0.000000 0.000000 5.967274 0.000000 0.000000 0.000000 5.222631
10.722104 0.000000 0.000000 0.000000 6.285264 0.000000 0.000000 0.000000 4.972972
12.306652 0.000000 0.000000 0.000000 5.979213 0.000000 0.000000 0.000000 5.199375
12.359470 0.000000 0.000000 0.000000 5.979213 0.000000 0.000000 0.000000 5.199375
12.359470 0.000000 0.000000 0.000000 6.035827 0.000000 0.000000 0.000000 5.201071
12.359470 0.000000 0.000000 0.000000 5.934679 0.000000 0.000000 0.000000 5.171839
12.412288 0.000000 0.000000 0.000000 5.934679 0.000000 0.000000 0.000000 5.171839
12.412288 0.000000 0.000000 0.000000 6.046416 0.000000 0.000000 0.000000 4.988906
12.412288 0.000000 0.000000 0.000000 5.959419 0.000000 0.000000 0.000000 5.049822
12.465107 0.000000 0.000000 0.000000 5.959419 0.000000 0.000000 0.000000 5.049822
12.465107 0.000000 0.000000 0.000000 6.039770 0.000000 0.000000 0.000000 5.142043
12.465107 0.000000 0.000000 0.000000 6.078351 0.000000 0.000000 0.000000 5.056239
10.722104 0.000000 0.000000 0.000000 6.284550 0.000000 0.000000 0.000000 5.071065
12.517925 0.000000 0.000000 0.000000 6.078351 0.000000 0.000000 0.000000 5.056239
12.517925 0.000000 0.000000 0.000000 5.911896 0.000000 0.000000 0.000000 5.022298
12.517925 0.000000 0.000000 0.000000 5.972628 0.000000 0.000000 0.000000 5.175416
12.570743 0.000000 0.000000 0.000000 5.972628 0.000000 0.000000 0.000000 5.175416
12.570743 0.000000 0.000000 0.000000 5.750699 0.000000 0.000000 0.000000 5.286869
10.774923 0.000000 0.000000 0.000000 6.284550 0.000000 0.000000 0.000000 5.071065
12.676380 0.000000 0.000000 0.000000 5.613282 0.000000 0.000000 0.000000 5.423459
12.782016 0.000000 0.000000 0.000000 5.630092 0.000000 0.000000 0.000000 5.439387
10.774923 0.000000 0.000000 0.000000 6.348713 0.000000 0.000000 0.000000 5.129771
12.834834 0.000000 0.000000 0.000000 5.390262 0.000000 0.000000 0.000000 5.623692
12.887653 0.000000 0.000000 0.000000 5.390262 0.000000 0.000000 0.000000 5.623692
10.774923 0.000000 0.000000 0.000000 6.377084 0.000000 0.000000 0.000000 5.020770
10.827741 0.000000 0.000000 0.000000 6.287366 0.000000 0.000000 0.000000 5.056230
10.827741 0.000000 0.000000 0.000000 6.239418 0.000000 0.000000 0.000000 5.010475
10.880559 0.000000 0.000000 0.000000 6.239418 0.000000 0.000000 0.000000 5.010475
10.880559 0.000000 0.000000 0.000000 6.277058 0.000000 0.000000 0.000000 4.926786