-0.0786457 0.0166983 -0.0251951 5.36163 0.0166983 2.47346 -0.0786457 3.10936 -0.0251951 5.36163 3.10936 2.47346 3.06098 4.6557 4.9412 2.22201 1.56303 2.44255 7.66229 1.56303 0.00572368 8.50126 4.6557 2.50438 1.15714 4.6557 2.23961 4.12585 1.56303 4.73826 9.56613 1.56303 2.70732 6.59742 4.6557 0.208664 1.22709 4.6557 3.71985 4.0559 1.56303 1.22119 9.49618 1.56303 1.22708 6.66737 4.6557 3.72574 5.06431 4.6557 0.613742 0.21868 1.56303 3.1124 5.65896 1.56303 4.33319 10.5046 4.6557 1.83453 1.88129 5.84047 1.59673 3.4017 0.378258 4.09539 8.84198 2.7478 3.3502 7.32156 3.47092 0.851543 8.84198 0.378258 3.3502 7.32156 5.84047 0.851543 1.88129 3.47092 1.59673 3.4017 2.7478 4.09539
-0.0786456 0.0166983 -0.0251951 5.38804 0.0166983 2.47346 -0.0786456 3.10936 -0.0251951 5.38804 3.10936 2.47346 3.07622 4.6557 4.9412 2.23318 1.56303 2.44255 7.69987 1.56303 0.00572368 8.54291 4.6557 2.50438 1.16314 4.6557 2.23961 4.14626 1.56303 4.73826 9.61295 1.56303 2.70732 6.62983 4.6557 0.208664 1.23343 4.6557 3.71985 4.07597 1.56303 1.22119 9.54266 1.56303 1.22708 6.70012 4.6557 3.72574 5.08927 4.6557 0.613742 0.220124 1.56303 3.1124 5.68681 1.56303 4.33319 10.556 4.6557 1.83453 1.8908 5.84047 1.59673 3.4186 0.378258 4.09539 8.88529 2.7478 3.3502 7.35749 3.47092 0.851543 8.88529 0.378258 3.3502 7.35749 5.84047 0.851543 1.8908 3.47092 1.59673 3.4186 2.7478 4.09539
-0.0786454 -0.00952103 -0.0309069 5.38804 -0.00952113 2.47346 -0.0786454 3.10936 -0.0309069 5.38804 3.10936 2.47346 3.12334 4.66881 4.92378 2.18606 1.54992 2.4194 7.65274 1.54992 0.0231529 8.59003 4.66881 2.52752 1.06123 4.66881 2.21314 4.24817 1.54992 4.71751 9.71486 1.54992 2.73379 6.52792 4.66881 0.229414 1.16165 4.66881 3.69038 4.14774 1.54992 1.18601 9.61443 1.54992 1.25655 6.62834 4.66881 3.76092 5.0973 4.66881 0.783732 0.212095 1.54992 3.2881 5.67878 1.54992 4.1632 10.564 4.66881 1.65883 1.913 5.87487 1.57135 3.3964 0.343862 4.07572 8.86309 2.75598 3.37558 7.37969 3.46275 0.871205 8.86309 0.343864 3.37558 7.37969 5.87486 0.871205 1.913 3.46275 1.57135 3.3964 2.75598 4.07572
-0.0786446 -0.0243094 -0.00681517 5.38804 -0.0243106 2.47346 -0.0786446 3.10936 -0.00681517 5.38804 3.10936 2.47346 3.08561 4.6762 4.83181 2.22379 1.54253 2.35153 7.69048 1.54253 0.115117 8.5523 4.6762 2.5954 1.16886 4.6762 2.25035 4.14054 1.54253 4.73063 9.60722 1.54253 2.69658 6.63555 4.6762 0.216299 1.21325 4.6762 3.7759 4.09615 1.54253 1.29562 9.56284 1.54253 1.17102 6.67993 4.6762 3.6513 5.00018 4.6762 0.70248 0.309217 1.54253 3.18276 5.7759 1.54253 4.24445 10.4669 4.6762 1.76417 1.85801 5.91808 1.53425 3.45139 0.300644 4.01452 8.91808 2.78441 3.41268 7.32469 3.43432 0.932403 8.91808 0.300645 3.41268 7.32469 5.91808 0.932403 1.85801 3.43432 1.53425 3.45139 2.78441 4.01452
-0.0786445 -0.0243094 -0.00681517 5.41445 -0.0243106 2.47346 -0.0786445 3.10936 -0.00681517 5.41445 3.10936 2.47346 3.1009 4.6762 4.83181 2.23491 1.54253 2.35153 7.72801 1.54253 0.115117 8.594 4.6762 2.5954 1.17489 4.6762 2.25035 4.16092 1.54253 4.73063 9.65401 1.54253 2.69658 6.66799 4.6762 0.216299 1.21949 4.6762 3.7759 4.11632 1.54253 1.29562 9.60942 1.54253 1.17102 6.71258 4.6762 3.6513 5.02472 4.6762 0.70248 0.311091 1.54253 3.18276 5.80418 1.54253 4.24445 10.5178 4.6762 1.76417 1.86736 5.91808 1.53425 3.46844 0.300644 4.01452 8.96154 2.78441 3.41268 7.36046 3.43432 0.932403 8.96154 0.300645 3.41268 7.36046 5.91808 0.932403 1.86736 3.43432 1.53425 3.46844 2.78441 4.01452
-0.0786443 -0.0264838 -0.019413 5.41445 -0.0264808 2.47346 -0.0786443 3.10937 -0.019413 5.41445 3.10936 2.47346 3.08691 4.67729 4.98599 2.2489 1.54144 2.49311 7.742 1.54144 -0.0390563 8.58001 4.67729 2.45382 1.15757 4.67729 2.21942 4.17823 1.54144 4.71229 9.67133 1.54144 2.72752 6.65067 4.67729 0.23464 1.1321 4.67729 3.78867 4.2037 1.54144 1.2958 9.6968 1.54144 1.15825 6.6252 4.67729 3.65113 5.06076 4.67729 0.748848 0.27505 1.54144 3.24172 5.76815 1.54144 4.19808 10.5539 4.67729 1.7052 1.8231 5.97548 1.52758 3.51271 0.243252 4.02046 9.00581 2.83963 3.41934 7.31619 3.3791 0.926466 9.00581 0.243253 3.41934 7.31619 5.97548 0.926466 1.8231 3.3791 1.52758 3.51271 2.83963 4.02046
-0.0786005 -0.0169479 -0.0180604 5.41441 -0.016942 2.47346 -0.0786 3.10937 -0.0180603 5.41441 3.10936 2.47346 3.08633 4.67252 4.8613 2.24948 1.54621 2.36978 7.74259 1.54621 0.0856291 8.57941 4.67252 2.57715 1.1115 4.67252 2.23637 4.22431 1.54621 4.72789 9.71727 1.54621 2.71057 6.60473 4.67252 0.219047 1.15057 4.67252 3.76633 4.18524 1.54621 1.27481 9.67839 1.54621 1.1806 6.64361 4.67252 3.67212 5.16213 4.67252 0.835597 0.173675 1.54621 3.32712 5.66648 1.54621 4.11138 10.6555 4.67252 1.61987 1.85875 5.89481 1.57931 3.47706 0.32392 4.07082 8.97022 2.76838 3.36759 7.35178 3.45035 0.876075 8.97022 0.324042 3.36759 7.35178 5.89469 0.876075 1.85875 3.45023 1.57931 3.47706 2.7685 4.07082
-0.0786001 -0.0169479 -0.0180604 5.44082 -0.016942 2.47346 -0.0785997 3.10937 -0.0180603 5.44082 3.10936 2.47346 3.10154 4.67252 4.8613 2.26067 1.54621 2.36978 7.78019 1.54621 0.0856291 8.62104 4.67252 2.57715 1.11722 4.67252 2.23637 4.245 1.54621 4.72789 9.76437 1.54621 2.71057 6.63686 4.67252 0.219047 1.15648 4.67252 3.76633 4.20574 1.54621 1.27481 9.7253 1.54621 1.1806 6.67593 4.67252 3.67212 5.18733 4.67252 0.835597 0.174888 1.54621 3.32712 5.6941 1.54621 4.11138 10.7071 4.67252 1.61987 1.86807 5.89481 1.57931 3.49415 0.32392 4.07082 9.01373 2.76838 3.36759 7.3875 3.45035 0.876075 9.01373 0.324042 3.36759 7.3875 5.89469 0.876075 1.86807 3.45023 1.57931 3.49415 2.7685 4.07082
-0.0784415 -0.00588182 -0.024922 5.44066 -0.00600277 2.47331 -0.0784422 3.1093 -0.0249219 5.44066 3.10942 2.47331 3.10525 4.66702 4.88668 2.25697 1.55171 2.38845 7.77646 1.55171 0.0603883 8.62477 4.66702 2.55862 1.08375 4.66702 2.18735 4.27846 1.55171 4.68558 9.80028 1.55171 2.75867 6.60095 4.66702 0.26044 1.30028 4.66702 3.70572 4.06193 1.55171 1.20749 9.58144 1.55171 1.24044 6.81979 4.66702 3.73867 5.08749 4.66702 0.647874 0.274729 1.55171 3.1461 5.79527 1.55171 4.29913 10.606 4.66702 1.8009 1.82618 5.89386 1.55679 3.53604 0.324868 4.05502 9.05477 2.78016 3.39135 7.34646 3.43856 0.893118 9.05477 0.323258 3.39135 7.34646 5.89547 0.893119 1.82618 3.44018 1.55679 3.53604 2.77855 4.05502
-0.0771286 0.0163344 -0.0356833 5.43935 0.0219172 2.47566 -0.0771292 3.11216 -0.0356841 5.43935 3.10657 2.47566 3.09373 4.65448 5.002 2.26848 1.56425 2.49065 7.79542 1.56424 -0.0526189 8.60581 4.65448 2.45873 1.07232 4.65448 2.1965 4.2899 1.56424 4.70785 9.7794 1.56425 2.74367 6.62183 4.65448 0.232322 1.12477 4.65448 3.76685 4.23745 1.56424 1.2555 9.75715 1.56425 1.1746 6.64408 4.65448 3.68594 5.054 4.65448 0.876034 0.308212 1.56425 3.38738 5.7846 1.56424 4.07856 10.6166 4.65448 1.56722 1.88231 5.90974 1.57295 3.47991 0.308985 4.0843 9.00972 2.81546 3.37198 7.39151 3.40326 0.860635 9.00972 0.313032 3.37198 7.39151 5.9057 0.860636 1.88231 3.39923 1.57295 3.47991 2.8195 4.0843
-0.0771212 6.19681 -0.0356833 5.46575 0.0219172 2.47566 -0.0771218 3.11216 -0.0356841 5.46575 3.10657 2.47566 3.10891 4.65448 -0.0206937 2.27972 1.56425 2.49065 7.83309 1.56424 4.97008 8.64737 4.65448 2.45873 1.07783 4.65448 2.1965 4.3108 1.56424 4.70785 9.82657 1.56425 2.74367 6.65389 4.65448 0.232322 1.13053 4.65448 3.76685 4.2581 1.56424 1.2555 9.80421 1.56425 1.1746 6.67625 4.65448 3.68594 5.07856 4.65448 0.876034 0.310063 1.56425 3.38738 5.81265 1.56424 4.07856 10.6678 4.65448 1.56722 1.89169 5.90974 1.57295 3.49693 0.308985 4.0843 9.0532 2.81546 3.37198 7.42725 3.40326 0.860635 9.0532 0.313032 3.37198 7.42725 5.9057 0.860636 1.89169 3.39923 1.57295 3.49693 2.8195 4.0843
-0.0786464 -0.0452185 -0.0389346 5.22959 -0.0452185 2.47346 -0.0786464 3.10936 -0.0389346 5.22959 3.10936 2.47346 2.98129 4.68666 4.89606 2.16965 1.53207 2.38367 7.47788 1.53207 0.0508637 8.28952 4.68666 2.56326 1.08059 4.68666 2.19748 4.07035 1.53207 4.70987 9.37858 1.53207 2.74945 6.38883 4.68666 0.237054 1.13904 4.68666 3.74478 4.01191 1.53207 1.23238 9.32014 1.53207 1.20215 6.44727 4.68666 3.71455 4.90249 4.68666 0.746049 0.248448 1.53207 3.25845 5.55668 1.53207 4.20088 10.2107 4.68666 1.68848 1.81483 5.92852 1.5521 3.33611 0.29021 4.0645 8.64435 2.77394 3.39482 7.12306 3.44479 0.882426 8.64435 0.29021 3.39482 7.12306 5.92852 0.882426 1.81483 3.44479 1.5521 3.33611 2.77394 4.0645
-0.048528 6.21617 -0.00433785 5.43715 0.00256247 2.45904 -0.0485168 3.10183 -0.00433914 5.43714 3.1169 2.45904 3.07954 4.65901 -0.106809 2.30908 1.55972 2.35657 7.88107 1.55973 5.06221 8.59939 4.659 2.59884 1.15226 4.659 2.1936 4.23637 1.55973 4.65697 9.79933 1.55972 2.74037 6.68113 4.65901 0.276998 1.22583 4.659 3.78116 4.1628 1.55973 1.31779 9.71089 1.55973 1.21824 6.76957 4.659 3.68161 5.22771 4.65901 0.714709 0.160915 1.55972 3.17808 5.71332 1.55973 4.1809 10.7671 4.659 1.71753 1.87261 5.94889 1.48636 3.51602 0.269837 3.94973 9.12198 2.838 3.47848 7.35848 3.38072 1.01511 9.12199 0.281434 3.47847 7.35847 5.93729 1.0151 1.87261 3.3691 1.48636 3.51602 2.84963 3.94974
-0.0542038 6.20385 0.000868855 5.44283 0.0148794 2.48262 -0.0541846 3.10882 0.000869128 5.44281 3.10991 2.48262 3.13506 4.65638 -0.0635697 2.25357 1.56235 2.41819 7.77257 1.56242 5.0335 8.70789 4.65631 2.55174 1.20775 4.65632 2.15617 4.18088 1.5624 4.63792 9.73152 1.56237 2.76942 6.74894 4.65636 0.287665 1.21046 4.65635 3.73179 4.17816 1.56238 1.25004 9.66855 1.56237 1.22788 6.8119 4.65636 3.70963 5.11837 4.65636 0.817805 0.270255 1.56237 3.29956 5.75582 1.56239 4.16421 10.7246 4.65634 1.68246 1.86837 5.91959 1.48923 3.52025 0.299141 3.97098 9.06012 2.83147 3.40112 7.42034 3.38725 0.919368 9.06015 0.293176 3.40112 7.42031 5.92555 0.919362 1.86833 3.39302 1.48925 3.52029 2.8257 3.97101
-0.0540873 0.0159112 0.000868855 5.46912 6.20282 2.48262 -0.054068 3.10882 0.000869128 5.4691 3.10991 2.48262 3.15036 4.65638 4.89994 2.26467 1.56235 2.41819 7.80996 1.56242 0.0699888 8.74973 4.65631 2.55174 1.21387 4.65632 2.15617 4.20116 1.5624 4.63792 9.77823 1.56237 2.76942 6.78145 4.65636 0.287665 1.2166 4.65635 3.73179 4.19843 1.56238 1.25004 9.71497 1.56237 1.22788 6.84472 4.65636 3.70963 5.14312 4.65636 0.817805 0.271917 1.56237 3.29956 5.7836 1.56239 4.16421 10.7761 4.65634 1.68246 1.87764 5.91959 1.48923 3.53739 0.299141 3.97098 9.10364 2.83147 3.40112 7.45605 3.38725 0.919368 9.10367 0.293176 3.40112 7.45602 5.92555 0.919362 1.8776 3.39302 1.48925 3.53743 2.8257 3.97101
-0.0532652 0.0191918 -0.0245684 5.4683 6.19954 2.46141 -0.053482 3.09497 -0.0246778 5.46852 3.12376 2.4613 3.214 4.66167 5.02944 2.20104 1.55706 2.54346 7.79422 1.55699 -0.0567229 8.76547 4.66173 2.42925 1.21055 4.66171 2.2491 4.20448 1.55702 4.73508 9.83955 1.55708 2.6793 6.72014 4.66165 0.19332 1.35887 4.66169 3.80612 4.05617 1.55704 1.32014 9.67748 1.55705 1.16536 6.88221 4.66168 3.65134 5.31238 4.6617 0.698919 0.102652 1.55703 3.1849 5.72076 1.55703 4.15348 10.8389 4.6617 1.6675 1.9851 5.88072 1.64292 3.42994 0.338007 4.1289 9.05649 2.76921 3.3293 7.50319 3.44952 0.843324 9.05642 0.344937 3.32936 7.50327 5.87379 0.843385 1.98512 3.44269 1.6429 3.42991 2.77603 4.12888
-0.0323521 0.0254869 0.0290147 5.44739 6.19324 2.473 -0.0337911 3.09992 0.028786 5.44883 3.11881 2.47277 3.15333 4.65611 4.83586 2.2617 1.56261 2.39187 7.82157 1.56155 0.124445 8.73812 4.65718 2.56843 1.18701 4.65708 2.16895 4.22803 1.56165 4.61293 9.82266 1.56251 2.7502 6.73703 4.65622 0.306219 1.30824 4.65688 3.69969 4.1068 1.56185 1.2557 9.71435 1.56219 1.24786 6.84534 4.65654 3.69184 5.29314 4.65619 0.781611 0.121897 1.56253 3.2256 5.78032 1.56159 4.1882 10.7794 4.65714 1.74421 1.88898 5.8743 1.55071 3.52606 0.344431 3.99469 9.12046 2.81796 3.38882 7.43922 3.40077 0.944832 9.12022 0.307101 3.38926 7.43947 5.91163 0.945276 1.88897 3.44057 1.55034 3.52606 2.77815 3.99432
-0.0321326 0.0254869 4.91698 5.47358 6.19324 2.473 -0.0335784 3.09992 4.91675 5.47502 3.11881 2.47277 3.16865 4.65611 4.83586 2.27279 1.56261 2.39187 7.85901 1.56155 0.124445 8.7799 4.65718 2.56843 1.193 4.65708 2.16895 4.24844 1.56165 4.61293 9.86958 1.56251 2.7502 6.76933 4.65622 0.306219 1.31481 4.65688 3.69969 4.12664 1.56185 1.2557 9.76076 1.56219 1.24786 6.87815 4.65654 3.69184 5.3186 4.65619 0.781611 0.122847 1.56253 3.2256 5.80809 1.56159 4.1882 10.8308 4.65714 1.74421 1.89831 5.8743 1.55071 3.54314 0.344431 3.99469 9.16406 2.81796 3.38882 7.47485 3.40077 0.944832 9.16382 0.307101 3.38926 7.4751 5.91163 0.945276 1.8983 3.44057 1.55034 3.54315 2.77815 3.99432
-0.120718 0.0333458 4.93305 5.56216 6.18538 2.4771 -0.125667 3.12488 4.93714 5.56711 3.09385 2.48119 3.16338 4.63674 4.86166 2.27806 1.58199 2.40571 7.91742 1.56283 0.0743014 8.72149 4.65589 2.53025 1.22871 4.65796 2.23709 4.21274 1.56076 4.69304 9.89782 1.58126 2.69766 6.74109 4.63747 0.241705 1.16329 4.6514 3.75118 4.27816 1.56733 1.29522 9.79719 1.57449 1.18431 6.84172 4.64424 3.64026 5.24094 4.63642 0.763019 0.200504 1.58231 3.21897 5.73143 1.5607 4.17371 10.9075 4.65803 1.71776 1.78533 5.86305 1.56599 3.65611 0.355679 4.02194 9.17653 2.80978 3.41395 7.46238 3.40895 0.957999 9.17371 0.349916 3.4207 7.46521 5.86881 0.964749 1.79281 3.45877 1.56039 3.64863 2.75995 4.01634
-0.0651059 0.163502 4.98944 5.50655 6.05523 2.48548 -0.22214 3.14676 4.97474 5.66359 3.07197 2.47077 3.17708 4.48445 4.95507 2.26436 1.73428 2.4511 7.92811 1.49578 -0.0389109 8.7108 4.72294 2.46505 1.09434 4.81309 2.26573 4.3471 1.40564 4.76969 9.85195 1.68355 2.69377 6.78696 4.53518 0.189805 1.24594 4.65497 3.78046 4.1955 1.56375 1.2765 9.78005 1.61668 1.18719 6.85886 4.60205 3.69115 5.26174 4.53567 0.766097 0.1797 1.68306 3.27006 5.88744 1.52013 4.2664 10.7515 4.69859 1.76243 1.75409 5.97511 1.70863 3.68735 0.243622 4.2126 9.17854 2.91557 3.26782 7.46037 3.30316 0.763855 9.15489 0.444025 3.32388 7.48402 5.7747 0.819917 1.97147 3.48414 1.55692 3.46998 2.73459 4.06088
-0.0650419 0.163502 -0.01848 5.5329 6.05523 2.48548 11.0275 3.14676 4.97474 5.69067 3.07197 2.47077 3.19244 4.48445 4.95507 2.27542 1.73428 2.4511 7.96588 1.49578 4.96901 8.75226 4.72294 2.46505 1.09988 4.81309 2.26573 4.36798 1.40564 4.76969 9.89879 1.68355 2.69377 6.81935 4.53518 0.189805 1.25219 4.65497 3.78046 4.21567 1.56375 1.2765 9.82655 1.61668 1.18719 6.89159 4.60205 3.69115 5.28694 4.53567 0.766097 0.180919 1.68306 3.27006 5.91558 1.52013 4.2664 10.8026 4.69859 1.76243 1.76274 5.97511 1.70863 3.70511 0.243622 4.2126 9.22221 2.91557 3.26782 7.49593 3.30316 0.763855 9.19844 0.444025 3.32388 7.5197 5.7747 0.819917 1.98114 3.48414 1.55692 3.48671 2.73459 4.06088
0.211575 0.262875 0.0314808 5.25628 5.95585 2.52747 10.9178 3.33245 4.93877 5.80031 2.88628 2.44278 3.16799 4.44894 4.83405 2.29986 1.76979 2.33806 7.96667 1.42455 5.04354 8.75148 4.79418 2.54754 1.12308 4.84044 2.28508 4.34478 1.37829 4.78107 9.95766 1.70972 2.69591 6.76049 4.50901 0.199921 1.2638 4.63446 3.86637 4.20406 1.58427 1.37037 9.88273 1.58953 1.16525 6.83542 4.6292 3.66124 5.25727 4.44941 0.764414 0.210584 1.76932 3.26041 5.8178 1.39827 4.21913 10.9003 4.82046 1.72314 1.8075 6.13 1.71827 3.66036 0.0887243 4.21426 9.10865 2.9057 3.30982 7.6095 3.31303 0.813824 9.24029 0.447239 3.38295 7.47785 5.77149 0.886961 1.9152 3.54075 1.47609 3.55265 2.67798 3.97208
-0.0786464 -0.0424538 -0.0393649 5.22959 -0.0424538 2.47346 -0.0786464 3.10936 -0.0393649 5.22959 3.10936 2.47346 2.97702 4.68527 4.90224 2.17392 1.53346 2.38941 7.48216 1.53346 0.0446859 8.28525 4.68527 2.55751 1.08711 4.68527 2.20356 4.06383 1.53346 4.71639 9.37206 1.53346 2.74337 6.39535 4.68527 0.230537 1.15045 4.68527 3.75097 4.00049 1.53346 1.23814 9.30872 1.53346 1.19596 6.45869 4.68527 3.70879 4.89775 4.68527 0.730596 0.253186 1.53346 3.24342 5.56142 1.53346 4.21633 10.206 4.68527 1.7035 1.81651 5.92155 1.55523 3.33443 0.297179 4.06806 8.64267 2.76973 3.3917 7.12474 3.449 0.878871 8.64267 0.297179 3.3917 7.12474 5.92155 0.878871 1.81651 3.449 1.55523 3.33443 2.76973 4.06806
-0.0799015 -0.0942393 -0.0327317 5.54776 6.31297 2.4802 11.2236 3.08502 4.9495 5.49452 3.13371 2.43657 3.15811 4.55199 4.93415 2.30975 1.66674 2.42122 7.93339 1.59975 5.02826 8.78475 4.61897 2.51533 1.08577 4.65362 2.2194 4.38209 1.56511 4.73233 9.93611 1.51644 2.69899 6.78203 4.70229 0.186068 1.25567 4.66108 3.80074 4.21218 1.55765 1.28781 9.8174 1.61861 1.17017 6.90074 4.60012 3.6831 5.35203 4.65358 0.752465 0.115831 1.56515 3.26539 5.8359 1.61102 4.25322 10.8822 4.60771 1.74029 1.72118 6.04982 1.6046 3.74667 0.168908 4.11753 9.16798 2.73384 3.40968 7.55017 3.48489 0.896754 9.2282 0.215135 3.34855 7.48994 6.00359 0.835621 2.00374 3.59726 1.58309 3.46411 2.62147 4.09602
11.2232 6.09097 -0.0327317 5.57417 0.127759 2.4802 -0.0264242 3.08502 4.9495 5.52069 3.13371 2.43657 3.1733 4.55199 4.93415 2.32096 1.66674 2.42122 7.97101 1.59975 0.00239869 8.82636 4.61897 2.51533 1.09123 4.65362 2.2194 4.40303 1.56511 4.73233 9.98313 1.51644 2.69899 6.81424 4.70229 0.186068 1.26194 4.66108 3.80074 4.23232 1.55765 1.28781 9.86386 1.61861 1.17017 6.93351 4.60012 3.6831 5.37752 4.65358 0.752465 0.116744 1.56515 3.26539 5.86366 1.61102 4.25322 10.9337 4.60771 1.74029 1.72963 6.04982 1.6046 3.76463 0.168908 4.11753 9.21139 2.73384 3.40968 7.58598 3.48489 0.896754 9.27189 0.215135 3.34855 7.52548 6.00359 0.835621 2.01352 3.59726 1.58309 3.48074 2.62147 4.09602
10.97 6.09348 -0.0861092 5.82733 0.12525 2.3929 -0.127005 3.06123 4.94405 5.62127 3.1575 2.46504 3.20078 4.81468 4.85358 2.29348 1.40405 2.37457 8.01234 1.51694 0.140781 8.78503 4.70179 2.61979 1.20536 4.58253 2.22325 4.28891 1.6362 4.70226 9.94704 1.61829 2.7397 6.85032 4.60044 0.260691 1.26905 4.65385 3.78507 4.22522 1.56487 1.30606 9.8413 1.56057 1.16868 6.95607 4.65816 3.64769 5.37986 4.71184 0.749507 0.114406 1.50689 3.22852 5.76439 1.58433 4.20063 11.033 4.63439 1.72162 2.10296 5.84375 1.50747 3.3913 0.374981 3.98648 9.25631 2.9281 3.35495 7.54106 3.29063 0.875941 9.09707 0.394255 3.35227 7.7003 5.82447 0.87326 1.8685 3.22371 1.60042 3.62576 2.99502 4.07943
11.2229 6.17022 0.0944929 5.57451 0.048509 2.58607 0.0768276 3.0682 5.08486 5.41744 3.15053 2.59327 3.11494 4.55647 4.84985 2.37933 1.66226 2.35826 8.0867 1.66554 -0.0458227 8.71067 4.55319 2.44576 1.11685 4.70204 2.19472 4.37741 1.51669 4.6863 10.0278 1.48212 2.75497 6.76961 4.73661 0.263387 1.26007 4.61109 3.79594 4.23419 1.60763 1.30435 9.95035 1.6248 1.15788 6.84702 4.59393 3.64946 5.36434 4.69918 0.914797 0.129923 1.51955 3.40638 5.84026 1.67374 4.20763 10.9571 4.54499 1.71605 1.7875 5.99974 1.62248 3.70676 0.218989 4.11407 9.17053 2.77954 3.37494 7.62684 3.43919 0.883364 9.23117 0.284736 3.3838 7.56619 5.93399 0.892208 2.08682 3.42346 1.48973 3.40745 2.79526 3.98131
11.2757 6.17022 0.0944929 5.60092 0.048509 2.58607 0.0775543 3.0682 0.101695 5.44312 3.15053 2.59327 3.12986 4.55647 4.84985 2.39081 1.66226 2.35826 8.12485 1.66554 4.93734 8.75174 4.55319 2.44576 1.12244 4.70204 2.19472 4.39823 1.51669 4.6863 10.075 1.48212 2.75497 6.80161 4.73661 0.263387 1.26633 4.61109 3.79594 4.25435 1.60763 1.30435 9.99721 1.6248 1.15788 6.87938 4.59393 3.64946 5.38977 4.69918 0.914797 0.130897 1.51955 3.40638 5.86792 1.67374 4.20763 11.0087 4.54499 1.71605 1.79622 5.99974 1.62248 3.72445 0.218989 4.11407 9.21376 2.77954 3.37494 7.66284 3.43919 0.883364 9.27468 0.284736 3.3838 7.60192 5.93399 0.892208 2.09694 3.42346 1.48973 3.42374 2.79526 3.98131
11.453 6.31239 -0.0241568 5.42363 -0.0936556 2.52149 -0.142862 3.13324 -0.0404222 5.66354 3.08549 2.50522 3.18349 4.42998 4.87821 2.33718 1.78875 2.33257 7.9279 1.39103 5.07973 8.9487 4.8277 2.53409 1.17667 4.80291 2.26413 4.344 1.41582 4.80978 10.0115 1.72457 2.67159 6.86506 4.49416 0.125947 1.26238 4.66583 3.84759 4.25829 1.5529 1.30195 9.92307 1.47916 1.14114 6.95353 4.73956 3.68679 5.45688 4.57457 0.746938 0.0637945 1.64415 3.29258 5.83799 1.37687 4.36766 11.0386 4.84185 1.82201 1.85522 6.19619 1.78846 3.66546 0.0225351 4.33411 9.30417 3.05555 3.18953 7.57243 3.16317 0.643888 9.13553 0.574217 3.39901 7.74107 5.64451 0.853366 1.87959 3.61591 1.49465 3.64108 2.60282 4.04029
11.6491 6.38085 0.0356182 5.22754 -0.162117 2.50692 -0.277027 3.37787 0.0153714 5.79771 2.84086 2.48668 3.17317 4.45223 4.79684 2.3475 1.7665 2.32553 8.133 1.38409 5.05831 8.7436 4.83464 2.587 1.14189 4.73587 2.22162 4.37878 1.48286 4.69293 10.0486 1.79586 2.72457 6.82797 4.42286 0.253264 1.17158 4.68886 3.76116 4.3491 1.52987 1.28986 9.90408 1.64763 1.20125 6.97252 4.5711 3.67256 5.38351 4.57927 0.75484 0.137176 1.63945 3.22614 5.85284 1.37359 4.22675 11.0237 4.84515 1.75545 1.94573 5.94514 1.71786 3.57494 0.273589 4.18918 9.35524 3.02686 3.2515 7.52136 3.19187 0.7802 9.19031 0.586143 3.41339 7.6863 5.63258 0.942078 1.93589 3.62309 1.51537 3.58478 2.59564 3.98668
0.29486 0.282111 0.0356182 5.25222 5.93662 2.50692 11.1308 3.37787 0.0153714 5.82504 2.84086 2.48668 3.18829 4.45223 4.79684 2.35878 1.7665 2.32553 8.17119 1.38409 0.115693 8.78464 4.83464 2.587 1.14757 4.73587 2.22162 4.39951 1.48286 4.69293 10.0957 1.79586 2.72457 6.8601 4.42286 0.253264 1.17739 4.68886 3.76116 4.36969 1.52987 1.28986 9.95051 1.64763 1.20125 7.00532 4.5711 3.67256 5.40891 4.57927 0.75484 0.13818 1.63945 3.22614 5.88043 1.37359 4.22675 11.0754 4.84515 1.75545 1.95515 5.94514 1.71786 3.59193 0.273589 4.18918 9.39912 3.02686 3.2515 7.55671 3.19187 0.7802 9.23342 0.586143 3.41339 7.72242 5.63258 0.942078 1.94526 3.62309 1.51537 3.60182 2.59564 3.98668
0.23812 0.147561 0.0759309 5.30895 6.07117 2.5705 11.2039 3.14213 -0.0283998 5.75191 3.0766 2.46618 3.09624 4.53808 4.86743 2.45083 1.68065 2.37285 8.00251 1.67103 0.092711 8.95332 4.5477 2.58729 1.15036 4.63817 2.13788 4.39673 1.58056 4.63246 9.9965 1.42204 2.78996 6.95932 4.79669 0.295375 1.21359 4.62345 3.671 4.33348 1.59527 1.17643 9.95113 1.5451 1.20012 7.00469 4.67361 3.69469 5.44993 4.58468 0.724847 0.0971549 1.63406 3.21943 5.85993 1.57025 4.06423 11.0959 4.64848 1.56964 1.90161 5.97084 1.61412 3.64548 0.247877 4.10871 9.0915 2.43628 3.46842 7.86432 3.78245 0.973845 9.57143 0.0126933 3.40835 7.38441 6.20603 0.913766 2.00352 3.45382 1.49851 3.54356 2.7649 3.99308
0.0688854 0.241067 -0.0368096 5.4782 5.97765 2.48364 11.1168 3.26552 -0.191978 5.83906 2.95321 2.32846 3.07987 4.39931 4.98844 2.46722 1.81941 2.46799 8.15066 1.47343 -0.0104943 8.80515 4.7453 2.50996 1.23055 4.79441 2.29745 4.31654 1.42432 4.81787 10.0379 1.72918 2.67906 6.91793 4.48954 0.158617 1.17016 4.65048 3.85323 4.37694 1.56824 1.33279 10.0158 1.64798 1.11522 6.94 4.57074 3.63566 5.51208 4.50974 0.693892 0.0349919 1.70898 3.21434 5.72255 1.59003 4.2156 11.2333 4.62871 1.69517 1.9124 6.13879 1.73811 3.6347 0.0799433 4.25852 9.29044 2.91141 3.26337 7.66538 3.30732 0.742922 9.17893 0.562045 3.33986 7.77688 5.65669 0.819406 2.07959 3.60932 1.59667 3.4675 2.60941 4.11711
-0.0786464 -0.0373254 -0.0295832 5.22959 -0.0373254 2.47346 -0.0786464 3.10936 -0.0295832 5.22959 3.10936 2.47346 2.99023 4.68271 4.88833 2.16071 1.53602 2.38528 7.46895 1.53602 0.0585987 8.29846 4.68271 2.56165 1.07709 4.68271 2.18355 4.07385 1.53602 4.6866 9.38208 1.53602 2.76338 6.38533 4.68271 0.260332 1.1303 4.68271 3.73469 4.02064 1.53602 1.23164 9.32887 1.53602 1.21224 6.43853 4.68271 3.71529 4.88042 4.68271 0.773193 0.270526 1.53602 3.27624 5.57876 1.53602 4.17374 10.1886 4.68271 1.67069 1.7617 5.90147 1.56965 3.38924 0.317255 4.0727 8.69748 2.75478 3.37728 7.06993 3.46394 0.874231 8.69748 0.317255 3.37728 7.06993 5.90147 0.874231 1.7617 3.46394 1.56965 3.38924 2.75478 4.0727
0.0695686 0.241067 -0.0368096 5.50393 5.97765 2.48364 11.1686 3.26552 4.84891 5.86646 2.95321 2.32846 3.0945 4.39931 4.98844 2.47901 1.81941 2.46799 8.18876 1.47343 -0.0104943 8.84628 4.7453 2.50996 1.23661 4.79441 2.29745 4.33689 1.42432 4.81787 10.0847 1.72918 2.67906 6.95032 4.48954 0.158617 1.17594 4.65048 3.85323 4.39756 1.56824 1.33279 10.0625 1.64798 1.11522 6.97249 4.57074 3.63566 5.53796 4.50974 0.693892 0.0355181 1.70898 3.21434 5.74941 1.59003 4.2156 11.2856 4.62871 1.69517 1.92162 0.0900163 1.73811 3.65189 6.12872 4.25852 9.33382 2.91141 3.26337 7.70123 3.30732 0.742922 9.22179 0.562045 3.33986 7.81324 5.65669 0.819406 2.08958 3.60932 1.59667 3.48392 2.60941 4.11711
-0.0183982 0.214859 0.0803061 5.59188 6.00386 2.56722 11.0656 3.31671 4.84769 5.96946 2.90201 2.36077 3.13774 4.5966 4.78667 2.43574 1.62214 2.29973 8.26287 1.68809 0.0685534 8.77218 4.53062 2.55549 1.06435 4.66473 2.27597 4.50914 1.55401 4.7629 10.069 1.58125 2.73493 6.96607 4.63747 0.248018 1.2846 4.72325 3.82254 4.2889 1.49549 1.33565 9.98499 1.70449 1.21846 7.05006 4.51423 3.70538 5.45885 4.49063 0.632359 0.114656 1.72808 3.11925 5.97973 1.5372 4.32506 11.0553 4.68154 1.83812 1.8212 -0.203667 1.63462 3.75232 6.42239 4.12155 9.23846 2.66352 3.40355 7.79659 3.55521 0.916629 9.51077 0.237902 3.30797 7.52428 5.98081 0.821055 1.99251 3.52598 1.66659 3.58099 2.69276 4.1535
-0.298725 -0.165287 -0.0988745 5.87221 6.38406 2.43606 11.6813 2.80541 4.93346 5.35371 3.41334 2.39853 3.22564 4.75327 4.92592 2.34786 1.46544 2.39093 8.12508 1.89479 0.0846134 8.90995 4.32393 2.61959 1.22462 4.49424 2.25097 4.34891 1.72449 4.78591 10.1396 1.33665 2.68054 6.8954 4.88208 0.145609 1.17406 4.7317 3.76651 4.39943 1.48703 1.23155 10.126 1.60073 1.19266 6.90908 4.61799 3.72763 5.4983 4.90298 0.783386 0.0751863 1.31577 3.31832 5.78778 1.88931 4.16678 11.2473 4.32943 1.63184 1.9915 -0.48513 1.40011 3.58203 6.70386 3.93502 9.16848 2.46598 3.47151 7.86657 3.75274 0.936607 9.44443 -0.0285596 3.15244 7.5906 6.24728 0.617509 1.95958 3.19447 1.82358 3.61397 3.02427 4.35852
11.2146 5.97677 4.97102 5.89963 0.241999 2.43606 0.221075 2.80541 4.93346 5.37875 3.41334 2.39853 3.24087 4.75327 4.92592 2.35904 1.46544 2.39093 8.16288 1.89479 0.0846134 8.95137 4.32393 2.61959 1.23063 4.49424 2.25097 4.36931 1.72449 4.78591 10.1867 1.33665 2.68054 6.92754 4.88208 0.145609 1.17984 4.7317 3.76651 4.42006 1.48703 1.23155 10.173 1.60073 1.19266 6.94128 4.61799 3.72763 5.524 4.90298 0.783386 0.0758954 1.31577 3.31832 5.81481 1.88931 4.16678 11.2995 4.32943 1.63184 2.00104 5.65693 1.40011 3.5989 0.5618 3.93502 9.21109 2.46598 3.47151 7.90318 3.75274 0.936607 9.48831 6.1135 3.15244 7.62594 0.105218 0.617509 1.96897 3.19447 1.82358 3.63098 3.02427 4.35852
11.5265 6.16265 5.14904 5.58783 0.0560514 2.65853 0.100478 3.15024 4.9654 5.49929 3.06855 2.47491 3.09078 4.60318 4.84211 2.50913 1.61552 2.35164 8.19989 1.59645 -0.0514699 8.91443 4.6223 2.43901 1.19406 4.66221 2.18886 4.40584 1.55652 4.67931 10.1491 1.5484 2.84283 6.96517 4.67032 0.352386 1.35528 4.62978 3.68941 4.24467 1.58894 1.19891 10.0982 1.47249 1.25 7.01602 4.74623 3.74051 5.46861 4.57395 0.725143 0.131279 1.64479 3.21561 5.91012 1.59461 4.29144 11.2041 4.62411 1.80101 1.99596 5.91187 1.50991 3.60391 0.306856 4.00038 9.32551 2.8869 3.40721 7.78876 3.3318 0.916751 9.3294 6.46849 3.51519 7.78487 -0.249777 1.02474 1.93028 3.41192 1.51274 3.66961 2.80684 4.0032
0.220077 0.282318 5.13821 5.37981 5.93642 2.59774 11.2505 3.3779 4.97698 5.86373 2.84088 2.43646 3.20614 4.38404 4.94185 2.39379 1.83467 2.40114 7.99109 1.31127 -0.131892 9.12336 4.9075 2.40853 1.2416 4.82644 2.41075 4.35821 1.39231 4.95141 10.1475 1.76999 2.62377 6.96674 4.44869 0.0831983 1.22389 4.61266 3.97763 4.37581 1.60601 1.43712 10.2369 1.61868 1.07663 6.87734 4.59993 3.61725 5.64208 4.48002 0.850321 -0.0421645 1.73873 3.39086 5.76706 1.34598 4.37442 11.3471 4.87283 1.83367 1.98723 6.07498 1.86094 3.6126 0.143739 4.40159 9.39131 3.08506 2.97973 7.72299 3.13366 0.439229 9.16937 0.62193 3.24509 7.94495 5.59676 0.704469 2.04292 3.66436 1.60663 3.55686 2.55437 4.14727
0.221448 0.282318 0.0569795 5.40484 5.93642 2.59774 11.3025 3.3779 4.97698 5.89099 2.84088 2.43646 3.22121 4.38404 4.94185 2.40513 1.83467 2.40114 8.02811 1.31127 4.94933 9.16557 4.9075 2.40853 1.24765 4.82644 2.41075 4.37856 1.39231 4.95141 10.1944 1.76999 2.62377 6.99906 4.44869 0.0831983 1.22986 4.61266 3.97763 4.39624 1.60601 1.43712 10.2842 1.61868 1.07663 6.90925 4.59993 3.61725 5.66832 4.48002 0.850321 -0.0419971 1.73873 3.39086 5.79387 1.34598 4.37442 11.3995 4.87283 1.83367 1.99671 6.07498 1.86094 3.62953 0.143739 4.40159 9.43475 3.08506 2.97973 7.75878 3.13366 0.439229 9.21179 0.62193 3.24509 7.98175 5.59676 0.704469 2.05266 3.66436 1.60663 3.57354 2.55437 4.14727
-0.051398 -0.00818686 -0.0246998 5.67742 6.22683 2.43013 11.3574 3.26889 4.79619 5.8363 2.94946 2.34197 3.12723 4.62069 5.0048 2.49939 1.59776 2.55056 8.38269 1.44392 4.95521 8.81022 4.77472 2.5008 1.15237 4.9075 2.25562 4.47424 1.31153 4.71035 10.1409 1.62965 2.62555 7.05252 4.58911 0.170793 1.37436 4.64786 3.80177 4.25233 1.57093 1.34752 10.1794 1.60794 1.07893 7.01405 4.61107 3.53304 5.62232 4.65854 0.713911 0.00386679 1.56014 3.16891 5.94579 1.41965 4.32028 11.248 4.79898 1.86571 1.81162 6.28687 1.79541 3.81495 -0.0677652 4.24989 9.49654 2.95973 3.30278 7.69677 3.25909 0.847842 9.14345 0.523133 3.23077 8.04985 5.69559 0.776166 2.07008 3.74255 1.55903 3.55678 2.47685 4.0137
11.0281 5.76278 -0.122479 6.16556 0.455712 2.3538 -0.0401226 2.62395 0.0327591 5.66583 3.59451 2.50888 3.10407 4.8224 4.98431 2.52267 1.39563 2.50793 8.04906 1.6262 -0.0885545 9.14397 4.5926 2.38753 1.19277 4.46419 2.30949 4.434 1.7545 4.78519 10.1124 1.48613 2.68237 7.08084 4.73291 0.206912 1.21427 4.47916 3.87402 4.4124 1.74013 1.39837 9.9881 1.53237 1.11718 7.2048 4.6869 3.59335 5.61727 4.88234 0.72438 0.00887248 1.33696 3.19982 5.93416 1.51641 4.27634 11.2598 4.70278 1.80027 2.06945 5.60789 1.68883 3.5578 0.610415 4.16495 9.46244 2.80836 3.33967 7.73062 3.41071 0.864077 9.17535 0.35039 3.25798 8.0178 5.86879 0.782588 1.75235 3.13698 1.7226 3.87415 3.0816 4.19821