-32410.7210445703
-32410.6843177925
-32410.8354840273
-32410.6588351609
-32410.5288044052
-32410.4914818345
-32411.390728493
-32411.350200831
-32411.2935475752
-32410.7098835548
-32410.5788851628
-32411.9112726116
-32410.9814625505
-32410.6674981726
-32410.4396728828
-32410.8168087281
-32411.1286049041
-32411.101500883
-32410.0058746658
-32409.8000825583
-32409.7224362748
-32410.656449268
-32411.8983375509
-32410.7123718985
-32410.6799589392
-32410.6188966251
-32409.9492218182
-32409.8877030333
-32410.6574388094
-32410.5235784616
-32410.4976906527
-32410.2973853098
-32410.6304422733
-32411.4715986435
-32410.6389763031
-32410.02016771
-32410.1698117408
-32410.1160235701
-32410.1677737452
-32410.3643616069
-32410.3455890271
-32410.0794655028
-32410.3260443245
-32410.2593333382
-32411.4525773517
-32409.6387187265
-32410.3819108997
-32410.3346429814
-32410.2499210614
-32410.1319939231
-32410.0865203226
-32409.5735185154
-32410.4821891516
-32410.4467614446
-32410.0461741604
-32410.6154315292
-32409.9742663467
-32409.9439516561
-32410.1095831831
-32410.1750406776
-32410.1532529419
-32410.1367661171
-32410.0239573014
-32410.0276426733
-32409.878119461
-32410.0498461988
-32410.6437484971
-32410.0171796294
-32409.9282638932
-32409.671670743
-32409.6873930644
-32409.9052434824
-32410.1967456908
-32410.1817705936
-32409.8334305003
-32409.5314096007
-32409.5069973284
-32410.6709115668
-32409.774938164
-32409.9426642862
-32409.9580495947
-32410.3003124368
-32409.903902234
-32409.929914807
-32409.7969736592
-32409.6126880579
-32409.5913201936
-32409.4763814079
-32411.4458296123
-32410.0897967076
-32410.0856065648
-32409.9390726575
-32409.69782672
-32409.7047626261
-32409.9927070839
-32409.7854462427
-32409.8005308656
-32409.5692323165
-32409.7054050865
-32410.7488828902
-32409.7015560382
-32409.6386728753
-32409.5257220163
-32409.5513332216
-32409.6865888324
-32410.6644570299
-32409.5773598084
-32409.9173639708
-32410.3788377836
-32410.3743396081
-32410.3443220657
-32410.0201580499
-32410.7073669112
-32410.2896968732
-32410.2220830137
-32410.1265818537