1.07986276949303e-05 -8.74174622922928e-06 -2.57110183212626e-06 1.51695008095449e-05 -1.13128480613555e-05 -7.71330549637878e-07 1.90261535577343e-05 2.15972553898606e-05 3.34243238176414e-06 2.59681285044752e-05 2.44254674051995e-05 -5.39931384746514e-06 0.193493667690509 -2.05688146570101e-05 -0.0453488370048597 -0.193335030707467 9.51307677886716e-06 -0.0453508938863254 -0.193758234069035 1.38839498934818e-05 0.0454686503502368 0.193333230936184 -2.87963405198141e-05 0.045346780123394 -2.1811929537334 -0.000248368436983397 -1.25497640151622 2.18159301717847 -2.13401452066479e-05 -1.25414027920041 2.18149068732556 -3.41956543672792e-05 1.25484476110241 -2.18158247566096 -0.000269708582190045 1.25464550071042 0.264190997658302 -6.9419749467409e-06 3.69949466292104 -0.264171200174194 -8.48463604601665e-06 3.69905397606701 -0.264142918054041 -7.71330549637878e-06 -3.69952088815972 0.264090467576665 -9.25596659565453e-06 -3.69940287458563 0.479295033358015 -4.37087311461464e-06 0.65086542994635 -0.479400705643315 -2.31399164891363e-06 0.650885227430457 -0.479335399656779 -6.68486476352827e-06 -0.650963646036337 0.479176505563554 -1.13128480613555e-05 -0.650979586867696 0.602232010350949 1.90272694159295 -1.0055592120955 -0.60223689544443 -1.90280407464791 -1.0056664270419 -0.602191644052185 1.90292903019695 1.0055545841122 0.602274690641362 -1.90258424544126 1.00560189238591 -0.602154877295985 -1.90286192443913 1.00553272974662 0.602434098954954 1.90284418383649 1.00573790367283 0.60209445640293 -1.90247394517266 -1.00543862741957 -0.602267748666415 1.90285446824382 -1.00567876833069
2.59681285044752e-05 -2.82821201533888e-05 3.13674423519404e-05 -1.10557378781429e-05 -2.85392303366015e-05 2.05688146570101e-06 3.44527645504919e-05 4.06234089475949e-05 3.70238663826181e-05 -1.54266109927576e-06 4.08805191308075e-05 -2.57110183212626e-06 0.198945174905166 -2.23685859394984e-05 -0.0474903077208377 -0.198535598383309 1.36268397102692e-05 -0.0476944532063085 -0.198787566362857 1.18270684277808e-05 0.0477633587354095 0.198659525491617 -2.41683572219868e-05 0.047264564979977 -2.29800608038257 -0.000252225089731586 -1.31994660215295 2.29861234619459 -1.87690433745217e-05 -1.31909633877706 2.29882729030775 -2.545390813805e-05 1.31979490714485 -2.29877201161836 -0.000258909954495114 1.31987563974238 0.267956890511817 -6.42775458031565e-06 3.68935423729513 -0.267987743733802 -6.9419749467409e-06 3.68877985314583 -0.268134553648417 -7.19908512995352e-06 -3.68912926588482 0.267751716585613 -9.51307677886716e-06 -3.6889870839535 0.698061860727776 -7.71330549637878e-06 0.605266424733224 -0.697928934763055 -3.34243238176414e-06 0.605253826334247 -0.697580807574985 -4.11376293140201e-06 -0.605245341698201 0.696985340390664 -7.19908512995352e-06 -0.605543589510728 0.555974288848432 1.86777821149904 -0.982330592593151 -0.555913096624828 -1.86778978145728 -0.982431636895154 -0.555847019307742 1.86792399297292 0.982242146690126 0.555724634860533 -1.86727530398067 0.982258858852035 -0.555816166085757 -1.86787334226683 0.982230833842065 0.55587401587698 1.86752032998527 0.982382785960343 0.555823108060703 -1.86753549948608 -0.982198952179346 -0.555934436770035 1.867855344554 -0.982441149971933
2.31399164891363e-06 -8.22752586280403e-06 -5.37360282914388e-05 -8.22752586280403e-06 -1.36268397102692e-05 -3.05961118023025e-05 7.9704156795914e-06 2.85392303366015e-05 -4.52513922454222e-05 7.71330549637878e-07 3.26529932680035e-05 -4.13947394972328e-05 -0.436540952322137 -7.17337411163226e-05 -0.0647146331146179 0.436335007065384 6.35062152535186e-05 -0.0648467877487892 0.43656357801826 6.42775458031565e-05 0.0653275837913968 -0.436338092387582 -6.89055291009837e-05 0.0654481684673235 2.89089367823484 -4.42229515125716e-05 -2.80627306051553 -2.89098880900263 3.49669849169171e-05 -2.80623860775098 -2.89079674769577 8.51034706433792e-05 2.80620415498643 2.8904072257682 -0.000151437897912237 2.80659959044821 -0.282899620139768 -5.39931384746514e-06 3.11808369231683 0.283029203672107 1.54266109927576e-06 3.11792994042727 0.282966468787404 -3.85665274818939e-06 -3.11813717123494 -0.283003235543603 -6.17064439710302e-06 -3.11835160112774 -0.835789101010016 -1.41410600766944e-05 0.193394423159789 0.83618479358198 -4.37087311461464e-06 0.193580828042618 0.836243157593569 -7.71330549637878e-07 -0.193644334257872 -0.836352429421435 -1.0284407328505e-06 -0.193779059993875 -0.833916053325312 0.359582732282934 0.0735682222735447 0.833982901972947 -0.359659865337898 0.0736196443101872 0.833944849665832 0.359637496751958 -0.0736942062633189 -0.833991386608993 -0.359665264651745 -0.0737597693600381 0.833900369604136 -0.35970408828941 -0.0736607819395012 -0.833903712036517 0.359808217913611 -0.0736990913567999 -0.83392788039374 -0.359578361409819 0.0735905908594842 0.833993957710825 0.359661922219363 0.0736237580731186
5.11649264593125e-05 -2.05688146570101e-05 1.56837211759702e-05 1.92832637409469e-05 -1.69692720920333e-05 1.0284407328505e-05 5.93924523221166e-05 3.44527645504919e-05 1.90261535577343e-05 2.85392303366015e-05 3.44527645504919e-05 6.17064439710302e-06 0.359758338538068 0.000147324134980835 0.336318117354939 -0.359666807312845 -0.000149381016446536 0.336267209538663 -0.359974825312333 -0.000153237669194725 -0.336313746481825 0.359484516192947 0.00014295326186622 -0.336424818080973 -2.56918276171876 1.92832637409469e-05 -2.27116994789957 2.5690688619076 -0.000120070455560296 -2.27141548812454 2.56957845429072 -0.000102072742735412 2.27076525647119 -2.56939513473009 2.77678997869636e-05 2.27091335193672 0.228072416230775 0 0.449209028159206 -0.228095813257447 -8.48463604601665e-06 0.449133951985708 -0.228216397933374 -8.9988564124419e-06 -0.448732088769347 0.227999654048926 -1.28555091606313e-06 -0.448799451637349 2.87170580237186 -5.39931384746514e-06 -0.581209910440935 -2.8718492698541 -8.48463604601665e-06 -0.581256961604463 -2.87149574335218 -6.17064439710302e-06 0.581298613454143 2.87144714952755 1.79977128248838e-06 0.581148461107147 -0.333183172891028 -0.553464122129728 0.377329248458819 0.333394517461629 0.553718404100925 0.377505626044503 0.333267247920938 -0.553326311071526 -0.377377585173263 -0.333165689398569 0.553592934331517 -0.377295567024818 0.333302986236405 0.553398301922825 -0.377413580598913 -0.333170574492051 -0.553592934331517 -0.377313564737643 -0.333196542620555 0.553463607909361 0.37732770579772 0.333354408273048 -0.553597048094449 0.37745574666896
5.14220366425252e-05 -3.75380867490434e-05 4.93651551768242e-05 6.01637828717544e-05 -2.77678997869636e-05 8.48463604601665e-06 6.04208930549671e-05 5.42502486578641e-05 5.14220366425252e-05 6.81341985513459e-05 4.73082737111232e-05 3.59954256497676e-06 0.364039480198742 0.000125469769407761 0.331677792768318 -0.364182433460608 -0.000164293407072868 0.331676764327585 -0.364399691565423 -0.000151952118278662 -0.331633826926989 0.363829164068874 0.000144753033148708 -0.332218752593797 -2.59985035015199 6.68486476352827e-06 -2.27993457693511 2.59925616851859 -0.000120327565743509 -2.28025904998632 2.59974622052779 -8.92172335747812e-05 2.27963864311423 -2.59950890782869 4.21660700468706e-05 2.27980833583515 0.244141031351015 -1.28555091606313e-06 0.449292588968751 -0.244196567150588 -3.34243238176414e-06 0.449284875663254 -0.244308667190469 -6.42775458031565e-06 -0.448916693880894 0.244052842558173 0 -0.449000511800621 2.96171802063314 -1.2341288794206e-05 -0.594897685264626 -2.96184323329236 -9.51307677886716e-06 -0.594954506615116 -2.96149279211265 -2.57110183212626e-07 0.595087175469653 2.96219778823501 8.9988564124419e-06 0.5948107820227 -0.363673098187664 -0.566178992020142 0.386611697403344 0.363897812487791 0.566377995301948 0.386871378688389 0.363765143633254 -0.565965333457892 -0.386653092142842 -0.363682868374626 0.56629649137387 -0.386569788443481 0.36378802643956 0.566029868113878 -0.386675717838964 -0.363698037875435 -0.566303433348817 -0.386598841894184 -0.36370240874855 0.566173078485928 0.386617610937558 0.363866959265806 -0.566234784929899 0.386821756423029
7.07053003834721e-05 1.82548230080964e-05 2.21114757562858e-05 2.39112470387742e-05 -1.90261535577343e-05 1.41410600766944e-05 6.60773170856448e-05 -2.77678997869636e-05 1.87690433745217e-05 2.9567671069452e-05 3.52240951001297e-05 1.15699582445682e-05 0.30066747646086 0.000113385590796768 -0.146510895471333 -0.301089394271512 -0.00011749935372817 -0.146717354948453 -0.300754379702786 -0.000112871370430343 0.146845652929876 0.300417051142411 0.000113385590796768 0.146725068253949 -2.65377612575864 -2.80250099701762e-05 -0.443048411059249 2.65447495123662 4.52513922454222e-05 -0.442490481961677 2.65465569969542 7.19908512995352e-05 0.441946693924183 -2.65445463953214 -7.45619531316615e-06 0.442310761943612 0.903100289864898 -7.71330549637878e-07 -1.23877151799887 -0.903028041903415 2.82821201533888e-06 -1.23917672364762 -0.903125229552669 6.68486476352827e-06 1.23948062788417 0.903127800654502 -5.39931384746514e-06 1.23928213882273 2.16806773599057 -1.10557378781429e-05 -0.540016488217158 -2.16808933324596 5.14220366425252e-06 -0.539986149215539 -2.16811710114575 6.42775458031565e-06 0.540076137779663 2.16732314489999 5.14220366425252e-06 0.539995662292317 -0.0706669909661734 -1.51839401174341 0.599520783468972 0.0707726632514738 1.51826134288888 0.59946139101665 0.0707536370979161 -1.51826957041474 -0.599540066732713 -0.0706384517358368 1.51844234845786 -0.599483245382223 0.0707235552064802 1.51821583438645 -0.599505356857979 -0.0706497645838982 -1.5184600890605 -0.599484530933139 -0.0706813891364333 1.51838064201389 0.599538009851247 0.070797088718879 -1.51827059885547 0.59948221694149
0.000202859934554762 0.000241169351853443 1.74834924584586e-05 -0.000234741597273127 -0.000238084029654892 -1.31126193438439e-05 0.000201831493821911 -0.000246568665700908 1.49123906263323e-05 -0.000230884944524938 0.00025068242863231 -1.90261535577343e-05 0.108681759994893 3.90807478483191e-05 0.200357481141553 -0.10840459521739 -5.81069014060534e-05 0.200800739097412 -0.108149799025826 -6.09351134213923e-05 -0.200028122996858 0.108060067571885 7.86757160630635e-05 -0.200084687237165 -0.335854033474241 -2.39112470387742e-05 -1.33324768326109 0.335261394501936 -1.0284407328505e-05 -1.33346879801865 0.353715735012205 4.91080449936115e-05 1.33288155836019 -0.353593350564996 4.11376293140201e-06 1.3333302156299 0.153683498252416 -3.08532219855151e-06 0.406143072471092 -0.153699439083775 -7.71330549637878e-07 0.40624617365456 -0.154486196244406 2.05688146570101e-06 -0.40624617365456 0.154522448780238 -1.0284407328505e-06 -0.406489914108245 -0.423908871910718 -1.00272971452924e-05 -0.960125271619993 0.423794200769005 -1.54266109927576e-06 -0.96020908953972 0.436149373513104 2.57110183212626e-06 0.955862641892511 -0.435409667516002 6.17064439710302e-06 0.955988368772102 0.380641341838964 0.716907265826711 0.105743761931322 -0.380698934520004 -0.716862528654832 0.105860747064684 -0.383570598156306 0.722669619252873 -0.103696650652583 0.383508377491968 -0.722627453182826 -0.10377481214828 -0.383599137386642 -0.722728754595012 -0.103671453854629 0.383495779092991 0.722620768318062 -0.103784068114876 0.380626172338154 -0.716900580961948 0.10576201675433 -0.380705105164401 0.716902123623047 0.105848919996256
0.000197460620707297 0.000245026004601632 2.03117044737974e-05 -0.000241940682403081 -0.000255310411930137 -6.42775458031565e-06 0.000197203510524084 -0.000249911098082672 1.79977128248838e-05 -0.000237826919471679 0.000268423031273981 -1.31126193438439e-05 0.10129061355808 3.75380867490434e-05 0.192794070881987 -0.101096238259571 -6.35062152535186e-05 0.193112887509171 -0.100703631009805 -5.47644690242893e-05 -0.192580155209555 0.100972568261446 7.12195207498974e-05 -0.192437459057872 -0.452223130837008 -2.57110183212626e-05 -1.40547636148009 0.451406034674758 -1.25983989774187e-05 -1.40563422713259 0.469554928287371 4.67940533446979e-05 1.40481815941107 -0.469469824816728 2.57110183212626e-06 1.40527273021499 0.16497783438058 -3.08532219855151e-06 0.406043313720005 -0.165051367892979 0 0.406157213531168 -0.165925028295535 2.57110183212626e-06 -0.406106562825075 0.16589263241245 -1.79977128248838e-06 -0.406398639993205 -0.191371994458638 -9.77018696207978e-06 -1.02257450691032 0.191294090073125 -1.28555091606313e-06 -1.0226362133543 0.203085677295622 2.31399164891363e-06 1.01861680986013 -0.202118171676193 6.17064439710302e-06 1.01873302366294 0.329914016911479 0.685583532205917 0.117640250108571 -0.330026374061543 -0.685523111312862 0.117756206801199 -0.332989054702702 0.691325831037788 -0.115565113819861 0.33291603541067 -0.691375453303148 -0.115705753090079 -0.333015537051573 -0.69137802440498 -0.115542745233922 0.332907550774624 0.691368511328201 -0.115712695065025 0.329896276308838 -0.68557813289207 0.11766261869451 -0.33003254470594 0.685571190917123 0.117743608402222
-0.00261763877528774 -0.0041399881700897 0.000832779883425695 0.00272151128930564 0.00405462758926311 0.000772101880187515 -0.00261018257997458 0.00415438634034961 0.000836636536173884 0.00272793904388596 -0.00404048652918642 0.000763874354324711 -0.0444057568528358 -0.00012238444720921 -0.110413654189013 0.0439560711423969 0.000104900954750751 -0.110769751792763 0.0397098964666404 0.000104643844567539 0.103015565777253 -0.0399248405798062 -9.59020983383094e-05 0.102804221206652 0.482191379571905 -4.03662987643823e-05 0.427878910249704 -0.481103546386733 -1.38839498934818e-05 0.427895365301429 -0.693093720657558 7.45619531316615e-06 -0.362613290012461 0.693421021920788 -0.000172520932935672 -0.362363893134745 -0.580369674362196 -1.07986276949303e-05 1.23076433556308 0.580393071388868 8.22752586280403e-06 1.23060518435968 0.595692927061302 -5.14220366425252e-07 -1.20066161820237 -0.596055966639998 -4.11376293140201e-06 -1.20061585258975 0.436128547588264 -1.77406026416712e-05 0.420442769530828 -0.436169685217578 -5.91353421389039e-06 0.420318328202153 -0.524566480197728 0 -0.411164177239051 0.5234886743097 5.91353421389039e-06 -0.411803353154518 -0.0669720605232248 0.494936074243572 -0.674664062724877 0.0671522947616568 -0.494984410958016 -0.674636809045456 0.123736846772908 0.395365270701002 0.625441860809919 -0.123688510058464 -0.394748720481658 0.625534677586059 0.123725019704481 -0.395350615420558 0.625465257836591 -0.123608034571119 0.394889873972241 0.625596126919847 -0.0670152550340045 -0.494987753390398 -0.674628581519594 0.0671556371940386 0.495105252744126 -0.674633209502892
0.0515945575754608 0.0500236143560317 -0.0461373939367729 -0.0516434085102712 -0.050037241195742 -0.0461407363691546 0.0515865871597813 -0.0500356985346427 -0.0461412505895211 -0.0516477793833859 0.0500115301774207 -0.0461301948516429 0.0747115912582912 2.05688146570101e-05 -0.0828046484952751 -0.0743760624691988 -6.58202069024322e-05 -0.0825418818880318 -0.0770068138638304 -6.68486476352827e-06 0.12781538560921 0.0770677489772517 5.60500199403524e-05 0.127960652862725 0.16130681518467 0.000160179644141466 -0.00871089300724376 -0.161868086714623 3.05961118023025e-05 -0.00886875865973632 1.75573113631607 -0.000132411744354502 0.222094604471082 -1.75569102712749 1.25983989774187e-05 0.222087405385952 -0.106689927405545 1.00272971452924e-05 -1.33407737782231 0.106669358590888 2.13401452066479e-05 -1.33388660206637 -0.0754253291268895 -1.56837211759702e-05 1.32483066719326 0.075407845634431 7.19908512995352e-06 1.32507029388401 2.80292111505699 -4.37087311461464e-06 -1.66285856726656 -2.80287560655456 -1.64550517256081e-05 -1.66283979822318 -1.63636901931053 1.95403739241596e-05 1.34882187549901 1.63709946934104 2.13401452066479e-05 1.34886584134034 -0.702523493737064 -0.832381876862082 0.259694911884462 0.70234865881248 0.832316056655179 0.259677428392004 0.407983724272711 -0.519197505351882 -0.181187602991403 -0.408130791297508 0.519400108176253 -0.181334927126384 0.408036946080636 0.519288779466922 -0.181237225256763 -0.408138247492822 -0.519418877219628 -0.181349582406827 -0.702448674673749 0.832246636905712 0.259644518288553 0.702369227627137 -0.832333540147638 0.259683599036401
0.0517053720644255 0.0502737825642976 -0.0463379398796787 -0.0517153993615708 -0.0502712114624655 -0.0463312550149152 0.0516997156403948 -0.050277896327229 -0.0463392254305948 -0.0517197702346854 0.0502467859950603 -0.0463204563872203 0.0883895958950197 9.51307677886716e-06 -0.0745881783703492 -0.0880435255884155 -5.93924523221166e-05 -0.0742737326162801 -0.0848715572581214 -1.28555091606313e-05 0.122200613428213 0.084602620006481 5.39931384746514e-05 0.122038634012789 0.093454152283942 0.000155037440477213 -0.0515804165153841 -0.0937765684536907 2.80250099701762e-05 -0.0518879202945065 1.76980020554147 -0.000128812201789526 0.245695262408535 -1.7698778528168 1.54266109927576e-05 0.245559765341982 -0.10263272871445 8.22752586280403e-06 -1.3358542662985 0.102645070003244 2.18543655730732e-05 -1.33567608894153 -0.0806294963452963 -1.56837211759702e-05 1.32508597760519 0.0806284679045634 7.45619531316615e-06 1.32534514466986 2.89678818629517 -5.65642403067777e-06 -1.68370608936217 -2.89679949914323 -1.77406026416712e-05 -1.68369091986136 -1.79194124896882 2.03117044737974e-05 1.39190942844251 1.79212533986 2.13401452066479e-05 1.39188860251767 -0.741199550157007 -0.851932792303753 0.265906951021063 0.741212662776351 0.851996041408824 0.265911064783994 0.44657390589146 -0.541650423431474 -0.189135392974872 -0.446568506577613 0.541781806735096 -0.189198899190125 0.446624813707736 0.54173655534285 -0.1891824441384 -0.446577248323842 -0.54180134710902 -0.189213811580752 -0.74112935907699 0.851801923220498 0.265860156967718 0.741231946040092 -0.852004268934686 0.265915692767292
-2.05688146570101e-06 -1.31126193438439e-05 -4.62798329782727e-06 1.18270684277808e-05 -1.79977128248838e-05 -8.22752586280403e-06 3.08532219855151e-06 2.93105608862393e-05 1.0284407328505e-06 1.95403739241596e-05 3.44527645504919e-05 -1.2341288794206e-05 0.0267620847502358 -0.000107986276949303 0.0240894243957406 -0.0267209471209218 0.000120584675926722 0.0239832378900737 -0.0269024669102699 0.000119813345377084 -0.0239534131088211 0.0265258004918634 -0.000115699582445682 -0.0239261594294005 -0.144793399447473 -0.000201060163272273 -0.0587195949726491 0.143999700311895 0.000222657418662134 -0.0579696045682179 0.144445529369586 0.00020465970583725 0.058244198243889 -0.144505950262641 -0.000231656275074576 0.0583002482638293 0.00456524841312338 -2.31399164891363e-06 0.00806631777792971 -0.00463543949314043 -4.88509348103989e-06 0.00785805852952748 -0.00462386953489586 -4.11376293140201e-06 -0.00826814927175162 0.00459147365181107 -8.48463604601665e-06 -0.00813522330703069 0.24143083290977 -1.0284407328505e-06 -0.0780139144514742 -0.241360127609387 5.39931384746514e-06 -0.0780064582561611 -0.241054423601547 -1.54266109927576e-06 0.0779707199406945 0.242299093998479 -1.31126193438439e-05 0.0780596800640861 -0.0512495157095895 -0.0314414900847056 -0.00483135745274845 0.0511538707214344 0.0313689850130396 -0.00492108890668966 0.0511777819684732 -0.0313430168845352 0.00493882950933133 -0.0511253314910978 0.031514509376738 0.00484549851282515 0.0510780232173867 0.0311625255359199 0.00502753252253969 -0.0509993475013236 -0.031323476510611 0.00494654281482771 -0.0513523597828746 0.0316224956536873 -0.00474445421082258 0.0512613427780173 -0.0315744160494265 -0.00481644506212212
-0.0604188361735014 0.0244972011463158 0.0406884578239477 0.0604175506225853 -0.0245367961145305 0.040653747949214 -0.0604399192085248 -0.0245193126220721 0.0406786876369856 0.0604298919113795 0.0245468234116758 0.0406442348724351 0.224786290979135 -5.29646977418009e-05 0.131967972178277 -0.224699387737209 5.09078162760999e-05 0.131693378502606 -0.324965417215186 6.1192223604605e-05 -0.0734370960801063 0.324999612869553 -7.40477327652362e-05 -0.0741004403527948 0.301039000675602 -0.000165578957988931 -0.0595660016957851 -0.302327894024047 9.87303103536483e-05 -0.0589006005416308 -1.01435418013265 7.68759447805751e-05 1.73904185721356 1.01417368878403 -0.000248882657349822 1.73886470829733 0.230205402310707 2.21114757562858e-05 -1.85591591897616 -0.230288191789702 -3.75380867490434e-05 -1.85611569358851 -0.491501082195851 -2.80250099701762e-05 -0.664559375414438 0.491471257414599 2.21114757562858e-05 -0.664173967249802 -1.91650239098911 -3.05961118023025e-05 0.43165611595128 1.91670756491532 1.61979415423954e-05 0.431716279734152 0.123103327281472 -3.59954256497676e-06 0.149994224233498 -0.121562465953479 -2.05688146570101e-06 0.150297100029322 -0.351428225712162 -1.55039934445991 0.863739034806694 0.351309955027885 1.5503504935251 0.863798684369199 -0.215155457736356 -0.953813730842489 -0.804047306231318 0.215109692123744 0.954030988947304 -0.804160434711931 -0.215237218774618 0.953764365687312 -0.804002826169622 0.215293783014924 -0.953762051695663 -0.804048077561867 -0.351522070929035 1.55054538304397 0.863826966489353 0.351355463530313 -1.55040911464687 0.863766545596298
-0.0855140756059697 0.0413834266491714 -0.0329496984194309 0.0854922212403967 -0.041391397064851 -0.0329530408518126 -0.0854685671035411 -0.041384197979721 -0.0329427564444841 0.0854369425510059 0.0413854835306371 -0.0329327291473388 0.230250653702952 -5.29646977418009e-05 -0.0498570069573099 -0.230467397587401 6.17064439710302e-06 -0.0498179262094616 -0.20004509226895 -0.000323187500298271 -0.0951531363746111 0.200588623196261 0.000294391159778457 -0.0947834119311513 -3.22086400227644 -4.96222653600368e-05 1.06041186991263 3.2203454110369 0.000323444610481483 1.06082376042613 3.41255532758263 -0.00198669038568396 0.052990151649939 -3.41265740032537 0.00167507284363026 0.0528500266000881 0.706523356857303 -6.76199781849206e-05 -1.15101544159529 -0.706542640121044 -7.71330549637878e-06 -1.15125686805733 0.0561443793775915 0.000120327565743509 -0.00432073662888818 -0.0560587616865817 -0.000145524363698346 -0.00413536018679187 2.71892116131996 -4.21660700468706e-05 -1.13183733591928 -2.71875403970087 4.49942820622095e-05 -1.13183605036836 -1.68257351900512 3.31672136344287e-05 0.510901845290526 1.68316718641816 -9.59020983383094e-05 0.510995433397216 0.313693449672961 -0.371998583030272 0.0933896176279557 -0.313802464390643 0.371682851725287 0.093397330933452 -0.0910573711560339 -0.480120614156311 0.343738060132273 0.0908398559410361 0.480306504818774 0.343558083004024 -0.0901777972192635 0.481945068016388 0.34289910960445 0.0901402591325145 -0.481757120472459 0.342901166485916 0.313671595307388 0.372152592030016 0.0934891192688589 -0.313787294889834 -0.371929420390987 0.0934451534275296
-0.0742390227415464 0.0283890779896053 -0.0355727365085661 0.0836145455723948 -0.0483493128429511 -0.0535285403735862 -0.0742037986464463 -0.0283931917525367 -0.0355619378808711 0.083561580874653 0.0483269442570116 -0.0534948589395854 0.260015271172745 -5.06507060928873e-05 -0.0368135502527502 -0.213609454204698 5.91353421389039e-06 -0.0565999786222442 -0.0916682649513471 -0.000342213653856005 -0.176368586827449 0.160885668704568 0.000324730161397546 -0.151100569351862 -3.26588939467082 -4.65369431614853e-05 1.02520422986422 3.22656027838552 0.000311874652236915 1.05349226355183 3.48609732461749 -0.00195480872296559 0.216153559467587 -3.34806926542089 0.00165039026604185 0.180553055059234 0.703993135544308 -6.86484189177711e-05 -1.15978135618174 -0.704557492396459 -6.9419749467409e-06 -1.18573611495669 -0.107467685709763 0.000141153490583732 -0.0219410117048159 -0.0376884962062228 -0.000147324134980835 -0.00735052302786576 2.75522974717288 -3.85665274818939e-05 -1.1601158565301 -2.84363374123816 4.03662987643823e-05 -1.15803943469048 -1.71625880965872 5.29646977418009e-05 0.557607966952566 1.82430987837419 -0.000100272971452924 0.546551971964239 0.267554255964906 -0.392174533327333 0.105415946447726 -0.269917612768996 0.40415021144101 0.100976682024377 -0.087722394969583 -0.481830911095041 0.274358162743262 0.036491648303368 0.59889960526633 0.376124430140285 -0.0868525912197746 0.483603942918475 0.273512527350675 0.0358360173361758 -0.600314482604549 0.375513279234788 0.267535229811348 0.392319543470665 0.10551390542753 -0.269906814141301 -0.404398322767811 0.101026818510104
-0.0719826237736724 -0.07142700866775 0.00347690100758434 0.0719787671209243 0.0714210951335361 0.003474072795569 -0.0718378707405237 0.0715789607860286 0.00368927401891797 0.0718360709692412 -0.0715843600998761 0.00368438892543693 -0.319188922728948 -0.000152980559011512 -0.371858200870238 0.31929870877718 0.00013703972765233 -0.371606232890689 0.254573277034867 -0.000164036296889655 0.257693823328519 -0.254729342916077 0.000210573240051141 0.257519759734484 -0.822172031486709 -0.000701910800170469 0.492848339555885 0.822156604875716 0.000555615105922485 0.492762464754692 -3.57299182479713 -0.00139250875227958 0.101620485923141 3.57255525170603 0.00136808328487438 0.101941616541974 -1.1613533278419 4.1908959863658e-05 -0.585242683664625 1.16125768285375 -3.65096460161929e-05 -0.584956520030709 0.662705610993474 -6.37633254367312e-05 -1.17591064930522 -0.662662673592878 7.94470466127014e-05 -1.17616724526807 -3.07304081642999 6.86484189177711e-05 0.655340689795349 3.07334446355637 -3.62525358329802e-05 0.655419622621595 -1.48634677006706 -1.46552804431197e-05 1.09746427552558 1.48689081521474 2.545390813805e-05 1.09758974529499 -0.286679396943177 0.607693544862751 -0.325651901404364 0.286503276467676 -0.607799474258235 -0.325700495228991 0.161409659257955 0.704006248163651 0.0862332127884154 -0.161320699134564 -0.70408698076118 0.0862663800020499 0.162204386834265 -0.70251038111772 0.085487850367282 -0.16219513086767 0.702531207042561 0.0854945352320456 -0.287029581012713 -0.606983406536718 -0.32541227471361 0.286816436670829 0.607236660067183 -0.325501749057368
-0.163852463108658 -0.0591358563592704 -0.005498301268002 0.16386377595672 0.059131742596339 -0.00550601457349838 -0.163239512431879 0.0593050348598243 -0.0049727680535154 0.163252110830857 -0.0593163477078856 -0.00496325497673653 0.0769062837821942 0.0019998030050278 -0.0937320883919949 -0.076979817294593 -0.00192935481482754 -0.0940223657888419 0.0604640875657468 -0.000660001840306811 -0.0457584135267175 -0.0605131956107404 0.000665658264337488 -0.0458131779957417 -2.79670547637783 0.0160434183222846 1.16681049148059 2.79715593341881 -0.0161424057428215 1.16683825938038 -0.863480124852199 -0.00378337634597379 0.710475654593648 0.86337702366873 0.00382451397528781 0.709957320464291 -0.124614878048579 -0.0014071640327227 0.814147108448276 0.124670670958337 0.00140844958363876 0.814175904788796 -0.0596199948342597 -0.000629148618321295 -2.00618268000386 0.0595947980363049 0.000655373857008983 -2.00578261655878 -2.17475311497447 0.000408805191308075 0.282777492802742 2.17477419800949 -0.000307503779122301 0.282779035463842 -1.40178888723246 -8.9988564124419e-06 0.139420567948878 1.40108491955082 1.56837211759702e-05 0.139390228947259 0.628770923462156 1.40355497708095 -0.834896671564085 -0.628655480989894 -1.40368018974017 -0.83487713119016 -0.432064664032405 0.0482043026996192 0.361065229599338 0.432242327169005 -0.0483392855458058 0.361181700512333 -0.429690251490437 -0.0432839851234791 0.359383471890944 0.429683052405307 0.0432631591986389 0.35941355378238 0.63911523746335 -1.41924281201985 -0.842901540008227 -0.638997480999438 1.4193844797308 -0.842909510423906
-0.163490709080878 -0.0602049205010685 -0.00412250467763124 0.16346602650329 0.060203120729786 -0.0041420450515554 -0.162885471709596 0.0603769272136377 -0.00364376551648933 0.162879558175382 -0.0603753845525384 -0.00365662102564996 0.0580379958769525 0.00198591905513432 -0.103476821445937 -0.0580454520722656 -0.00194092477307211 -0.102954630663832 0.0637640967672808 -0.000643803898764415 -0.0392183017963379 -0.0635553232985122 0.000655888077375409 -0.0389413941290179 -2.87760108176275 0.0158523854561577 1.1125391597877 2.87760056754238 -0.0160992112320418 1.11284512090573 -0.663954138043155 -0.00373015453804878 0.794163990788624 0.664273726000888 0.00378209079505773 0.793681137864551 -0.113714948941463 -0.00140382160034094 0.812153990308012 0.113539342686329 0.00139122320136352 0.812297972010611 -0.0702882676663012 -0.00062374930447383 -2.00025886138264 0.070241987833323 0.000652031424627219 -1.99995212893407 -1.86206188079567 0.000391321698849617 0.205288083125022 1.86177520294139 -0.000296448041244158 0.205108105996773 -1.59202805422386 -2.46825775884121e-05 0.176246716600606 1.59270065446315 1.59408313591828e-05 0.176379642565327 0.583347781614348 1.37048520820595 -0.818154684874011 -0.583582523211621 -1.37074720348265 -0.81822179063183 -0.389187427218769 0.0238685667483609 0.347931270110287 0.389254532976587 -0.0239852947715394 0.347945668280547 -0.386891690392863 -0.0189988998783138 0.346255425936107 0.386763135301257 0.0189467065111216 0.346175207558945 0.593627046739189 -1.38594807173455 -0.826041796854242 -0.593984687004038 1.38641549804763 -0.826226144855605