9.659699463 0.116880145 -0.135327931 0.069846397 6.998095122 0.055739839 -0.064331582 0.044340362 5.247727432
9.257321799 0.870987346 -0.044058418 0.520493260 8.309475986 -0.083836597 -0.020944292 -0.066690990 5.246319128
9.868939808 -0.026018320 -0.117178147 -0.015548286 6.592805103 0.028696981 -0.055703619 0.022828098 5.081699490
9.439153059 0.403938345 0.072114747 0.241389484 7.720291141 0.088936604 0.034281584 0.070747983 5.265863513
9.562686766 0.227151711 -0.011194635 0.135743573 7.359933051 0.129509042 -0.005321655 0.103022863 5.227504203
9.112203915 0.972864835 0.046109089 0.581374220 8.720748885 -0.298358977 0.021919131 -0.237340927 5.266311504
9.267108313 0.949468705 -0.060401800 0.567392929 8.394888503 -0.128971783 -0.028713536 -0.102595481 5.334519914
9.255657732 1.010298593 -0.000101203 0.603744257 8.512729250 -0.184822422 -0.000048109 -0.147023983 5.378511368
10.404357863 -0.000039412 -0.000544905 -0.000023552 6.217015686 0.000511438 -0.000259035 0.000406843 4.946493749
9.165725699 0.998074605 0.039479090 0.596439325 8.669119235 -0.268632782 0.018767392 -0.213694101 5.288802371
9.250184025 1.014743890 0.005632645 0.606400722 8.528599846 -0.193474105 0.002677621 -0.153906291 5.375954736
8.517080809 0.342848904 0.063866007 0.204883049 9.140245961 -0.436996673 0.030360334 -0.347625523 5.257249543
9.698047898 -0.015510427 -0.061772340 -0.009268875 6.495745843 -0.056968989 -0.029365057 -0.045318136 5.090488839
8.320821122 -0.088676718 -0.012373715 -0.052992313 9.057407244 -0.334950184 -0.005882161 -0.266448786 5.363277581
10.101330709 0.159316593 0.037275175 0.095205991 6.723180415 -0.107465587 0.017719705 -0.085487564 5.206524926
9.268285643 0.961077824 -0.052304266 0.574330421 8.412026296 -0.137375821 -0.024864166 -0.109280790 5.348858254
9.461096493 0.333338649 0.038134796 0.199199817 7.581426315 0.117886283 0.018128347 0.093777100 5.262154509
8.320655347 -0.138496576 -0.002662174 -0.082764158 9.024252488 -0.313256371 -0.001265532 -0.249191622 5.361390919
9.717130386 -0.062008751 -0.053855937 -0.037055805 6.405965002 -0.080190076 -0.025601793 -0.063790227 5.110348374
9.298067415 0.781020810 0.112032426 0.466730164 8.221203152 -0.055063756 0.053257470 -0.043802546 5.250737889
9.132013170 0.983436374 0.044570521 0.587691666 8.702604885 -0.287515455 0.021187733 -0.228715038 5.271804662
9.260939088 0.910351256 -0.068125372 0.544016735 8.351699373 -0.105422032 -0.032385132 -0.083861941 5.282510814
9.724389702 -0.067939152 -0.054387103 -0.040599752 6.390862074 -0.079870380 -0.025854296 -0.063535913 5.112687953
9.703045413 -0.040623166 -0.058275596 -0.024275995 6.446681154 -0.073062145 -0.027702790 -0.058120045 5.103092029
10.402652124 0.000016818 -0.001097981 0.000010050 6.215547966 0.001118124 -0.000521953 0.000889454 4.946098851
8.831606828 0.706806070 0.135054055 0.422380184 8.956125405 -0.417120801 0.064201388 -0.331814509 5.285193229
10.091390934 -0.050863371 0.027855020 -0.030395438 6.093461220 0.069926430 0.013241594 0.055625622 5.068122862
10.060337423 -0.058187806 0.030877080 -0.034772447 6.097921601 0.066861316 0.014678207 0.053187362 5.076649496
9.758798062 -0.082547318 -0.052638505 -0.049329445 6.324504371 -0.061848176 -0.025023055 -0.049199470 5.102521191
9.699965069 -0.032234295 -0.060483869 -0.019262890 6.461165039 -0.068662030 -0.028752549 -0.054619807 5.100918386
9.771234868 -0.014240568 -0.096730753 -0.008510020 6.565385834 -0.018356396 -0.045983429 -0.014602289 5.077682628
10.206189039 0.085992143 0.033862714 0.051388038 6.667421735 -0.054988887 0.016097504 -0.043742989 5.234493192
9.626787264 0.153399674 -0.112781193 0.091670099 7.132034278 0.105218289 -0.053613415 0.083699866 5.231720768
9.117170877 0.975705507 0.045784618 0.583071777 8.716208023 -0.295636961 0.021764885 -0.235175596 5.267468970
8.388323273 0.106679886 -0.010203942 0.063750825 9.159116427 -0.390816710 -0.004850704 -0.310889926 5.365119702
8.752683920 0.626768545 0.158205000 0.374550566 9.000723175 -0.437143004 0.075206780 -0.347741928 5.266258118
8.508556334 0.329183270 0.056618778 0.196716604 9.144443458 -0.435156203 0.026915180 -0.346161452 5.264125693
9.704989669 -0.044868725 -0.057041378 -0.026813098 6.439339532 -0.075011280 -0.027116073 -0.059670558 5.104163008
8.857124455 0.735221639 0.126085294 0.439361041 8.938742559 -0.408292229 0.059937859 -0.324791488 5.289379909
9.816794931 -0.090334506 -0.021963331 -0.053982990 6.224164714 -0.015729129 -0.010440830 -0.012512330 5.092092611
9.963213562 -0.030633517 -0.128720951 -0.018306281 6.604896646 0.066989555 -0.061190786 0.053289374 5.087355443
10.379960045 0.002043750 -0.007969411 0.001221325 6.196011335 0.013006070 -0.003788463 0.010346170 4.944163732
9.892972777 0.163628356 0.029414819 0.097782657 6.793774378 -0.117358166 0.013983084 -0.093356989 5.145561993
10.136795169 -0.040409201 0.021876646 -0.024148131 6.088788343 0.071447370 0.010399622 0.056835512 5.051237950
9.438517540 0.408041644 0.075084315 0.243841574 7.727628090 0.086639334 0.035693243 0.068920534 5.265314429
9.444742550 0.377336289 0.055264793 0.225492363 7.669031737 0.103030449 0.026271528 0.081959466 5.266765333
8.464844088 -0.266606984 0.051614819 -0.159321647 8.875824130 -0.220874850 0.024536420 -0.175703249 5.389403065
9.553584827 0.235935928 -0.004485360 0.140992933 7.381183980 0.128501748 -0.002132230 0.102221573 5.230386094
9.429531334 0.503452240 0.140568401 0.300857985 7.858826361 0.039665749 0.066822773 0.031553619 5.253763683
9.027671390 0.904867967 0.060009737 0.540739977 8.804895929 -0.341287979 0.028527159 -0.271490424 5.259573689
10.177318145 0.110357097 0.034772323 0.065948289 6.685196086 -0.076982448 0.016529910 -0.061238599 5.228909211
10.160558093 -0.027442988 -0.081896040 -0.016399653 6.608792203 0.092624162 -0.038931371 0.073681391 5.130786245
9.826928215 0.148447211 -0.000091120 0.088710557 6.815457146 -0.096555465 -0.000043316 -0.076808695 5.156710278
10.187501510 0.101922792 0.035093597 0.060908033 6.679996437 -0.070390097 0.016682636 -0.055994464 5.230503130
10.236080507 -0.016509896 0.008167535 -0.009866148 6.095904896 0.060349631 0.003882646 0.048007395 5.008817703
9.258725647 0.860531700 -0.028944377 0.514245071 8.295971874 -0.077373190 -0.013759448 -0.061549429 5.242064423
9.252116540 1.013421883 0.003818229 0.605610703 8.523284921 -0.190541606 0.001815093 -0.151573524 5.377059544
9.616513634 0.168092315 -0.095384015 0.100450273 7.175979386 0.115912345 -0.045343223 0.092206857 5.229412408
10.010486580 0.179914697 0.051408526 0.107515210 6.769504573 -0.118038475 0.024438353 -0.093898167 5.165391180
9.628422234 0.150989555 -0.115274247 0.090229836 7.124950777 0.103240981 -0.054798552 0.082126941 5.232377931
9.592231836 0.197130613 -0.048729798 0.117803267 7.272951303 0.128956874 -0.023164952 0.102583621 5.226656694
9.756368556 -0.081837738 -0.053541020 -0.048905407 6.329471556 -0.063735101 -0.025452089 -0.050700495 5.103991816
10.007067840 -0.071159326 0.031415248 -0.042524096 6.108937005 0.058746676 0.014934039 0.046732264 5.084846363
8.978362570 0.859350310 0.079658727 0.513539084 8.850416096 -0.360501685 0.037867807 -0.286774693 5.269542501
9.623442744 0.158297023 -0.107425360 0.094596705 7.146451252 0.109027487 -0.051067383 0.086730036 5.230668233
9.812962197 -0.090272837 -0.023322309 -0.053946137 6.228690262 -0.018295318 -0.011086854 -0.014553702 5.091631836
9.445722422 0.373738402 0.053419472 0.223342303 7.661797425 0.104701096 0.025394308 0.083288445 5.266509652
8.410275437 -0.247053610 0.030805896 -0.147636747 8.923577592 -0.246471295 0.014644368 -0.196064909 5.383360781
10.218634893 0.073936262 0.031027101 0.044183565 6.655408131 -0.039553870 0.014749524 -0.031464621 5.236943161
9.268574402 0.966570847 -0.047545952 0.577612996 8.421051225 -0.141569575 -0.022602180 -0.112616870 5.354931285
10.219860346 0.011745913 -0.016838821 0.007019239 6.618890525 0.056119730 -0.008004763 0.044642560 5.188751729
8.359035107 -0.212877169 0.014917379 -0.127213251 8.962258433 -0.275504608 0.007091356 -0.219160555 5.366975287
9.258458368 0.894132154 -0.063146435 0.534324363 8.335660704 -0.096902171 -0.030018268 -0.077084495 5.264216633
10.262093196 -0.010283181 0.004088976 -0.006145125 6.105911387 0.054431962 0.001943799 0.043299962 4.997072523
9.951348432 -0.083289847 0.021853785 -0.049773173 6.128693788 0.046134535 0.010388754 0.036699460 5.087626929
9.783191296 0.135471864 -0.031611446 0.080956621 6.832592187 -0.069714861 -0.015027307 -0.055457322 5.178938291
9.706061169 -0.046965762 -0.056445734 -0.028066266 6.435651314 -0.075901330 -0.026832919 -0.060378582 5.104735981
10.401621359 0.000076173 -0.001452635 0.000045520 6.214666490 0.001533616 -0.000690547 0.001219973 4.945859974
10.196228836 -0.010713620 -0.054980205 -0.006402352 6.610905433 0.079911099 -0.026136242 0.063568305 5.161708561
10.224242930 0.019124475 -0.007101510 0.011428593 6.621087292 0.046698286 -0.003375884 0.037147917 5.197128552
9.720973506 -0.008233955 -0.070346460 -0.004920528 6.537893500 -0.040752938 -0.033440983 -0.032418465 5.069066344
9.787587356 0.136929618 -0.027974784 0.081827759 6.830611775 -0.073021465 -0.013298527 -0.058087685 5.176420882
9.714401956 0.115295240 -0.091350093 0.068899273 6.890814034 -0.005257139 -0.043425595 -0.004181990 5.213803320
9.679623881 0.113057583 -0.121229474 0.067562072 6.947892499 0.030494664 -0.057629521 0.024258133 5.236298408
9.268458960 0.963848064 -0.049972543 0.575985889 8.416507294 -0.139474378 -0.023755722 -0.110950167 5.351989852
9.956118715 0.176039735 0.045604150 0.105199572 6.780502021 -0.121037991 0.021679095 -0.096284245 5.153077996
9.537253246 0.251152371 0.004501920 0.150086125 7.415557358 0.126342935 0.002140102 0.100504264 5.237778396
8.428279297 -0.254731962 0.037272375 -0.152225253 8.909839811 -0.237241379 0.017718374 -0.188722623 5.387872839
8.869822826 0.749494365 0.121569675 0.447890279 8.929861443 -0.403483195 0.057791244 -0.320965960 5.290477584
9.648063168 0.125112324 -0.135645507 0.074765864 7.040613315 0.074280511 -0.064482550 0.059089241 5.245348900
10.021952568 -0.067525227 0.032061951 -0.040352395 6.105278568 0.061349795 0.015241466 0.048803014 5.083308110
8.471329655 0.263213117 0.024759505 0.157293506 9.158614119 -0.426247831 0.011770062 -0.339074951 5.296684240
9.824873013 -0.090388781 -0.019339263 -0.054015425 6.215357054 -0.010527586 -0.009193412 -0.008374566 5.092994812
9.862818626 -0.025575160 -0.116243382 -0.015283458 6.591738979 0.025905877 -0.055259255 0.020607809 5.081869072
8.320084644 -0.133089921 -0.003882677 -0.079533195 9.028090530 -0.315744605 -0.001845730 -0.251170982 5.361367540
9.067139475 0.940434267 0.050093632 0.561994040 8.764216926 -0.322674363 0.023813285 -0.256683520 5.259870346
10.179496064 -0.019869193 -0.070543146 -0.011873630 6.608612842 0.087287751 -0.033534483 0.069436341 5.146724707
8.329061214 -0.039581778 -0.017351890 -0.023653671 9.087742036 -0.352744056 -0.008248663 -0.280603594 5.369484386
9.257538265 0.868331660 -0.040630316 0.518906248 8.306112789 -0.082209838 -0.019314657 -0.065396923 5.245015248
9.257843967 0.865710156 -0.036966924 0.517339664 8.302737049 -0.080587975 -0.017573170 -0.064106751 5.243881272
9.451797537 0.354827365 0.045295624 0.212041257 7.623788463 0.112204068 0.021532430 0.089256968 5.264402938
9.868123322 0.158201693 0.020330601 0.094539737 6.801339689 -0.111875889 0.009664669 -0.088995905 5.146523655
10.228449740 0.059557297 0.025203689 0.035590840 6.641123587 -0.016684779 0.011981216 -0.013272539 5.234833021
9.482967009 0.301804706 0.026999947 0.180355451 7.519535996 0.121073416 0.012835113 0.096312426 5.259834292
9.888109229 -0.089591984 0.000242312 -0.053539267 6.164562124 0.023204729 0.000115189 0.018459079 5.092261709
8.469575915 -0.267889382 0.053605088 -0.160087994 8.870680188 -0.218996689 0.025482545 -0.174209195 5.388775334
9.989364986 0.179709847 0.050423892 0.107392793 6.774840184 -0.119444745 0.023970282 -0.095016838 5.159918219
10.128263657 0.145727626 0.033207725 0.087085361 6.707389957 -0.099878539 0.015786139 -0.079452159 5.218465484
10.138095381 -0.033886042 -0.090925109 -0.020249957 6.611226036 0.096509502 -0.043223569 0.076772131 5.113981137
10.172372215 -0.023009916 -0.075435250 -0.013750494 6.608376975 0.089586046 -0.035860069 0.071264607 5.140589816
10.119661833 0.150506337 0.034137854 0.089941070 6.712138581 -0.102657783 0.016228299 -0.081663014 5.215078367
8.385023931 -0.233104226 0.022410042 -0.139300736 8.941670785 -0.260441581 0.010653185 -0.207178101 5.374885989
9.801387338 0.141293917 -0.017188376 0.084435821 6.824916449 -0.082471498 -0.008170933 -0.065605071 5.168729521
9.667582328 0.114440640 -0.130779290 0.068388573 6.975437104 0.044822021 -0.062169270 0.035655371 5.244539434
9.174880134 1.001657468 0.037424917 0.598580408 8.658746847 -0.263136300 0.017790889 -0.209321717 5.295673670
10.230098032 0.034570692 0.008597933 0.020659097 6.626001390 0.024747883 0.004087247 0.019686639 5.214539481
9.747181661 0.123310507 -0.063204763 0.073689116 6.854994618 -0.037837083 -0.030045995 -0.030098938 5.198317278
10.014466990 -0.069357847 0.031827181 -0.041447550 6.107049583 0.060074056 0.015129862 0.047788179 5.084145862
10.255756427 -0.011753250 0.005133325 -0.007023624 6.103082289 0.055968076 0.002440257 0.044521922 5.000001415
10.318359944 -0.000179406 -0.005853460 -0.000107211 6.141911343 0.038281782 -0.002782592 0.030452691 4.968664397
9.985433637 -0.076279259 0.029089753 -0.045583716 6.115356851 0.054451915 0.013828556 0.043315834 5.086291320
9.971487872 -0.079358409 0.026651913 -0.047423785 6.120307058 0.051307703 0.012669667 0.040814652 5.086893057
10.397844854 0.000396248 -0.002816567 0.000236794 6.211460622 0.003284804 -0.001338927 0.002613021 4.945044670
8.321591139 -0.081703739 -0.013391109 -0.048825331 9.061788598 -0.337723532 -0.006365805 -0.268654950 5.363937777
9.236292907 1.018913868 0.015070561 0.608892658 8.561409936 -0.211873358 0.007164175 -0.168542672 5.363634055
9.749091380 -0.079529898 -0.055379011 -0.047526266 6.343989143 -0.068936522 -0.026325825 -0.054838162 5.108066049
8.320211417 -0.095538536 -0.011279238 -0.057092867 9.053055878 -0.332149241 -0.005361873 -0.264220670 5.362721680
10.113156694 -0.038424902 -0.098884751 -0.022962334 6.614624173 0.098486040 -0.047007388 0.078344444 5.099552586
9.268102914 0.980115330 -0.033958576 0.585707043 8.445409344 -0.152483608 -0.016143075 -0.121298850 5.367320091
8.844253360 0.720798224 0.130634813 0.430741754 8.947619531 -0.412896530 0.062100589 -0.328454154 5.287545746
10.212931345 0.002982837 -0.030551281 0.001782513 6.615982732 0.066394839 -0.014523330 0.052816284 5.178878175
9.107229932 0.969878191 0.046414899 0.579589432 8.725319390 -0.301086749 0.022064506 -0.239510837 5.265271169
8.407919550 0.143010697 -0.006500874 0.085461751 9.165869401 -0.400267012 -0.003090356 -0.318407526 5.351652785
9.809267018 -0.090183234 -0.024724383 -0.053892592 6.233298459 -0.020836067 -0.011753366 -0.016574837 5.091192729
10.231175494 0.049816611 0.019735950 0.029769905 6.633603364 -0.000007007 0.009381987 -0.000005574 5.229019564
9.439825245 0.399929634 0.069280778 0.238993919 7.712949472 0.091174313 0.032934384 0.072528054 5.266310291
9.170339547 0.999893235 0.038481009 0.597526120 8.663983854 -0.265895320 0.018292929 -0.211516484 5.292130278
9.395371141 0.645358248 0.197061175 0.385659585 8.034845827 -0.021412509 0.093678053 -0.017033390 5.266922053
10.129191217 -0.042157000 0.022936432 -0.025192598 6.089396865 0.071476844 0.010903418 0.056858958 5.054338430
10.037149751 -0.063802432 0.032028174 -0.038127691 6.102057585 0.063739117 0.015225409 0.050703690 5.081166504
9.092263678 0.959986459 0.047377270 0.573678233 8.739348365 -0.309278006 0.022521993 -0.246026882 5.262717353
9.263638099 0.997926849 -0.014273258 0.596351027 8.481472109 -0.168977062 -0.006785157 -0.134419192 5.377431286
8.343750848 0.010163492 -0.017245058 0.006073600 9.117150722 -0.366766296 -0.008197878 -0.291758115 5.375873586
10.048682635 -0.038711508 -0.118166510 -0.023133607 6.616495191 0.092758604 -0.056173463 0.073788338 5.087810692
9.732357330 0.119057892 -0.076100703 0.071147796 6.869134271 -0.023190675 -0.036176409 -0.018447899 5.205227992
8.628764446 0.496591008 0.140272131 0.296757782 9.062076918 -0.453771733 0.066681933 -0.360969879 5.227941738
9.699003825 -0.013306070 -0.061647613 -0.007951574 6.502220524 -0.054786941 -0.029305764 -0.043582344 5.087219477
10.360088628 0.002524531 -0.009692952 0.001508634 6.178021589 0.022571864 -0.004607792 0.017955643 4.948954285
9.703984478 -0.042750971 -0.057656661 -0.025547549 6.443017009 -0.074062832 -0.027408564 -0.058916080 5.103618128
9.259858150 0.903742250 -0.066729599 0.540067260 8.345258003 -0.101940979 -0.031721616 -0.081092805 5.274612705
9.227841763 1.018524197 0.019296834 0.608659795 8.578550673 -0.221341790 0.009173242 -0.176074694 5.353871293
9.281417732 0.806962880 0.071613160 0.482232884 8.242726176 -0.057501865 0.034043141 -0.045742032 5.242090521
8.553316226 -0.286511108 0.094874960 -0.171216150 8.757944639 -0.190759520 0.045101231 -0.151746871 5.365595592
9.503612024 0.281218696 0.018197462 0.168053459 7.478351937 0.122415802 0.008650627 0.097380278 5.254009013
9.697805637 -0.022812786 -0.061870701 -0.013632691 6.478803471 -0.062738139 -0.029411815 -0.049907424 5.096962265
9.708405654 -0.051058423 -0.055373539 -0.030511999 6.428252780 -0.077481763 -0.026323223 -0.061635798 5.105988003
8.523449871 -0.280348203 0.078670115 -0.167533261 8.801868989 -0.200267026 0.037397845 -0.159309976 5.374156075
9.728713298 0.118159115 -0.079217008 0.070610697 6.873134492 -0.019554625 -0.037657824 -0.015555466 5.206901483
10.201738237 -0.006918796 -0.048148803 -0.004134603 6.612262957 0.076494224 -0.022888761 0.060850222 5.166924652
9.933204008 -0.086084208 0.016339305 -0.051443055 6.137586520 0.040669758 0.007767305 0.032352296 5.088481457
9.161046156 0.996199078 0.040414630 0.595318529 8.674154289 -0.271352432 0.019212125 -0.215857550 5.285699589
9.726794301 -0.008564933 -0.073721705 -0.005118318 6.542416788 -0.038201568 -0.035045492 -0.030388881 5.068638974
8.349225335 0.024726216 -0.016508662 0.014776138 9.125167586 -0.370417564 -0.007847814 -0.294662654 5.376695269
9.433050583 0.461465944 0.114185390 0.275767397 7.807911842 0.058894802 0.054280936 0.046850097 5.256004814
9.436802235 0.421010425 0.084741642 0.251591587 7.749598387 0.079450877 0.040284100 0.063202203 5.263136115
9.733155717 -0.009109783 -0.077475789 -0.005443914 6.546718942 -0.035452891 -0.036830091 -0.028202342 5.069022909
8.484034884 -0.271565324 0.059878552 -0.162284701 8.853968008 -0.213555210 0.028464796 -0.169880565 5.385922469
10.001579436 -0.033857475 -0.127228964 -0.020232886 6.610335450 0.080042058 -0.060481532 0.063672481 5.089170070
10.052573768 -0.060054859 0.031390852 -0.035888178 6.099216567 0.065888760 0.014922442 0.052413705 5.078336786
9.253941016 1.011937079 0.001909242 0.604723399 8.517997112 -0.187657170 0.000907607 -0.149278990 5.377908851
9.754780319 0.125772075 -0.056468961 0.075160124 6.849025775 -0.045140058 -0.026843960 -0.035908366 5.194558106
9.435306163 0.435125102 0.095331128 0.260026375 7.771506505 0.071929772 0.045318082 0.057219256 5.260427234
9.789758815 -0.088905526 -0.034217886 -0.053129046 6.262589539 -0.035535191 -0.016266344 -0.028267811 5.090213116
8.563122846 -0.288528377 0.100534430 -0.172421650 8.743121956 -0.187699466 0.047791604 -0.149312636 5.363482442
10.208859528 -0.001062397 -0.037587125 -0.000634877 6.614486855 0.070728968 -0.017867998 0.056264032 5.174193185
10.400475371 0.000159063 -0.001859144 0.000095055 6.213690432 0.002031040 -0.000883791 0.001615667 4.945599876
8.319445991 -0.121631849 -0.006360442 -0.072685967 9.035979444 -0.320922370 -0.003023598 -0.255289831 5.361485709
9.409875770 0.605998095 0.189204342 0.362138354 7.982934483 -0.006747238 0.089943107 -0.005367345 5.265981369
9.736024854 0.120025999 -0.072944506 0.071726327 6.865317829 -0.026842206 -0.034676031 -0.021352647 5.203546744
10.203294817 0.088536307 0.034241367 0.052908405 6.669710411 -0.057783992 0.016277507 -0.045966461 5.233808600
8.533435286 -0.282422158 0.083898695 -0.168772635 8.787469745 -0.197065891 0.039883384 -0.156763513 5.371044066
9.322426380 0.752452376 0.148122521 0.449657956 8.187657163 -0.051082319 0.070413817 -0.040635361 5.261949153
9.784884036 -0.016327520 -0.101414302 -0.009757161 6.570541212 -0.011797591 -0.048209874 -0.009384840 5.080289412
9.238884320 1.018682751 0.013618377 0.608754545 8.555808233 -0.208736143 0.006473843 -0.166047056 5.366374815
10.065249736 -0.039907455 -0.113467042 -0.023848293 6.617445853 0.095724086 -0.053939451 0.076147343 5.087927222
9.230772579 1.018828959 0.017903324 0.608841918 8.572784317 -0.218182880 0.008510801 -0.173561820 5.357368754
9.017373038 0.895295981 0.063698962 0.535019855 8.815108505 -0.345562494 0.030280926 -0.274890749 5.260706438
9.533869940 0.254219484 0.006044493 0.151919002 7.422211850 0.125885563 0.002873404 0.100140430 5.239504326
10.025788583 -0.036412454 -0.123529680 -0.021759715 6.613875745 0.087219891 -0.058722983 0.069382360 5.088686391
9.665481953 0.114923629 -0.132196933 0.068677202 6.981033334 0.047585413 -0.062843182 0.037853616 5.245658617
9.750961998 0.124517414 -0.059861239 0.074410352 6.851922796 -0.041495713 -0.028456566 -0.033009333 5.196471521
9.082233643 0.952594294 0.048222050 0.569260749 8.749071302 -0.314708228 0.022923581 -0.250346557 5.261387491
9.726370891 -0.069250249 -0.054642601 -0.041383251 6.387007294 -0.079490452 -0.025975753 -0.063233685 5.113031368
9.605704066 0.181950871 -0.074670838 0.108732007 7.220919131 0.123820707 -0.035496687 0.098497862 5.228366526
9.406617029 0.615870409 0.192096518 0.368037949 7.995826269 -0.010775190 0.091317977 -0.008571532 5.266600944
9.341506296 0.731862418 0.167705484 0.437353605 8.156936770 -0.046046662 0.079723077 -0.036629558 5.266285439
9.411436292 0.600969272 0.187533119 0.359133180 7.976414382 -0.004618272 0.089148649 -0.003673779 5.265548149
9.348033468 0.724375407 0.173435446 0.432879442 8.145480994 -0.043974918 0.082446961 -0.034981511 5.266911599
10.092181048 -0.040169165 -0.105269705 -0.024004688 6.616785196 0.098353530 -0.050042638 0.078239033 5.091881304
9.369211513 0.695982735 0.189115798 0.415912268 8.103777333 -0.036020270 0.089901016 -0.028653685 5.266890152
9.713931890 -0.058620241 -0.054030783 -0.035030865 6.413413009 -0.079673306 -0.025684910 -0.063379143 5.108870933
8.651855649 0.524428947 0.150994665 0.313393453 9.047684236 -0.452787938 0.071779163 -0.360187282 5.234744268
10.405013418 -0.000042701 -0.000347697 -0.000025517 6.217582746 0.000311163 -0.000165286 0.000247526 4.946640123
10.291467236 -0.004192773 -0.001122206 -0.002505559 6.122326750 0.046577207 -0.000533469 0.037051600 4.982760089
9.179340226 1.003368263 0.036315741 0.599602761 8.653409149 -0.260352292 0.017263613 -0.207107073 5.299418325
10.173838786 0.113199940 0.034553450 0.067647143 6.686802188 -0.079046718 0.016425863 -0.062880700 5.228430031
8.876124795 0.756547088 0.119321216 0.452104915 8.925433339 -0.401013230 0.056722382 -0.319001133 5.290717645
8.682124662 0.557943384 0.159991106 0.333421343 9.032049873 -0.449406515 0.076055851 -0.357497402 5.245202275
8.397328539 -0.240447499 0.026385465 -0.143689002 8.932866981 -0.253515463 0.012543003 -0.201668459 5.379163677
9.634881565 0.141577892 -0.124136363 0.084605522 7.096793349 0.094667979 -0.059011385 0.075307223 5.235981252
8.513516146 -0.278248060 0.073666552 -0.166278236 8.815784933 -0.203486509 0.035019273 -0.161871036 5.377340928
9.880417772 0.160906591 0.025071109 0.096156157 6.797461808 -0.114923725 0.011918191 -0.091420422 5.145639828
9.440536550 0.396005787 0.066586764 0.236649067 7.705605732 0.093346347 0.031653716 0.074255880 5.266650190
9.497335849 0.287068432 0.020746140 0.171549202 7.490139623 0.121925391 0.009862207 0.096990161 5.256263937
9.494303590 0.289991266 0.022013612 0.173295858 7.496000389 0.121720323 0.010464732 0.096827032 5.257208997
8.341229686 0.002930649 -0.017517698 0.001751326 9.113034397 -0.364903667 -0.008327484 -0.290276416 5.375223062
8.955262273 0.837961371 0.089387556 0.500757270 8.868858077 -0.369178024 0.042492653 -0.293676615 5.276668149
8.587885632 -0.293611603 0.115293372 -0.175459335 8.705408011 -0.180316037 0.054807644 -0.143439208 5.360370580
10.323547526 0.000397023 -0.006652960 0.000237257 6.146096280 0.036548521 -0.003162654 0.029073902 4.965926625
9.434840527 0.440108831 0.099015764 0.263004602 7.778797315 0.069367840 0.047069668 0.055181271 5.259482314
8.467356316 0.255687276 0.021670294 0.152796139 9.159817102 -0.425069109 0.010301527 -0.338137292 5.300236062
8.694592255 0.570808952 0.161891243 0.341109677 9.026369313 -0.447569841 0.076959129 -0.356036349 5.249446442
10.229420897 0.057143879 0.023963537 0.034148606 6.639049838 -0.012567795 0.011391678 -0.009997527 5.233721686
8.937603128 0.821115818 0.096530857 0.490690537 8.881990969 -0.376036843 0.045888404 -0.299132722 5.281935920
9.183713057 1.005025010 0.035158651 0.600592817 8.647973881 -0.257540278 0.016713561 -0.204870150 5.303345568
9.516827583 0.269385817 0.013023158 0.160982249 7.454181612 0.123740220 0.006190890 0.098433836 5.248180619
9.568386389 0.221547637 -0.016301008 0.132394635 7.345618023 0.129982063 -0.007749100 0.103399146 5.226332506
9.758896570 -0.012380339 -0.091422754 -0.007398366 6.560210108 -0.024089093 -0.043460137 -0.019162580 5.074672160
8.483432442 0.285679151 0.034766415 0.170718981 9.154612576 -0.429470646 0.016527102 -0.341638661 5.285884458
9.844075049 0.152694910 0.009366406 0.091248939 6.809432710 -0.103928084 0.004452560 -0.082673523 5.151027043
9.151520963 0.992259997 0.042083227 0.592964574 8.683939791 -0.276754237 0.020005335 -0.220154620 5.280185249
9.285151528 0.800469741 0.082440008 0.478352649 8.237729874 -0.056759241 0.039189960 -0.045151284 5.243801540
8.894935357 0.777266062 0.112565878 0.464486365 8.912211953 -0.393412984 0.053511060 -0.312955230 5.290126028
9.931545351 0.171654264 0.040292421 0.102578858 6.784683519 -0.121024460 0.019154030 -0.096273482 5.149044330
9.698856060 -0.028265883 -0.061256830 -0.016891407 6.468287007 -0.066312204 -0.029119996 -0.052750549 5.099583354
10.229416169 0.031974757 0.006328992 0.019107793 6.625064828 0.028661183 0.003008648 0.022799622 5.211700378
10.204257251 -0.004990802 -0.044652947 -0.002982453 6.612990026 0.074663577 -0.021226917 0.059393965 5.169404883
8.611984497 0.475331516 0.130873291 0.284053323 9.073876493 -0.453345732 0.062213955 -0.360631000 5.224680760
9.862054437 -0.090134060 -0.008407921 -0.053863206 6.182975916 0.010619099 -0.003996920 0.008447364 5.094145602
9.800280060 -0.018603312 -0.105554129 -0.011117152 6.575865874 -0.004248075 -0.050177846 -0.003379292 5.082199075
10.222679762 -0.019832968 0.010083574 -0.011851982 6.092372516 0.062969333 0.004793484 0.050091336 5.014643966
9.867135212 -0.090066429 -0.006817648 -0.053822790 6.179195562 0.013210731 -0.003240943 0.010508976 5.093902303
10.227684891 0.026787293 0.001384259 0.016007816 6.623368211 0.036203264 0.000658043 0.028799255 5.205878095
9.743589724 -0.010280037 -0.083491704 -0.006143247 6.552780177 -0.030925172 -0.039689910 -0.024600597 5.070853879
9.698456768 -0.014355399 -0.061698474 -0.008578642 6.499009968 -0.055868532 -0.029329943 -0.044442736 5.088892352
9.434385717 0.445235838 0.102756636 0.266068449 7.786082840 0.066782547 0.048847986 0.053124702 5.258547752
9.259301284 0.857953530 -0.024593566 0.512704383 8.292596901 -0.075789023 -0.011691179 -0.060289243 5.241352014
10.144445684 -0.038645211 0.020804735 -0.023093989 6.088263926 0.071301172 0.009890061 0.056719213 5.048054643
10.142824453 -0.032720626 -0.089249041 -0.019553516 6.610607451 0.095867974 -0.042426807 0.076261804 5.117268959
10.206628468 -0.003039605 -0.041126155 -0.001816437 6.613734569 0.072743681 -0.019550366 0.057866711 5.171821566
8.518476650 -0.279302757 0.076140633 -0.166908513 8.808892236 -0.201873052 0.036195391 -0.160587551 5.375747763
10.114286845 -0.045577899 0.024969607 -0.027236893 6.090811695 0.071191650 0.011869939 0.056632089 5.060147341
8.361860033 0.054178365 -0.014503769 0.032376445 9.139891012 -0.377633149 -0.006894736 -0.300402564 5.375889746
8.338051981 -0.188056999 0.008832819 -0.112380967 8.984795669 -0.289373096 0.004198906 -0.230192768 5.363248185
9.721499141 0.116578812 -0.085344244 0.069666323 6.881658652 -0.012347738 -0.040570562 -0.009822475 5.210283721
9.796638124 0.139831222 -0.020784708 0.083561729 6.826804182 -0.079376069 -0.009880541 -0.063142695 5.171319693
9.480340425 0.304820845 0.028214023 0.182157865 7.525510078 0.120922613 0.013412255 0.096192464 5.260240030
10.062701404 0.172428076 0.045706689 0.103041281 6.746769890 -0.113623570 0.021727840 -0.090386164 5.186259183
10.166761370 0.118890818 0.034013317 0.071047955 6.689897897 -0.083001969 0.016169098 -0.066027054 5.227476171
9.265346827 0.936969132 -0.065980560 0.559923310 8.379226258 -0.120691742 -0.031365541 -0.096008809 5.317778867
8.443702192 0.210313230 0.006284761 0.125681066 9.165567774 -0.416580738 0.002987622 -0.331384896 5.321310044
8.543476550 -0.284489586 0.089352720 -0.170008109 8.772669527 -0.193868805 0.042476093 -0.154220270 5.368130332
8.355646018 -0.209592128 0.014003826 -0.125250143 8.965357149 -0.277542077 0.006657076 -0.220781337 5.366194620
9.682352347 0.112962321 -0.118899480 0.067505144 6.942455587 0.027500911 -0.056521899 0.021876639 5.234269255
9.620012749 0.163221152 -0.101612731 0.097539315 7.161127647 0.112607038 -0.048304202 0.089577525 5.229924657
9.962003625 0.176924831 0.046683303 0.105728496 6.779587809 -0.120855834 0.022192098 -0.096139342 5.154178024
8.700754797 0.576996224 0.162437674 0.344807128 9.023656265 -0.446596141 0.077218889 -0.355261783 5.251471842
9.037786290 0.914248100 0.056770200 0.546345451 8.794589266 -0.336868886 0.026987162 -0.267975090 5.259003448
9.957898943 -0.082091396 0.023572762 -0.049056991 6.125801355 0.047907519 0.011205913 0.038109847 5.087383372