4.3551873340 -0.4736719329 2.4417833114 2.6227667415 5.6681589943 5.1982303896 2.0302364833 2.3880836004 2.5023374007 6.9825441667 1.9724709395 0.0479444247 7.6786655517 5.0292296561 2.4152251128 1.1901107342 5.4281199723 2.4732564312 3.6133452099 1.7144078162 4.9737701935 8.6254980850 2.0210633185 2.9394746609 6.0347277289 5.2578424586 0.1628041426 1.2794828842 5.3636523869 3.9955006738 3.4724275614 1.6564365090 1.2973657060 8.2367820666 1.7781884615 1.4383159392 6.3054047770 5.5888289562 3.8865133573 4.5016774176 5.0544853535 0.3007467223 0.4774759049 1.6402503157 3.0474015388 5.1589962159 1.7741970686 4.6318364140 9.3633465757 5.7715599533 2.0379166736 2.1590448410 6.3619129276 1.7088187592 3.0904398815 0.3777409817 4.2623433403 8.1593818912 3.4272599165 3.3580495652 6.7936014025 3.9601590520 0.7231501808 7.9699604331 1.0513215735 3.9479955932 6.4673566575 6.3867437289 1.1113898402 1.4934109247 4.0267836706 1.7523957157 2.8698035222 2.8610218388 4.1828679104
5.6364785331 0.7144295143 3.1007560592 2.9922075922 7.2848807699 5.1375268611 2.1551671253 3.0840997267 2.8123739461 6.8331170910 3.1975932531 -0.3085304993 7.4755439699 6.1409852492 2.2774037760 1.3375168494 6.2847320958 2.4613491015 3.6625490910 1.9736790567 5.3198758909 8.2674828396 3.0044312240 2.5026321821 6.0311041654 6.3592081428 -0.0197539870 1.7090191749 6.7946102508 3.8515218777 3.2253677878 2.1225382795 1.5312776226 8.0915792351 2.7722026548 0.9890329037 6.5329788284 6.8332558149 3.8443967577 4.5195833296 6.1455600197 -0.0909894776 0.5300552547 2.1322601770 2.8080272814 5.1793117906 2.2106013630 5.1599596161 9.0430946992 7.1657247231 2.3663811789 1.8416846009 7.2823582108 1.3714416597 3.4822809932 0.5250041123 4.7296575680 7.6436368509 4.3687388641 3.0093223074 6.7910233181 5.0133945512 0.4018523669 7.5735772683 1.9960477400 3.4431913991 6.3858206419 7.3170901192 1.1438883303 1.9716872152 4.8774420577 2.1576252668 2.8452514421 3.0378176133 4.5181428843
4.8094653199 0.0354593901 2.2426342769 2.6139036626 5.0784797080 5.2002591053 2.0430591021 2.1623470241 2.2391842523 7.0882943641 1.5477865186 0.0433931656 7.6839335653 4.9129524572 2.6038187176 1.0161098746 5.1851847890 2.3099297419 3.8861573566 1.5503469803 4.6432424140 8.7523717590 1.7633498580 2.8886981717 6.0153050707 4.7304352541 0.1768066759 1.2205920079 4.9356850325 3.8122257320 3.6598208298 1.7314228437 1.0518975378 8.4040574743 1.6275274914 1.3949073985 6.1162421491 4.9384818427 3.7589785248 4.5372883084 4.5639335003 0.5666553892 0.4395668403 1.6558196970 3.0955703119 5.3765197842 1.5066044660 4.2557219829 9.3901724370 5.3314624988 1.8831075212 1.8359245387 6.2849767537 1.5734473285 3.3477016456 0.1172863168 4.2177510429 8.1603283015 3.0966413990 3.4537945748 6.8526271585 3.5443921298 0.8050062257 8.1593489062 0.6083339361 3.7627447784 6.6651674343 5.9136901900 1.0069810715 1.6602495709 3.9636251196 1.4495731407 3.1522573849 2.6089036430 3.7668324627
4.6880915889 0.2188780679 2.6185255582 2.8111263889 6.6288433506 5.2383239248 2.1021358311 2.8367475280 2.8062153079 7.0984538646 2.6330905308 0.1621953109 7.4727307780 5.6032366038 2.4858595482 1.1394035923 5.8259473942 2.5658487073 3.7889698442 2.0490237811 5.2494745675 8.5857976166 2.4797378934 2.9032537875 5.8386404832 5.6640483267 0.2338534124 1.5281469634 5.9270319025 4.0647388867 3.4103306759 2.0898367453 1.4955731140 8.3110855137 2.0429833945 1.4342937320 6.1663101481 6.0308989393 3.9573932391 4.3372602330 5.3948509048 0.3594932315 0.6379139931 1.7739183001 3.0849083409 5.3222465803 2.2297680975 4.9904368782 9.0787838830 6.5704099454 2.5563333755 2.0370542398 6.8312870235 1.7421728908 3.4938375355 0.5479084758 4.7170465975 8.1467325021 3.9444846404 3.1492063375 6.7616936750 4.4223727948 0.7349795535 7.8144661942 1.6439265664 3.9394647860 6.3138242606 6.7504046921 1.2381391384 1.4834220583 4.4187683650 1.9567885129 2.9879801113 3.0810835222 4.4309080075
4.4143176141 -0.0217849894 2.3876881467 2.6860565885 6.1606004426 5.3111321357 2.2292599827 2.6338311740 2.6258614233 7.0488773313 2.2017420394 0.1147876814 7.4990798925 5.3651576278 2.5187694348 1.0589608564 5.5880573609 2.5101248085 3.6948961486 1.9307095610 5.0997540850 8.6732765913 2.2052533916 2.9633353440 5.9938178615 5.4370158783 0.2467444332 1.3971619335 5.5603628223 4.0345606391 3.5012389871 1.8941317552 1.4223590597 8.2059819149 1.8567814585 1.5393180451 6.2678308313 5.7942875700 4.0067025078 4.4193174332 5.2980167518 0.3740734217 0.6446009162 1.7063960713 3.1435453763 5.1749354804 2.1780042793 4.8679460774 9.1753009681 6.2482723870 2.1076342427 2.1129914261 6.5344466980 1.8364024701 3.3294656815 0.5477258850 4.5627821722 8.3307652810 3.7376517791 3.2803207767 6.6951541099 4.1849889220 0.7955752657 7.7965204962 1.2894693012 3.8717046852 6.4482791133 6.6174250553 1.1865336617 1.3769715846 4.1789446145 1.9073708848 2.9143880902 3.0438049588 4.3232697291
5.9502780909 0.4414400533 3.1722700913 2.9113358699 7.4700765026 4.9333925977 2.2219400663 3.0913722606 2.8149454656 6.6475406264 3.5950950275 -0.4999632840 7.4370565032 6.3968111832 2.3902440239 1.5787743928 6.2651171125 2.3529165929 3.6291414479 1.9560672077 5.3347447254 8.0797429287 3.2650720442 2.4024700653 6.0060997855 6.8114971404 -0.0555713533 1.5327107615 7.1027046617 3.7014339839 3.5281070683 2.4836775859 1.6188061398 7.7472558277 2.9185802098 0.9333313342 6.7738056752 7.2190342900 4.0392662198 4.4893635592 6.7622280993 -0.3899995985 0.4972231332 2.4713720146 2.4812427094 5.0849230961 2.0829371552 4.8440365751 9.2140438206 6.8889903844 2.0370231525 2.1741513521 7.2136196214 1.2975934757 3.0805942986 0.5204386060 5.1441235611 7.2564624282 4.4932240453 2.8761381930 6.5494601148 5.3835526553 0.2434655148 7.5386074444 2.1493371939 3.3959521976 6.2600655380 7.5667638238 1.2892467162 2.4470103093 4.9978236215 2.4750525614 2.7435142300 2.9863674413 4.6243943667
5.9197435900 0.7534363383 3.2078817499 2.9759430326 7.3230842223 5.1519054671 2.1598622534 3.1280815767 2.8321673942 6.8031015006 3.3527662608 -0.4414063009 7.5002544862 6.2176773242 2.3437891713 1.4022863733 6.3163240311 2.4644249660 3.6245485283 1.9524859020 5.4299032189 8.2897896017 3.0799538515 2.4675778250 6.1007860441 6.5141512072 -0.0485683297 1.7404500034 6.8617544642 3.8728348628 3.3189473851 2.1522509518 1.6117591248 8.0858760908 2.8122355424 0.9463815210 6.6662916295 7.0074377060 3.9532655897 4.5594219116 6.2800687708 -0.1556956322 0.5284336675 2.2187998731 2.8655416409 5.1993294737 2.1814069790 5.2375757100 9.1655887848 7.0625822063 2.2725103682 1.9485299820 7.2874523117 1.3769450684 3.3383380964 0.5514105263 4.8599020621 7.5457823060 4.4196722836 2.9985538310 6.7604809896 5.1803950774 0.3297566918 7.5238252151 2.0451674142 3.3214179203 6.4598223368 7.4518041884 1.1428633976 2.0801879157 4.9377587919 2.3680201626 2.8023399037 2.9917114575 4.6399760939
6.0448186735 0.6277600091 3.2833965833 3.0194689407 7.3642265337 5.1619846733 2.1939426770 3.1482825304 2.8297334957 6.7879509360 3.4944057990 -0.5007292289 7.5048821657 6.3057451430 2.4485387286 1.5207295036 6.3106215993 2.4535163156 3.6649446756 1.9703905742 5.5270419239 8.2556442158 3.1790656274 2.4510529577 6.0944676430 6.7392090322 -0.0380951772 1.6983908219 7.0312981824 3.8343713171 3.4533823230 2.2072569590 1.7153017235 8.0421456670 2.8916188268 0.9719774529 6.7335932195 7.1375724994 4.0787313400 4.5643496514 6.4810635456 -0.2426258252 0.4898970636 2.2928267789 2.8671543179 5.1649636924 2.1959026800 5.2207089673 9.2597633089 7.0338541849 2.1754491715 2.0876509849 7.2869837208 1.4082453821 3.1868923954 0.5553004504 5.0285193270 7.5143238243 4.4549195794 2.9760268423 6.7239068398 5.3128863059 0.3054341235 7.5804940543 2.1332395646 3.4449224834 6.4931353363 7.5780032962 1.2181068418 2.2785666933 4.9445164330 2.4595415591 2.8404846610 2.9913181374 4.7045695183
5.4799289187 0.5045150632 2.3998239882 2.8676433258 4.6763078327 4.9054374640 2.1970359349 1.5825720363 2.4411536148 7.5692423056 1.6113163216 0.0165295500 8.1590240474 4.6523971562 2.5280930852 1.1207576971 4.6656706925 2.1833245835 4.0622809094 1.6291668425 4.6697705554 9.2639266751 1.5587986963 2.7574315498 6.2995166226 4.6694054619 0.2912645828 1.3980318089 4.6935369760 3.7036860284 3.8162053081 1.5809263061 1.2751756085 9.0716518364 1.5768735951 1.2326823044 6.5061771142 4.6995758160 3.6964885589 4.8083866951 4.7516465975 0.6127562536 0.3676838603 1.5182896751 3.0690433154 5.5735724369 1.5853001667 4.3866160030 9.9942246220 4.6558647326 1.9154813379 1.8366503784 5.8660279656 1.4583788736 3.3969481432 0.4215133916 3.9452362576 8.5161950597 2.7675289801 3.4474819639 7.0259048282 3.4424393875 0.9851873306 8.5199812131 0.3746081266 3.4302666339 7.0259094873 5.9184250021 0.9604341903 1.8519721680 3.4400413530 1.5430921790 3.3223227288 2.8337211790 3.9747956196
6.0000638991 0.4516805433 3.2060158888 2.9514862361 7.4347695298 4.9931444865 2.2196293123 3.0890999157 2.8150843601 6.7060194648 3.5912300772 -0.5102768174 7.4609299967 6.3813757990 2.4159415676 1.5614117873 6.3076273934 2.3930981881 3.6526589349 1.9766050078 5.3946496125 8.1379089682 3.2200956980 2.4147585753 6.0555444739 6.8110143666 -0.0272403805 1.5931353227 7.1185311701 3.7176958421 3.5077282642 2.3795889413 1.6439443767 7.8586767161 2.9492538042 0.9619058147 6.7372192613 7.2378250244 4.0206674956 4.5611355137 6.7212212167 -0.3484133587 0.4816954357 2.4119521503 2.5980841389 5.1302716885 2.1284656910 4.9531421041 9.2435963470 6.9417221568 2.0413901558 2.1888777536 7.2192746344 1.3226452102 3.0944093978 0.5197263623 5.1417831649 7.3258531835 4.5337432704 2.8781847456 6.6078575538 5.3322411816 0.2388011363 7.5894597734 2.1928589067 3.4288546342 6.3214336421 7.6299118656 1.2721297541 2.4689149862 5.0240881579 2.4304296353 2.7695553394 3.0195637328 4.6045212134
6.0481043414 0.6042462079 3.2829880415 3.0179570780 7.3694548691 5.1527054936 2.1977040643 3.1418210697 2.8294955464 6.7845991599 3.5105417230 -0.5057173512 7.5027671421 6.3148373474 2.4527812423 1.5250848850 6.3073617980 2.4516797563 3.6593527489 1.9722922857 5.5217583727 8.2455676760 3.1899993772 2.4501322007 6.1005154767 6.7481446020 -0.0302044887 1.6920182607 7.0510366278 3.8279243897 3.4647679953 2.2178542102 1.7188502355 8.0274865697 2.9021454061 0.9598854971 6.7332721003 7.1568437182 4.0794390574 4.5661958517 6.5099218948 -0.2561974376 0.4888137029 2.3038079985 2.8525744983 5.1689354731 2.1937115506 5.2009319382 9.2725911953 7.0296378507 2.1580516995 2.1075368271 7.2806298243 1.4015539152 3.1758698483 0.5642605456 5.0518461741 7.5031985049 4.4656551906 2.9659688618 6.7074131065 5.3342804050 0.2941476174 7.5862365254 2.1426777161 3.4628735145 6.4812213361 7.5938665475 1.2234728266 2.3066506567 4.9630908218 2.4554283829 2.8433841910 2.9889563195 4.7032740570
5.3831161654 0.2464658713 2.8505794799 2.4524893747 7.4918670060 4.9452273696 2.1207234902 3.2855136620 2.7535148263 6.0869503709 3.3603026786 -0.5388353709 6.6670762359 6.0167980988 2.3612682282 1.3444134786 6.3868134750 2.3579089092 3.1105018577 1.6850954187 5.2100012428 7.4842438757 2.8075582525 2.2986015999 5.4200525775 6.5987325912 -0.0762626741 1.2183862146 7.1556437607 3.7166261782 3.2407637265 2.3672685940 1.4868795494 6.7872000221 2.4132413325 0.9603668598 6.5010423309 6.7599247424 4.1713420250 4.0179424665 6.9291047199 -0.7057080663 0.4730237924 2.5988198495 1.9929117910 4.4411058677 1.9059777148 4.4619625076 8.4835412248 6.3005196140 1.8732842188 2.0928937515 7.3709462159 1.4397862175 2.7988575356 0.1657870753 5.1345397431 6.7589785854 4.1355805841 2.8950093398 5.4567153258 5.0226258876 0.1893783059 7.1953083790 1.8029767020 3.4614455733 5.6523318317 7.3403812962 1.3126879408 2.2394639689 5.1482774979 2.5088122939 2.0412496822 2.6089932108 4.5780480455
4.7759507788 -0.0902230061 2.4914849209 2.6000583630 5.0166486366 5.0365545963 2.0775078518 2.0191927844 2.3102321339 7.1098970504 1.6400527008 -0.0081380171 7.5981923895 4.6450800232 2.5651905274 1.0525895990 5.0612145605 2.2832557143 3.6913240942 1.5525749417 4.6553725071 8.6817039020 1.5473871473 2.8547723744 5.8652204678 4.7677968278 0.1455134998 1.2036176084 4.9161917246 3.8037154016 3.5442772154 1.8450925866 1.1050642557 8.4510008216 1.4128408496 1.3245016757 6.0591712591 4.7275035644 3.6745325453 4.3552705453 4.7458335895 0.5191504587 0.4938436628 1.5695244695 3.2575251476 5.2046638607 1.5319849068 4.3486454197 9.2531323870 5.0651406409 1.8048147281 1.9115631000 6.1945080582 1.5996682265 3.0425566713 0.2584981775 4.1592650187 8.0385560451 2.8210236300 3.5702894789 6.5842879776 3.5456994238 0.8018604816 7.8544662739 0.3971060121 3.5864967606 6.5083089710 5.9792400738 0.8993651307 1.5975795220 3.7569364932 1.5479083336 3.0999305489 2.7698603809 3.9068636750
5.1205081378 0.0981919060 2.6036289156 2.2052921654 7.4386964874 5.2529566852 1.9605450046 3.1674792021 2.7201162738 5.8887038943 2.9995690228 -0.5459075005 6.4556250322 5.6074589912 2.5177949922 1.1194822247 6.3723011655 2.5856479478 2.8831650309 1.6332073087 5.2348193255 7.0795942699 2.4464002284 2.3500396723 5.1618696690 6.1907973670 -0.0414568339 0.9081681245 6.7605370412 4.0802003220 2.9891944425 2.3592670466 1.3276959413 6.3685182726 2.0999502488 1.0473455481 6.1716535419 6.3560856122 4.1921323327 3.8401010862 6.6983656083 -0.6153978024 0.2181600569 2.7508558702 2.0295052891 4.2807951392 1.7947098731 4.4774236082 8.1291174936 6.0360317075 1.7358883664 1.8787704091 7.4823757568 1.7811686021 2.5076399454 0.1218730263 5.1441375504 6.5227487244 3.7294033760 3.0768408041 5.4249813174 4.6831541460 0.1914299888 6.8050182969 1.3958115377 3.4118534042 5.4094538214 6.8801655274 1.3220840868 2.0340020375 5.0798577445 2.5913615520 1.8203203120 2.4723960234 4.4355832538
4.9259004745 -0.5886530733 2.6957286753 2.8882934894 5.1725259771 5.1558986139 2.1017668043 1.9809938069 2.3094022955 7.2293056518 1.8971163741 0.3249601619 8.0677367745 5.0785974649 2.4839609716 1.2867397236 5.1173864869 2.2063005225 3.9952496999 1.5696798595 4.7536857986 8.9154386835 1.9635447683 3.0125682097 6.2829283739 5.0547823831 0.2089088054 1.7273070429 5.0553456133 3.6866188054 3.5821667853 1.9414354354 1.0440443578 8.5065675192 1.5478421374 1.5751336122 6.6439034018 5.1820976083 3.9078324867 4.7424035188 4.9047225549 0.5773185388 0.3810132658 1.7104553772 3.0109979357 5.5719062844 1.7036430915 4.6715822566 9.8427979649 5.3529897984 2.1019882751 2.0407943371 6.3510162121 1.5485402177 3.4719677729 0.2230812478 4.3039520406 8.4304748822 3.4019732516 3.4093302625 7.0814135277 3.8541928471 0.8247372253 8.3336882215 1.0379705922 4.1274735517 6.8979401133 6.1424691602 1.1510055498 1.7754404195 3.9075042636 1.3656560347 3.3190195599 2.5941619380 3.7917223548
5.9528475089 0.7436052404 3.2270016369 2.9851002647 7.3293389847 5.1604242361 2.1637504896 3.1372107544 2.8319526784 6.8010965171 3.3758370279 -0.4558609593 7.5029839592 6.2315603207 2.3642334648 1.4238026009 6.3148513914 2.4670153012 3.6318354433 1.9493467601 5.4632070837 8.2907246501 3.0852160270 2.4721516996 6.0905601112 6.5558129874 -0.0436621028 1.7338155779 6.8802238318 3.8618112917 3.3440970640 2.1577797373 1.6264529641 8.0839114732 2.8199691194 0.9522988337 6.6935957237 7.0331047548 3.9647809657 4.5662255399 6.3063347581 -0.1667038719 0.5241452746 2.2310504092 2.8757196176 5.1992014588 2.1857180894 5.2483890301 9.1883275120 7.0551805087 2.2623137554 1.9701282084 7.2954122077 1.3829924316 3.3082550641 0.5469839597 4.8853285364 7.5352183322 4.4354181267 3.0027639292 6.7597326293 5.2042426859 0.3288336883 7.5331613040 2.0669349254 3.3220838624 6.4757434732 7.4675197801 1.1528265129 2.1027294787 4.9336509525 2.3987075553 2.8028758451 2.9958247301 4.6562487174
4.5616531479 0.1709047931 2.5122778539 2.7270975384 6.4546269513 5.2749540963 2.0979580884 2.7937644721 2.7479133056 7.0465435744 2.4579425567 0.1395063737 7.4565786198 5.5190580768 2.5233220362 1.1335389664 5.7034684628 2.5676353402 3.8255845971 2.0063958140 5.2310914465 8.5759019702 2.3854627314 2.8822104058 5.8820565007 5.5351807900 0.1986248164 1.4477978970 5.7651433590 4.0866304390 3.4558013334 1.9821810918 1.4995866816 8.2860088002 1.9742819499 1.4460475557 6.2180329338 5.9163604170 4.0095560510 4.3339556706 5.3182500406 0.4249161129 0.6240584303 1.7296378686 3.1400346296 5.2822671640 2.2917223578 4.9306812232 9.0955612354 6.3757484130 2.3814212725 1.9866847135 6.7329035704 1.8109550246 3.4294947519 0.6238897181 4.6643672433 8.2115629182 3.8887230305 3.1921632542 6.7383472491 4.3807697258 0.7889997048 7.8457833268 1.5871234312 3.9864047281 6.3716236940 6.6525879146 1.2047885919 1.3810568240 4.2770928175 1.9938248542 3.0330510632 3.1025538201 4.4248149373
5.0909377950 0.0701506901 2.5735524283 2.1862075980 7.4144767600 5.3123001341 1.9469684981 3.1623093464 2.6772871776 5.8739656531 2.9294728422 -0.5290553443 6.4570563851 5.5644226746 2.5450867458 1.1362835270 6.3398818436 2.5827962124 2.8762766542 1.6438465941 5.2090644623 7.0628930042 2.4025393175 2.3702525108 5.1624538642 6.1442799603 -0.0282373364 0.9049972586 6.7167141509 4.1001628840 2.9886900153 2.3376417325 1.3238208603 6.3152178197 2.0699912520 1.0661134047 6.1465064929 6.3353346266 4.2015508656 3.7812796016 6.6288737252 -0.5572290012 0.1907988617 2.7456583495 2.0147372768 4.2519708049 1.7574039729 4.4699481205 8.1197305748 5.9579953937 1.7839503516 1.8886207394 7.4778583539 1.8257600018 2.5274085154 0.1392167670 5.1865570440 6.4526407862 3.7211229703 3.1123860179 5.4230709027 4.6045867519 0.2283182270 6.8014639202 1.3546903508 3.4440995923 5.4393106037 6.8100270919 1.3748937663 1.9910124002 5.0359535912 2.5818725195 1.8190619335 2.4916088355 4.4621735306
4.8087076304 -0.1751977078 2.6124074968 2.5459808998 4.9855148992 4.9944895759 2.0937852938 1.8797442835 2.3917984474 7.1811844488 1.6271860250 -0.0327386334 7.5524172425 4.4341358276 2.5034396855 1.0309679737 4.8984374405 2.2118438575 3.7609446355 1.6456206119 4.7567609711 8.6604917545 1.4054428073 2.8113609666 5.8877030406 4.7553874621 0.1890267399 1.1076734086 4.8664521288 3.7530160445 3.5662943716 1.6245989340 1.1793497796 8.5985807905 1.4419882945 1.2616960680 5.9459831316 4.6518517825 3.7765937212 4.3874160815 4.7852101192 0.5379961544 0.4479284478 1.4377875632 3.2011869938 5.2414525842 1.4768087566 4.3937694707 9.2362033514 4.9064577041 1.8126393927 1.9076519197 6.0281950497 1.6024647306 2.9874667246 0.3915728799 4.1233449317 7.9721651647 2.6880000039 3.4600274122 6.6123272434 3.5024773653 0.9115984480 7.9017522551 0.2846304880 3.5479224772 6.5132393575 5.9522261032 0.9328316390 1.6407540961 3.6642085759 1.4739295636 2.9519573003 2.7799142002 3.9726370815
5.3498448797 0.5601155053 3.0822224178 3.0729741431 7.1850974328 5.2389392088 2.1604056364 3.0756597470 2.7743143115 6.9439773740 3.0703136921 -0.1059772730 7.5341377759 6.0559947879 2.3854121491 1.3262234119 6.2755719176 2.4821912921 3.7715494201 2.0004300084 5.3743355049 8.4057805870 2.8983250633 2.7720500713 5.9232454442 6.2601488425 0.0785393153 1.8382905699 6.6631496327 3.8636614828 3.3484119871 2.0035114993 1.6379402873 8.1322685273 2.5555238061 1.2998743711 6.4302216785 6.6801502871 3.9117668992 4.4126275450 5.9265322513 0.0267941312 0.6299327600 2.0306489933 2.9106335294 5.2654616169 2.2681772382 5.2415675690 9.0697759788 7.0993229163 2.5231877067 1.9116708988 7.2658165516 1.4590839267 3.5414033059 0.5514137132 4.7382015500 7.8432841772 4.2825643148 3.1647749861 6.7361619411 4.9344001097 0.5468406252 7.6100403189 1.9105086091 3.6724334921 6.3115732303 7.2654548222 1.1873777689 1.7665462869 4.7940099650 2.1016700456 3.0124028098 3.0670823581 4.5043175149
5.9695171637 0.4418962508 3.1830987441 2.9267813108 7.4568562804 4.9530976047 2.2216169089 3.0886368703 2.8144661322 6.6696539617 3.5964507400 -0.5035382721 7.4459091610 6.3934689067 2.3999286198 1.5753795025 6.2824281746 2.3642899496 3.6425897688 1.9675790349 5.3502658660 8.1020167169 3.2528146167 2.4056713365 6.0279387762 6.8161367926 -0.0485684021 1.5544557257 7.1137648273 3.7083817691 3.5184097964 2.4464915840 1.6291397722 7.7899696431 2.9333766932 0.9492040091 6.7551124967 7.2244979075 4.0353689857 4.5153419470 6.7522454215 -0.3737989112 0.4906578354 2.4487939280 2.5211746684 5.0958392724 2.1000199520 4.8841795734 9.2223715064 6.9093467651 2.0362447445 2.1814843617 7.2131661138 1.3069445547 3.0837093053 0.5166644103 5.1448045451 7.2818284796 4.5054539014 2.8719036020 6.5738872482 5.3582340239 0.2414890186 7.5574968506 2.1642006207 3.4095633637 6.2818583690 7.5942209688 1.2855030952 2.4608363784 5.0100339967 2.4552575018 2.7548107971 3.0000493420 4.6144975296
5.7927305179 0.7518394599 3.1469443158 2.9653017679 7.3066860096 5.1269270191 2.1560599535 3.1024910507 2.8266616020 6.8112038300 3.2797165567 -0.3836624777 7.4871463220 6.1805041051 2.2924961317 1.3613663031 6.3239062502 2.4580243363 3.6389144085 1.9720998563 5.3451714431 8.2702174592 3.0614188436 2.4538849661 6.0946364753 6.4304416809 -0.0606699886 1.7365932026 6.8238206880 3.8727799927 3.2531237578 2.1397282419 1.5680832733 8.0907643704 2.8002847556 0.9607464354 6.5784453172 6.9186334412 3.9210879798 4.5427740872 6.2164188528 -0.1253087578 0.5244129332 2.1767594956 2.8284352405 5.1694205481 2.1770780144 5.1925770229 9.0749012695 7.1014730790 2.3043725640 1.8828987248 7.2667096913 1.3734158962 3.4185109528 0.5318449906 4.7796170418 7.5964362770 4.3588811402 2.9844921267 6.7846429698 5.0634755332 0.3535837498 7.5328629450 2.0044592660 3.3546969544 6.4125258111 7.3977288034 1.1290882469 2.0342746111 4.9135724912 2.2571149231 2.8033819741 3.0054889028 4.5658797921
4.8134842802 -0.1829718392 2.6273283458 2.5359788916 4.9841988169 4.9917539570 2.0937037645 1.8587887827 2.4083329000 7.1923598460 1.6226564287 -0.0347923787 7.5457973930 4.4065486233 2.4926682717 1.0244428315 4.8629745191 2.2018836400 3.7672480288 1.6533703309 4.7616032094 8.6675163438 1.3863494751 2.7953080166 5.8991454952 4.7502448196 0.2115855079 1.0934183281 4.8529529679 3.7454906160 3.5906070671 1.6042190255 1.1978401420 8.5999433892 1.4656700093 1.2436650139 5.9432288957 4.6447628370 3.7820184874 4.3917223110 4.7845127561 0.5471112786 0.4445949211 1.4250853614 3.1976846288 5.2393643592 1.4810442179 4.4052328378 9.2302913421 4.8897027674 1.8138181040 1.8971414508 6.0090637835 1.5922205253 3.0044226949 0.4130696630 4.1161873897 7.9672345692 2.6792123375 3.4300526047 6.6209388181 3.4917069287 0.9232885748 7.9016493043 0.2587569307 3.5517757095 6.5248123384 5.9616714441 0.9371464988 1.6602459336 3.6362917059 1.4699908330 2.9557726098 2.7865406039 4.0014420758
4.7927911488 -0.1424609551 2.5629677198 2.5744996033 4.9974887784 5.0075611648 2.0906737288 1.9394203322 2.3513050821 7.1509307820 1.6382945349 -0.0255521236 7.5715443677 4.5228591858 2.5333780949 1.0365134890 4.9902829589 2.2536461786 3.7125016028 1.6044163609 4.7220260938 8.6630163001 1.4742092017 2.8339077602 5.8675866546 4.7596115937 0.1523342838 1.1580410085 4.8940149716 3.7799365620 3.5290766242 1.7146870079 1.1318949242 8.5591296829 1.3982606805 1.3012705700 5.9960128341 4.6767144279 3.7188603597 4.3435335441 4.7767265055 0.5282177399 0.4598041916 1.4889826904 3.2219936397 5.2540348038 1.4949250302 4.3630908111 9.2575843079 4.9631818100 1.8017225171 1.9293148286 6.1043281575 1.6078552649 2.9825211973 0.3403835974 4.1475372213 7.9928178119 2.7324242288 3.5319922857 6.5862122041 3.5462079885 0.8594236452 7.8802301912 0.3400410663 3.5506474053 6.5085650674 5.9526826188 0.9261848006 1.6028224579 3.7090419249 1.4948774110 2.9966735631 2.7724021507 3.9340953885
5.4781495510 0.5027038847 2.3997519028 2.8588676607 4.6773068919 4.9016418576 2.1984409384 1.5824369350 2.4478595630 7.5745856317 1.6065111266 0.0118182032 8.1574684722 4.6545727404 2.5296730620 1.1237479292 4.6578591770 2.1776201983 4.0659080128 1.6385161347 4.6706335405 9.2595799114 1.5595877115 2.7576676533 6.2941296729 4.6676133904 0.2961737100 1.4071874693 4.6920102909 3.6978888015 3.8208617759 1.5882774228 1.2841064809 9.0773486517 1.5811679127 1.2325563014 6.4920867652 4.6919051556 3.6964793117 4.8089818110 4.7635781831 0.6142242710 0.3653208855 1.5047015490 3.0629158072 5.5689119876 1.5836794012 4.3779054055 9.9937610059 4.6437506891 1.9130734977 1.8337627093 5.8566059013 1.4492857256 3.3990483425 0.4324977526 3.9580302462 8.5097467163 2.7643209852 3.4473686271 7.0166691260 3.4369496024 0.9906492355 8.5265036034 0.3751767985 3.4249601489 7.0155830010 5.9327754305 0.9441361716 1.8618644231 3.4294149059 1.5626004507 3.3173855913 2.8397348192 3.9739495775
5.6857181220 0.4560303277 3.1528297608 2.7288365650 7.6090242626 4.8951453961 2.2061217491 3.1590433959 2.8068476433 6.2793424810 3.4440060956 -0.4606952728 7.1519064492 6.2369009966 2.4153968519 1.4776209512 6.2762528147 2.3564390233 3.4988518588 1.8434483087 5.3861378700 7.7876206165 3.1017766610 2.3902881464 5.7185609627 6.7169585278 -0.0337155230 1.3620153821 7.0111868347 3.7098661049 3.6754167156 2.5167998062 1.5893331958 7.2620738391 2.7010338625 1.0049685356 6.7564555091 7.0524004208 4.1654864313 4.3099595269 6.8011686333 -0.6384304592 0.4821843026 2.6982021315 2.1658615946 4.8916218735 1.9690755088 4.6209222196 8.9459854400 6.4878883242 1.9241791294 2.1282657195 7.1728045324 1.2671689154 3.0418550154 0.3881890923 5.1684995421 7.0916207156 4.4042155619 2.9790085994 6.0959000261 5.2463917540 0.2763582195 7.3753180262 2.0392074018 3.4249334112 5.8839335943 7.4506730670 1.3308001770 2.3802614747 5.0189146766 2.6377576308 2.4543346702 2.7629833337 4.6652567015
5.1660327400 0.1224634854 2.5838922240 2.7294699320 4.8028958840 5.0195949065 2.2849811246 1.5546457303 2.7380436607 7.3778794164 1.4390175454 -0.0334385000 7.8411894591 4.4714692857 2.6745282820 0.9856775689 4.4495440748 2.2325328594 4.0341097369 1.8367575587 4.9569495711 9.0700766820 1.4554996217 2.7496418405 6.0440115394 4.6551508600 0.3564799829 1.1826101027 4.7779575982 3.7296761547 3.9312089054 1.5454456651 1.4145444581 8.8510116761 1.5668013422 1.2254713194 6.1307390213 4.6337629494 3.8798316398 4.5306597528 4.8673646703 0.7028548190 0.4338288672 1.3973259332 3.1943478588 5.4942913814 1.7759647406 4.4314426347 9.5783909053 4.2383269003 1.9179821762 1.6730522035 5.6544815951 1.4510321886 3.2711792757 0.5888171501 4.1990857151 8.3765304349 2.6427419534 3.5808204566 6.7076084304 3.4876022247 1.1735269210 8.1670209885 0.2148268442 3.3070345473 6.7999793041 5.9024519677 0.9483886380 1.7569285512 3.2103971405 1.6302994089 3.2942897888 3.0283047862 4.3141464257
5.1383119841 0.0888980816 2.6041583714 2.7131270880 4.8185404245 5.0266559350 2.2835101306 1.5597881715 2.7353496272 7.3461095957 1.4409747898 -0.0352790213 7.8099023020 4.4432827614 2.6688563412 0.9738021321 4.4581905641 2.2269241698 4.0401905264 1.8434910880 4.9644132320 9.0357713564 1.4495630258 2.7563557842 6.0362433439 4.6615693078 0.3699250531 1.1834663237 4.7592083566 3.7327907119 3.9120056337 1.5195015125 1.4314800062 8.8373413808 1.5456674781 1.2315909372 6.1107537703 4.6506677427 3.8972277503 4.5433695978 4.8723297867 0.6984638724 0.4310840476 1.3994996381 3.1975949872 5.4789948741 1.7619492037 4.4451513274 9.5282980088 4.2496083276 1.9082708085 1.6574293910 5.6645735216 1.4665134643 3.2865022904 0.5803242200 4.2126543645 8.3474149199 2.6304516807 3.5925540906 6.6943850285 3.4636054386 1.1705885810 8.1453813094 0.2141752541 3.3016341954 6.7667722705 5.9070497055 0.9543186646 1.7249295463 3.2199015623 1.6492159212 3.2826158088 3.0247380665 4.3170866687
4.8292170149 -0.1870102412 2.6652679434 2.5129780623 4.9865350062 4.9773981530 2.1089355318 1.7785616141 2.4704484657 7.2215167188 1.5976973154 -0.0412138604 7.5242831147 4.3252817873 2.4704326014 0.9870667907 4.7416959326 2.1831358741 3.7624247954 1.6561107822 4.7980758269 8.6960048723 1.3344582908 2.7294909753 5.9255641637 4.7304193712 0.2766313844 1.0849741589 4.7756011593 3.7221612675 3.6954482379 1.5904823809 1.2329102139 8.5898257698 1.5490563334 1.2087459376 6.0225574400 4.6125211140 3.8183186281 4.3845019338 4.7638171721 0.6182222289 0.4170076935 1.4001401367 3.1910095048 5.2999922799 1.5536429798 4.4289140982 9.2573093022 4.8143953726 1.7925615659 1.8231323672 5.9348395423 1.5271898275 3.0854111486 0.4462270176 4.0642163626 7.9780482404 2.6283025282 3.3302184958 6.6366118661 3.4894984472 0.9332824061 7.9198953665 0.2217113496 3.5204001224 6.6001815081 5.9803557792 0.9648048458 1.7142555373 3.5043613648 1.4926228538 3.0324210381 2.8626555827 4.1350589006
4.7868955795 -0.1278923246 2.5434508965 2.5837146311 5.0035191904 5.0153877627 2.0873247720 1.9619699471 2.3390046390 7.1399290983 1.6409020400 -0.0215266912 7.5787904888 4.5580077878 2.5437968243 1.0392210085 5.0168560658 2.2683044184 3.6962356355 1.5857297071 4.7004177325 8.6695945906 1.5000819898 2.8383546634 5.8640425471 4.7603662586 0.1490472746 1.1755610157 4.9014526302 3.7906003778 3.5273130325 1.7544721212 1.1230196892 8.5315545494 1.3940322817 1.3082868044 6.0200899103 4.6889601486 3.6933640897 4.3322157267 4.7700426886 0.5262951572 0.4688308226 1.5119363339 3.2332133549 5.2460688394 1.5077181500 4.3568223807 9.2586696935 4.9892504569 1.7988970219 1.9316400434 6.1353781963 1.6050592671 2.9957590809 0.3236402979 4.1564375514 8.0026890000 2.7573671857 3.5513418151 6.5801017200 3.5569125817 0.8390249275 7.8673065396 0.3534732456 3.5597921745 6.5108749057 5.9600865970 0.9221569296 1.5966660049 3.7199099015 1.5074491565 3.0274722589 2.7705277687 3.9306194751