-28926.784382266
-28927.6467082657
-28926.7521494459
-28927.3967223083
-28927.1284177928
-28927.6004545152
-28927.6016896393
-28927.4456733859
-28927.5245995562
-28927.4268369954
-28927.4763306677
-28927.211895745
-28926.9551723884
-28926.9689628386
-28926.4816823068
-28927.5714387593
-28927.2017680812
-28927.1879923252
-28927.0486955539
-28927.8164572811
-28927.5666786744
-28927.6320240581
-28927.0555649281
-28927.127319814
-28927.4246890659
-28927.3625236028
-28926.7379592608
-28926.7193538947
-28927.0258624934
-28927.0775306262
-28926.8446557225
-28926.2961229412
-28927.1593266436
-28927.5973673853
-28927.1028419622
-28927.4281751145
-28927.2021378838
-28927.1223084321
-28927.3096308223
-28926.9082435238
-28926.5942441793
-28926.9848307408
-28926.4040194243
-28926.6828703866
-28927.3896129298
-28927.4109450111
-28927.2835880447
-28927.1367013419
-28927.4644999804
-28927.5138033091
-28926.3182732684
-28926.3471752807
-28926.6453348869
-28926.2757262507
-28926.5671454644
-28927.647749917
-28927.4667985248
-28927.148265766
-28926.4741948262
-28927.1536477668
-28927.1067216233
-28927.0203602183
-28926.7027616259
-28927.4179347957
-28927.1676900582
-28926.9094111637
-28927.4007534007
-28927.359683144
-28926.3250245453
-28927.5550324802
-28926.1380590322
-28927.3143676415
-28927.61438524
-28926.6286952702
-28926.8583288916
-28926.7970483424
-28927.1138141308
-28927.3736342773
-28926.3075808327
-28926.1446201017
-28926.9961004657
-28926.7936727719
-28926.8115134984
-28926.7276977171
-28927.5635118152
-28926.2725161254
-28927.2147787896
-28927.4081457775
-28927.2704513477
-28926.9830353346
-28926.6891241036
-28927.230185323
-28926.9089291143
-28926.7544847257
-28927.1634844049
-28927.5703145216
-28926.3010483352
-28926.9927054391
-28927.6488729302
-28927.6497941711
-28927.2831145668
-28926.504450196
-28926.2442503149
-28927.2729995564
-28926.9553689906
-28927.2647105649
-28926.4384823522
-28926.4177400773
-28926.4593858545
-28926.3061341402
-28926.4304513246
-28927.2953618602
-28926.7634495115
-28926.7341681727
-28927.393607967
-28926.1469884433
-28926.808123506
-28926.6934383303
-28926.6023484055
-28926.930089764
-28926.7559097851
-28926.8009968482
-28927.2416028057
-28926.9557326705
-28927.4707594118
-28927.013098184
-28926.9881452217
-28926.5306395069
-28927.5022972535
-28927.343909121
-28926.1823168288
-28927.6002440352
-28927.0973923412
-28926.9114956907
-28926.1690828511
-28927.4040072002
-28927.408963207
-28927.4531169201
-28926.6962798776
-28926.6939515367
-28927.5869896491
-28927.4296901075
-28927.0892749174
-28926.5469789821
-28926.833049665
-28927.3680492797
-28926.9671286562
-28926.8269691484
-28927.127130831
-28927.6194872358
-28927.4375424925
-28927.8259506478
-28927.3334549209
-28927.2221908946
-28926.9732874056
-28927.0908025637
-28927.3395853704
-28926.8353532436
-28926.2890108415
-28926.8958767725
-28927.4466321785
-28927.0093733556
-28927.0913742746
-28927.4203175593
-28927.3762499702
-28927.0168555299
-28927.2399276737
-28926.4908578446
-28926.7101599892
-28927.4561841857
-28926.7982502686
-28927.3829287289
-28926.9497012704
-28927.3260590066
-28926.2285981988
-28927.3250697372
-28927.104820637
-28927.5028689643
-28926.828239103
-28926.2859958217
-28927.3498812004
-28927.693227191
-28926.7973389598
-28927.4795437862
-28926.5602464298
-28927.4489435123
-28927.4796401145
-28927.2273957494
-28926.5051610931
-28926.7414932014
-28926.8024447652
-28927.5768247058
-28927.0568061748
-28927.0523233737
-28927.4791713986
-28927.5697758725
-28927.5154833391
-28927.5328948062
-28926.5487430952
-28927.4933244403
-28927.0534851632
-28927.329872408
-28927.5675069885
-28926.8198453478
-28927.3812587671
-28926.3368757772
-28927.2538335001
-28927.3434073434
-28927.3138417818
-28927.1357218687
-28927.3144774394
-28926.4621246789
-28927.4107011972
-28927.2240860305
-28927.2297774246
-28927.084760143
-28927.392736659
-28927.3675107667
-28926.9261041146
-28927.3892714271
-28927.2312716009
-28927.3695521636
-28926.2230956517
-28927.3481893335
-28927.3722460893
-28927.2397639973
-28927.1473564981
-28926.9174790628
-28927.221253463
-28926.5728654304
-28927.4892793341
-28927.8343600496
-28927.2343659418
-28926.2354327426
-28927.0326262875
-28926.1498503991
-28926.2724491854
-28927.3829777093
-28926.9470419032
-28926.77440236
-28926.5732503353
-28926.951806342
-28926.1525719443
-28926.9996444745
-28926.9608301765
-28927.3968152352
-28927.6450396645
-28926.6691671489
-28926.4372347109
-28926.2518286814
-28927.328589664
-28926.7198028823
-28927.095166043
-28927.2324310774
-28926.8300464822
-28926.7774786054
-28927.2823331923
-28926.5119749561
-28926.372585394
-28927.638143351
-28927.2077023368
-28927.3452510497
-28927.3085601909
-28926.7289642703
-28927.1655513806
-28926.3002200211
-28927.3841716082
-28927.5441514697
-28926.8418153997
-28927.0378043391
-28926.7003717873
-28927.366748168
-28927.1350081145
-28927.416229187
-28927.4199283007
-28926.7677153019
-28927.4560932997
-28927.0666195472
-28927.369095965
-28926.6059544563
-28927.0941145956
-28926.9517306944
-28927.4332088097
-28927.3938414406
-28927.5276994754
-28927.3909520013
-28926.8396222993
-28927.1119736898
-28927.7114174476
-28927.3268146663
-28926.96510345
-28927.6516263127
-28927.3553353113
-28927.3005193672
-28926.9401996043
-28927.3890397223
-28926.9752396853
-28926.2741552022
-28927.5584339014
-28927.4998508152
-28927.4291514584
-28927.4952250184
-28927.0370628293
-28927.0156522432
-28926.4882745332
-28927.3989071092
-28926.2681900618
-28926.8595519067
-28926.5452679312
-28926.9552929348
-28927.2692452037
-28927.2167669883
-28927.1651546388
-28927.4436061381
-28926.5894949789
-28927.4912959687
-28927.0550185238
-28927.2506777975
-28926.9821515093
-28926.7427552647
-28926.4227805754
-28927.0470002855
-28927.2897048885
-28927.3394667288
-28927.5608037396
-28926.726843008
-28927.4404708441
-28926.250633558
-28926.2771737595
-28927.0409283404
-28927.3645318019
-28927.4857413118
-28926.3306996126
-28926.7961684627
-28926.9509761231
-28927.3654239267
-28927.2250267276
-28927.3834177172
-28927.3473968023
-28927.5364725572
-28926.3068051726
-28927.4940864947
-28927.4172659402
-28926.8224622652
-28927.3746416422
-28926.3215706062
-28927.1223008129
-28927.488661772
-28926.5539083575
-28927.4879491063
-28926.6198556567
-28927.355741305
-28927.7423265706
-28927.2248150231
-28926.5316778928
-28927.5500972901
-28926.8845524888
-28927.435676881
-28926.4957953477
-28926.4728316726
-28927.0652610195
-28927.1175981439
-28927.0256578639
-28927.7215317778
-28927.592599409
-28927.3285862626
-28927.1493773505
-28926.7663740535
-28927.5501764752
-28926.4670646309
-28926.7521189692
-28926.8222139615
-28927.376227929
-28927.4691710841
-28926.8104281729
-28927.035640491
-28926.5582212235
-28926.3903829905
-28926.8919130283
-28927.107611163
-28927.0154878865
-28927.0316122558
-28927.2247970636
-28926.5980645196
-28927.0120772134
-28926.9476273558
-28927.2570604965
-28927.3427749511
-28927.2962980674
-28926.9827113832
-28926.7616595476
-28927.4927336814
-28927.4269662494
-28927.8081832559
-28926.571777928
-28927.4265601197
-28927.2023619694
-28927.6381994064
-28926.5583175518
-28927.3194326298
-28926.7947575532
-28927.4786445865
-28926.6838150293
-28927.6355714684
-28927.3805995717
-28926.5698165325
-28927.3491545208
-28926.4865856596
-28927.2298823244
-28926.7650789284
-28926.9327547095
-28927.187094214
-28927.3282643521
-28927.1436237784
-28926.5105603731
-28926.4962439271
-28927.1182977482
-28927.3743453104
-28926.5224981371
-28926.729647956
-28927.3251750452
-28927.1824836555
-28927.0596168372
-28927.3057284397
-28927.6459264831
-28927.5312111027
-28926.9830360149
-28927.6353956829
-28927.2571426748
-28927.4643632432
-28927.0926657262
-28927.2216070747
-28926.5222492891
-28927.2289134636
-28926.5945082656
-28927.4558150635
-28926.8770584776
-28927.2384676477
-28927.0265910778
-28927.5906716195
-28926.5554127381
-28927.2320320226
-28926.3036112381
-28927.339550812
-28926.5269525023
-28927.2816003901
-28927.0313255841
-28927.0911432501
-28926.1443885329
-28927.076785851
-28926.9238885649
-28927.2137570027
-28926.9157618893
-28926.6269325177
-28927.1023178713
-28927.0338291662
-28926.8277253523
-28926.9062317872
-28926.3150601499
-28926.4720658086
-28926.8394042002
-28926.1485077901
-28926.7974622273
-28927.7740387011
-28927.2297828669
-28926.5378404517
-28927.5484243351
-28927.2997964971
-28926.9172989235
-28926.3369579556
-28927.2881135676
-28926.7307180431
-28926.9234191688
-28927.4625806264
-28927.2863679582
-28927.1540318553
-28927.5558602501
-28927.2218321127
-28927.37629242
-28926.6447599106
-28927.4026742513
-28926.7798945669
-28926.3620369065
-28926.5521420675
-28927.5142048129
-28926.7569677632
-28927.4563082696
-28927.451328997
-28926.1519572394
-28926.440700487
-28927.6245654216
-28927.3545246846
-28926.4165845465
-28927.6393226918
-28927.823416589
-28927.416049592
-28927.3376065596
-28926.7334321051
-28926.7950668104
-28927.3975249077
-28927.5429035563
-28926.9140864852
-28927.4232259105
-28927.8312266603
-28927.4058692743
-28927.807936857
-28927.1876774897
-28926.9609624237
-28927.4367974452
-28926.831051126
-28927.6505252046
-28926.3010658865
-28927.0866450746
-28926.9812850993
-28927.091123794
-28926.7012526194
-28927.298345723
-28927.6196154013
-28927.221629388
-28927.6516053599
-28927.0682338617
-28927.4496022996
-28926.814827163
-28927.2422205038
-28927.2872142318
-28926.6190643501
-28927.3673027357
-28926.5414632374
-28926.7451280962
-28926.163470234
-28926.4993898336
-28926.1444064924
-28926.7273300915
-28926.3873671544
-28926.9572156902
-28927.551829838
-28926.9106001645
-28927.3270813378
-28927.0153918303
-28927.4392921836
-28926.7980740749
-28927.3241391084
-28926.5215994816
-28927.7867469551
-28927.0985899136
-28927.6103512904
-28926.9201201983
-28926.5288002904
-28927.2557995216
-28926.9613448795
-28926.9844998505
-28927.8355340841
-28926.7873099373
-28927.3667015005
-28927.1401207227
-28926.7142803348
-28927.2494259385
-28926.5158747536
-28926.5471452436
-28927.6126584064
-28927.4020709752
-28926.8588780171
-28927.6165352103
-28927.2415562742
-28927.0769966031
-28927.0654377574
-28926.1407360868
-28927.1782203141
-28927.1837000037
-28926.8255938857
-28927.1523418932
-28926.785370719
-28927.4523668387
-28927.4363668253
-28926.4150921389
-28926.3708460433
-28927.3077838506
-28926.4146570291
-28926.3013633068
-28926.554311766
-28926.7370923065
-28927.1984567296
-28927.3664194547
-28927.0511516521
-28926.9899830776
-28926.7796040855
-28927.0413780083
-28926.8218361316
-28926.9807695799
-28927.6739058939
-28927.0936492812
-28926.7276175796
-28927.010044388
-28927.2401348883
-28926.2028412766
-28927.4321404914
-28927.4935210424
-28926.4968093794
-28927.3688895668
-28927.2014494361
-28926.8569102269
-28926.7501021985
-28927.0126423935
-28927.2658373878
-28926.5681427611
-28927.1130960228
-28926.5832109212
-28927.1683504781
-28927.1289213392
-28927.365991828
-28927.7448589967
-28927.4457852246
-28927.4905359551
-28927.0029354176
-28927.3144661467
-28926.76357033
-28927.3314220955
-28927.2614551327
-28926.7453313651
-28927.1692296775
-28926.9465546836
-28926.735013766
-28927.4836712068
-28926.1431772188
-28926.399054982
-28927.1278324762
-28927.234856971
-28927.5937085445
-28927.6546047332
-28926.1845436712
-28927.3662780916
-28927.5908901268
-28927.3830794799
-28927.4193402629
-28927.4741492682
-28926.9109378576
-28926.6187782225
-28927.051697104
-28927.5814737683
-28926.4147292753
-28927.6290988358
-28927.2164620849
-28926.7390735664
-28927.4020404985
-28926.6722828507
-28926.5271534583
-28927.4177983307
-28927.4082374798
-28927.2526903505
-28926.9900004929
-28926.2863989581
-28927.1285135768
-28927.3514559224
-28927.0028873895
-28927.4758924285
-28927.1062582137
-28927.2312914652
-28927.4384305356
-28927.3039228293
-28926.529397716
-28926.9080533163
-28927.1043483837
-28926.4531711857
-28926.795716754
-28927.3787927367
-28927.2334668782
-28927.4065748651
-28927.4243819856
-28926.4143204245
-28926.7689494736
-28926.9833724835
-28927.125692302
-28927.2516975436
-28926.9307213399
-28926.5808550968
-28926.3039117877
-28927.0175057456
-28926.9852198634
-28926.733271422
-28926.7349393429
-28927.0913748189
-28927.2878062152
-28926.5110764367
-28927.2119826853
-28927.3117622889
-28926.3295107478
-28926.3009933682
-28926.941402755
-28927.2300884505
-28926.3062286997
-28927.1079072227
-28927.8349060457
-28927.3283942864
-28926.3908156513
-28927.5388734163
-28927.6295381634
-28927.3425554914
-28927.6812569094
-28926.3156246497
-28927.4822970326
-28927.380806106
-28926.9392949623
-28927.0996084352
-28927.4201959245
-28927.5698580509
-28927.0405211223
-28926.2651282385
-28927.1643514952
-28927.0144177994
-28926.9503815546
-28927.3847042708
-28927.4930979056
-28927.232406315
-28927.0493201909
-28926.7721989193
-28926.4151428881
-28927.7285463247
-28926.9423546087
-28927.6409190468
-28926.7669465807
-28927.4128806919
-28927.1482102548
-28927.5734743059
-28927.3655484187
-28926.9518251178
-28927.4140371751
-28927.2201866412
-28926.8888396402
-28927.3893536054
-28927.8183324166
-28927.6157116582
-28927.469436531
-28926.662044981
-28927.425012337
-28926.3094254915
-28927.5075332653
-28926.4679816541
-28927.4216220724
-28927.6297063297
-28927.3288741589
-28927.2678917101
-28927.1498323246
-28926.981626602
-28926.2047059358
-28927.2402284954
-28927.4018115148
-28927.1823844701
-28927.385317615
-28927.072853536
-28927.7620684195
-28927.3162208719
-28926.7375389811
-28926.3677908867
-28926.5094750476
-28927.0650185662
-28926.2844831416
-28927.2421202299
-28927.4875191666
-28927.098823115
-28927.1360870453
-28927.2281114085
-28927.3467650904
-28927.3721734349
-28927.0967500168
-28926.5377667089
-28927.0404974484
-28927.5206960852
-28926.1497516218
-28927.5973434393
-28926.9183009822
-28927.4969236882
-28927.2349867692
-28926.9533856899
-28927.0954603339
-28927.2602967447
-28927.5551837754
-28927.1250703861
-28927.4569941321
-28926.6991021048
-28927.4090027996
-28927.4965430011
-28927.6545587459
-28927.6251084245
-28926.4639423984
-28926.8060467342
-28927.3760967702
-28927.2977638078
-28926.9353162518
-28927.1727498764
-28927.3814417636
-28927.3269912681
-28927.0128622614
-28927.5322776524
-28927.5714080105
-28926.7394354776
-28927.2436578083
-28927.2850133762
-28927.6030465342
-28926.7426748551
-28926.4625083592
-28926.475345595
-28926.9245234062
-28927.3579994405
-28927.1603136
-28926.230216459
-28927.2715310948
-28926.3250193752
-28927.280745681
-28927.2229713167
-28926.9144293485
-28927.1802558606
-28926.4616984127
-28927.4514782514
-28927.020189467
-28927.664182183
-28927.0817037619
-28927.3783909608
-28927.4943324855
-28926.1416063064
-28927.0436855325
-28927.4672098246
-28926.4850895784
-28926.4553846946
-28927.3812171337
-28926.1570937937
-28927.2408908202
-28926.7168443261
-28927.2076857379
-28927.6340876324
-28927.4246191327
-28927.4616257794
-28927.0158785057
-28926.7483742765
-28927.128643239
-28927.3335753312
-28927.8287475685
-28926.8859446225
-28926.4983266854
-28926.49029144
-28927.055626698
-28927.6454604884
-28927.207583287
-28927.432852885
-28927.6345794779
-28926.7503850607
-28927.1028691736
-28926.8971991091
-28926.9185713272
-28927.2431124925
-28926.9892131319
-28927.4602634422
-28926.4138917093
-28926.4794617229
-28927.2057057025
-28927.2925475243
-28927.1342223862
-28927.0853072276
-28926.6424734753
-28926.5368124061
-28926.5210074983
-28927.6340251823
-28927.013277643
-28926.7237494834
-28927.2073681812
-28926.9291966868
-28926.6895437029
-28926.9730733881
-28926.6646481567
-28926.138120802
-28927.1029830532
-28927.2111758682
-28927.5185601287
-28926.269700837
-28927.1966969703
-28926.3554075365
-28927.4048914337
-28926.7339329304
-28927.6491970176
-28926.9249653188
-28927.4903360876
-28926.5600347253
-28926.778394404
-28927.6462735641
-28927.5803568777
-28927.7601347795
-28927.2718954551
-28926.7871227231
-28927.3745624571
-28926.3137144116
-28926.7086485336
-28926.148890382
-28927.203461853
-28926.8720800214
-28926.9618084252
-28927.2505373869
-28926.8873902265
-28926.2499723217
-28927.5460576262
-28927.3659995832
-28927.3093906819
-28927.6434536498
-28927.3400134053
-28926.4073581234
-28926.3101225107
-28927.049691354
-28927.5628195579
-28927.0522667741
-28927.6200797633
-28927.5789233827
-28926.7265836836
-28927.4676816698
-28926.7710231161
-28927.1055715348
-28926.656226918
-28926.8671629268
-28927.2274165661
-28927.2773955532
-28927.7007690943
-28927.6140245533
-28927.6416623253
-28926.6130890053
-28926.8565016481
-28927.5257161747
-28927.4126552457
-28927.4494599841
-28926.6350522544
-28927.0102186768
-28927.1994095358
-28927.2434379405
-28927.2441375448
-28926.3007394861
-28927.5630141192
-28926.9807678111
-28927.4382486276
-28926.46717715
-28926.4124092339
-28927.2303473667
-28927.6394103124
-28926.7468282626
-28926.151369882
-28926.8344620712
-28927.3048118247
-28927.5862293634
-28926.977931434
-28927.8326077734
-28926.3215680211
-28927.053470469
-28927.7979822576
-28926.9752068956
-28927.3306166389
-28927.5672686169
-28927.35227825
-28926.7252813474
-28926.7001776342
-28927.2218583717
-28927.043378044
-28926.952084034
-28926.4667936057
-28927.4759873962
-28927.2251022391
-28926.7594162423
-28927.4361420594
-28927.6494032798
-28926.7661804446
-28927.795377041
-28926.9571686145
-28927.1674843402
-28927.1390007027
-28927.078894188
-28927.569253006
-28927.6540239065
-28927.3101440287
-28926.9486747215
-28927.1037407538
-28927.5106991721
-28926.9513049725
-28926.7988574903
-28927.5300738035
-28927.1588581999
-28927.5089625425
-28926.9145105744
-28927.2825444886
-28927.2989853262
-28927.2365893829
-28926.2353072982
-28927.2251886352
-28927.5622543778
-28927.4850966744
-28926.7288224991
-28927.4260673218
-28927.0486333759
-28926.8231394202
-28927.0330135053
-28927.0499229227
-28926.7603173468
-28927.7799266973
-28926.2709015388
-28926.4347425576
-28927.0567146085
-28927.3645610542