0.432418704754689 0.304180372894094 0.104245838003926 1.03913985890453 0.165724739462813 0.623114499431478 1.26635172735209 0.0599480674280391 -0.424733424268281 0.44450751134898 -0.0465341149494699 0.282079695765503 -0.870145449241803 0.624625278868036 0.182456955965924 -1.10212594025741 -1.64345420462932 -1.47207484090711 0.590603945204975 -0.598301309869994 -0.490839794804628 -0.861835391010188 -1.22232417957876 -1.5663766854651 0.582665925408468 -0.405857937277909 -1.9393443167759 0.210714136431541 -0.178629356668438 0.065795781435027 -0.275325925472874 0.543094868440762 -1.24101171902521 -0.534448510089505 -0.0635211276441449 0.473487942759975 -0.0416886164366448 -0.65077904092479 0.692480512870596 -0.692679773262586 -0.178003036262132 0.154132669742488 0.187788649835204 -0.286377806698269 0.746152777836598 -0.948519317949775 0.212052909155529 0.531620555184349 -0.696204753874431 0.733165114041795 -0.376712955349658 -0.0994908422755913 0.286774270600783 0.465226478352987 0.355405720246462 0.763185556143885 0.977789769647433 0.0668807864081843 0.728884486601488 0.389632227835726 -0.226811805002484 0.655334262040769 -0.0215599744132947 -0.259434202158685 0.159248648168053 0.0280013558333207 0.468748630752816 -0.00299456230387745 0.63272553519015 0.509313161468456 0.287158136104319 0.457377932900238 0.454171768915577 -0.246600547363627 0.726333439363653
-0.0405910130645101 -0.307447214881994 -0.0999184165102739 -0.266576465938148 -0.41800279389214 0.0904793874641719 -0.620273174796796 0.430563911892993 -1.06902248994842 0.276078229868954 0.381497261638879 -0.574564126425255 0.336076176672536 -0.10672155195808 0.528060607587587 0.09072492768914 -0.0648691563347287 -0.919839962563322 -0.620649069884653 -0.165166296144875 -0.595694212612218 0.764504531383766 0.537604023368074 0.142814679477468 0.738696325413249 0.0241272195926728 -1.00631897268689 0.524539740738674 0.104188759543252 0.538610352625168 0.404524049647402 -0.209372535495538 0.741982450664889 0.0527124726520693 -0.530493898361512 0.632598008539276 -0.368702687591669 -0.191435757784075 0.999483441355998 -0.867747125452795 -0.354557513752043 -0.0597220675769952 0.282788805650804 0.0839413326152581 0.201984731491106 0.268983017253018 0.188168658685992 -0.0402865946075863 0.138944656999752 -0.509866976803096 -0.293302555262734 0.411091929277568 -0.101080811648578 0.180762599858553 -0.362723847391243 0.665916660071617 0.118434720574698 0.0393437715657456 -0.226135862330818 -0.183221344540615 -0.710261224700848 1.14331499160807 -0.196752539262729 -0.694258944007878 -0.482341017698535 0.00430942378082682 0.0373668513670238 0.424792302500236 0.00470485924260784 -0.39935870606666 0.055853587760378 0.38468902745328 0.584766515605315 -0.372477322191414 0.469728991881406
-0.0730889688920364 -0.261335274853359 0.366731680927161 0.478760758397299 0.82443460109898 -0.956101240142532 0.262086807918889 -0.492826228080129 -0.217557638178112 1.36240217826612 0.469120412077742 0.584499378124957 0.0630292758636592 -0.598485657871358 -0.709552114815548 0.0318304977919063 -0.224095178806659 -0.135172593501839 -1.99655647474438 -1.4408860901325 -0.743676292551894 0.649147419702123 -0.0338462416282933 -0.528595910989036 1.08261436267377 -0.877537881229532 2.00395533448669 0.41940892948413 0.0703162926762714 -0.206330664917949 0.017542113580231 0.377033314637941 0.802697220659268 -0.131474834846875 -0.529470599832325 -0.0930358340158551 0.127131215411681 0.403460899039817 -1.1506032939716 -1.06088752375157 0.308077134830865 0.124067233358337 -0.154125727767541 0.571913320436333 0.098015286934134 0.336482410762012 0.311344491039131 -0.0347882933395843 -0.0698799766953596 -0.32091696027032 0.117276953419691 0.411937821780338 0.713696730968935 0.272190723898779 0.177635882920504 0.555871701885331 0.0383736948444844 0.242504267924683 -0.248148864886933 0.0466282172765258 -0.723442749573793 0.10281681960563 -0.527952364200455 -0.592622260143194 0.0764979928112526 -0.120855670059828 -0.420706821688988 0.944571905306911 0.0796661044887985 -0.476238507499983 -0.926324024273761 0.700504921688662 0.0365101602365593 0.224717385450034 0.18961464635638
0.141033934348538 -0.031995819639712 0.151990684806144 0.130631770556121 -0.169022948893064 0.702564117146012 0.659739845030117 0.424689201316768 -1.18654421226253 -0.309686901687959 -0.826909286612401 -1.00108832311961 -0.387564033521964 0.0928638273032858 0.347792430611353 1.00665990078983 0.453452374622948 -0.446061742406501 0.952236874088846 -1.08042866900628 0.0594137924673232 -0.551288969979749 -0.930438815645896 -0.278549830060177 1.15031867299878 -0.289622022990046 -1.72158818953635 0.326395721164398 -0.0653988033121467 0.0875267341201582 0.0329394140121023 -0.255548495959792 0.197065956576065 -0.0587643321445281 0.0891961505397577 0.551541709289847 0.128776463474059 -0.0616316249077153 1.19553458403892 -0.65684375592641 0.0627325707122318 0.11193394670235 0.350386929470151 0.0761064140022197 0.178944573753056 -1.08467587212277 -0.0917487404386927 0.340706473962013 0.00300073294827456 0.076323157886668 -0.464127846540119 -0.346179064211693 -0.160746314985267 0.00440481165879871 -0.127334589566603 1.06142694091595 0.161914109437418 0.204806258641681 0.361025120410757 0.266433769786465 -0.780053783933916 1.41627473206484 -0.0651447784511327 -0.54143239399611 -0.1709353344358 0.208767555234438 0.0351572464524945 0.0919539143648964 -0.0229851361588423 -0.281158727089236 0.0156621239205803 0.552038703273997 0.00289891731572236 -0.0872801654544572 0.0675158485607195
0.227164303063668 -0.251069893678412 0.255164373346073 0.234138673893494 -0.0213676559962517 -0.647645382011795 -1.18722581135822 0.422058192811953 -0.16769086103384 -0.27737123698033 0.0882870089319179 0.0561258674444002 0.440670141864532 -0.143425059052415 0.0385151054452514 0.284453851197289 -0.071701602343421 0.40484080939312 0.32076012305856 1.20496589977953 0.308273052790473 -0.177969869048497 0.685855297669573 -0.0913373641455525 -2.01967453686794 1.24624545391468 0.536590237915666 -0.296831649637511 0.45281551269913 -0.0500410978484902 -0.541485101583668 -0.00888727059292763 0.135406563768563 0.146102604500391 0.167866724399157 -0.920225370727958 0.615751378004635 0.230711138041086 -1.8099911551609 0.393551101248253 -0.104822021924505 0.245159959007086 -0.85134272443328 -0.0427939331142759 -0.0852942463993229 1.50334483849961 -0.0213823112766948 -0.299705627265462 0.575157279617927 -0.363925066167212 0.717572666980866 -0.0423378196492567 0.413826296076035 -0.140685035829918 -0.655399825137488 -1.17220697711604 -0.548104403250477 -0.149363275843894 -0.891682026628425 0.0523028961302116 0.832855730929743 -0.807756377734343 0.732314079335362 0.394556916284981 0.614070648736974 0.733794005549933 -0.0671394392524962 -0.884751621639929 0.121292500261106 0.166004989562514 -0.343634444728438 -0.136134699807421 0.131629100956803 -0.397295911066745 0.559503126113026
-0.105084531421565 0.615232786765095 0.0977769457942959 -0.00202371425206658 0.53253535321622 -0.10754584720546 0.20492221533431 0.915308909804566 -0.304206083912415 -0.244068783389532 -0.667693548547799 0.214528880219867 0.248035222185953 -0.423820940228059 -0.333481934923921 -0.594146666419461 0.602787625456871 0.820984953770816 -0.243798817697159 -0.49730405903096 1.55318616173575 -0.0616030856773787 -1.96073665534974 -0.50871332341102 -0.908609903980961 -0.110797005472183 0.676069941206684 0.376748436554942 -0.625263940563136 -0.52601041098665 0.38178702481536 -0.224552320712411 -0.304231794930737 0.0845900216075035 0.0361964858130399 0.249432616031714 0.492658849350858 0.386285938801214 -0.446910720231469 0.579704530318225 -0.441009784416556 -0.125201089266304 -0.302999465822599 0.0783116480436344 0.160387903389868 0.647428638127347 0.0945890366326426 -0.208055360026939 0.0984230636847092 -0.0829038930259951 0.0148457990888802 -0.085323299850026 0.168167543313516 0.0405452474518982 0.0471810041704329 -0.159198511682327 -0.49715442090433 -0.0956185058062259 1.10142480078779 0.59247390756748 -0.0510813656497684 -0.30330208450824 0.0236240549641257 0.339065339662566 0.817995533670603 -0.545874229521291 0.06427703158279 0.071151386551346 -0.196089194990041 -0.255104980893751 -0.298900615281823 0.172981160163623 -0.615357742314137 0.375496567072879 -0.513363161074421
-0.880004596327274 -0.760921443870514 -0.229212699893323 0.590249133152141 -0.140543625229151 0.333295530041092 0.446593703375568 -0.0986238667377983 -0.0544587650164495 0.313675194849953 -0.15450496528778 0.308743307315569 -0.226550323946156 0.26975460491284 0.115180991206142 0.87282068069813 0.297056106827455 0.0606132114720101 1.1789787451215 0.710681599850401 0.318715582881654 -0.729474040251595 0.456174143022436 -0.7256649528873 -0.782711274787601 1.49193454567882 -0.750162925364165 -0.37548782532665 0.327849679250465 -0.267817793902699 0.0653766918363904 0.10850306841756 0.0741976280020492 0.0439699550922904 0.345800598022004 0.55809570497012 -0.431763588007863 -0.418594404423713 0.479677870420819 0.0542101394692829 0.267674840640833 -0.179515615469971 -0.447022306050983 -0.151119338395236 -0.0777681171163229 -0.837922858420497 0.10816368297572 -0.228885398630093 -0.765994742005666 0.23991182594735 -0.212841723197626 -0.0691240727567145 -0.244490958310367 0.396087750315829 -0.215767379972402 -0.630575322727942 -0.0216191097554336 0.501454074498195 -0.611194100007191 -0.230521133615692 0.566722522947453 -1.20128536750684 0.217491046640659 0.598532709034886 0.342128036164995 0.712359500906046 -0.0252685316959537 -0.0502979509215196 0.212045967180582 0.561161486794747 -0.880229567737585 -0.426574590290266 -0.00665324021099312 0.376747922334575 -0.381461009103046
-0.485991468079788 0.0610194455614861 -0.231782516174533 -0.611174559633267 0.493456148029 -0.196589531406572 0.172413717989272 -1.01474524472132 0.887217308296938 0.198295971692554 -0.18573151125932 0.648995467583845 0.491121587565429 0.175423706904142 -0.64041415810894 -0.778455329924883 0.118966167323398 0.81213624970537 -0.55475044437634 -0.202359855248413 0.0281461088664694 0.139311553231196 -1.0783363063353 1.20603984901481 0.0160454752037503 -1.86620675405924 1.54693067097818 0.0487480907371139 -0.530719641102372 -0.179930591305677 -0.194072165602737 0.287254295312841 -0.753486845812738 -0.212032597451055 0.0726721932850487 -0.346521534975733 0.420688052645613 0.572978785035566 -1.24813084288818 0.669924236497352 0.0906943315773377 0.122624588120331 0.346073391926393 0.141373319790378 -0.566785000721974 0.840868055569198 -0.0483683389965088 -0.304269333017486 0.297705310040067 0.0654756792569273 0.290852038106535 0.182550544072613 -0.103112496316324 -0.443427391469304 0.460950736006161 0.155404336708658 0.327982605215186 -0.582054774502972 1.1722612273647 0.242317091711304 -0.233229275175471 0.0890886784831749 -0.147229518433412 0.253625054679179 0.572778496202843 -0.417735656411782 -0.51246276121281 -0.134656830474315 -0.0447502844983407 0.0640173502977453 0.660192358952571 -0.253823029520252 -0.438116009304498 0.435197808725034 -0.338365742854045
-0.153031466827788 -0.387855082249361 0.0652656202372426 0.333597634506367 0.0839649867521137 0.0855876091183685 0.0527081017789547 -0.00518951193796364 -0.0268417889070317 -0.0384225457792948 0.0572460965126576 0.239585553124853 -0.126732951737885 -0.0763995196110821 0.0702139628233528 -0.430679868585622 0.19855488164705 0.38264577282729 -0.509329359409998 0.384894715599851 1.21677831292687 0.582727888962622 0.365042467023454 -0.514517071576679 0.670329699256279 0.0889359550343466 -0.686876025096927 -0.258663385829413 0.162324457289826 0.00792413584661313 0.114011911203074 0.0832602477399278 -0.850573964985475 -0.296673269764652 0.0395088363033682 -0.32928101164041 0.348658634818596 0.0136342959055823 0.00397209522045186 -1.03560279411407 -0.108011730857441 0.300430163761755 0.336817939551105 0.166052040726042 0.148875794936523 0.727527716164675 0.257060303837083 -0.0262368086459324 0.23144853004654 0.00496016965453798 0.0532212937046471 0.118019230518626 0.0677719303031993 -0.0465030046173012 -0.55909689202355 -0.718339883767572 -0.521770921175657 0.0040116901886666 0.205876351224212 0.0961314406217351 -0.00905490643238226 0.473224147711999 -0.0909478422179854 -0.641611777342344 -0.781014604688581 0.409470078241863 0.299016829084635 -0.379448607699041 0.229769857660345 0.0663660518213926 -0.171621304404611 -0.494284299929128 0.173657102835289 -0.0244311238292301 0.277960790630437
-0.155405879369757 0.906733770974059 0.0141086641936096 0.306224141740451 0.545286475642467 -0.185222175986376 -0.0813967131320027 1.18769375189167 -0.289392166486253 -0.192047937130304 -0.581606631453632 0.440748046250045 0.493391613373014 -0.0901898813978745 -0.418936360967385 -0.0734733486159392 -1.09808699638932 -0.31510832701118 -0.910150765308955 -0.670046620944561 -0.271882191678924 0.062162043215683 1.14763392846568 0.47977480095989 -0.0390565794910971 -0.864923798530938 0.128834056155099 -0.0322706704255663 -0.323837989061799 0.142688952597877 0.221641319218078 0.289890703131503 0.114890970919478 -0.372223554440583 -0.522963912425763 -1.16123094339469 0.722407881086362 -0.118961282229917 0.0842814893876484 -0.650718362921552 -0.458553440657886 -0.0470318802641696 0.450084231222862 0.178897265479345 0.0701599696848781 0.204704700119312 -0.0488077402996192 -0.193169451749478 0.495349764528361 0.181493306999243 0.461795085847831 -0.281003946758942 0.479623877282344 -0.081919418134474 0.448234837675014 0.800659365347125 -0.481537548375996 0.375727709127588 -0.488747689243827 0.341395786363206 -0.355299790850978 1.68894573778586 0.221529733398563 -0.397573075844248 -0.590381287786312 0.0424478628076717 0.328444632214419 -0.67275399117379 -0.261624009589107 -0.966269690778408 -0.212703912139424 0.454270756336113 0.398517955767555 -0.664292495044263 0.710128298736127
-0.432049751641779 0.224009561115649 -0.217751499256254 -0.519179507639057 0.565062362494449 -0.200912067806743 0.224620454910962 -0.617431850162113 0.788490854596038 0.0476574293399259 -0.274206981955533 0.690353954545244 0.515889011514302 0.325265721909178 -0.625083963434887 -0.401640044722306 0.483462018097342 0.666450163701783 0.0991650836734609 -0.17833985060214 0.31510986967228 0.20825307775783 -1.26176591012431 0.859727344618027 -0.412457955680977 -1.18309456493436 1.01709008959222 0.00748602009441881 -0.630253677888743 -0.288335186523066 -0.200591194298094 0.351982298156986 -0.799013345954198 -0.117664161355609 0.116257511543253 0.208350522517267 0.461627450008376 0.413412862901429 -1.06676377698889 0.693414594166207 0.0580518798268459 0.166414566084372 0.236637270653954 0.1257433346427 -0.592694250994493 0.512717300294191 -0.0578189380008553 -0.211615050513518 -0.0299409950554767 0.00135857020809552 0.326967791322046 0.0434914730413317 -0.113441383706525 -0.284432511052082 0.313519128968743 -0.255897908698778 0.159533012030686 -0.614894172653804 1.10859123292447 0.293900593548887 0.0616853609360068 -0.420173575169005 0.0145295535635287 0.255614830387061 0.628121720249544 -0.701233314837703 -0.384883916972156 -0.20468850217777 0.0460083246248001 0.0750730881758882 0.113721376696044 -0.0790770650590584 -0.643550131013584 0.682072692654149 -0.48601486510646
-0.0212928369329368 0.215136945803165 0.122192643012533 1.45490039488887 1.09115993383321 0.803226610526503 -0.331168714605557 -0.798672160741075 -0.240489809639212 -0.438012908121029 -0.602600963463859 -0.247869900338147 0.411416916549149 -0.0832445640187519 0.5113846982146 -0.208903309411175 0.0813044105762294 0.0525849460011959 -0.0919333455502394 -0.324499533563205 1.32497901976897 -0.476615945248939 0.125417061820203 0.155550375292723 -1.20833044363705 -0.0631580880654487 -0.167268686113004 -1.51522667139642 -0.768974134808734 -1.07155476814288 0.0680130996550527 0.248868002069379 -0.159840258699625 0.193619908790466 0.0197044102210492 0.874053781136818 0.203503481343343 -0.216883752387911 -0.244167513699886 0.759125786350957 -0.267524431183653 0.480747448782983 0.113925779291698 0.540263571103225 0.180476179114454 1.17280810072439 0.275845545153147 -0.475635069899983 0.0681437116281247 0.383307060218513 -0.0127650063761404 -0.216336879028218 0.35104950241229 -0.138632268127149 -0.25561071662413 0.0745735230899061 -0.203241486066649 0.41223169871975 -0.631123995858918 -0.207378903134907 0.456451050689756 1.54601098785283 0.199067559352376 -0.520558389551626 0.129707202337289 -0.537013441277234 -0.211556429391746 -0.902373182266773 -0.691529205192709 0.32697370485626 -0.612185773983843 0.344238139438621 -0.145567301098943 0.188892680961919 -0.651114826824066
0.0449361751608035 0.064980742154243 -0.0786008969997486 -0.707261263083123 -0.0524679608678341 0.425624825273479 0.201463826259917 0.0833335241421434 0.268146637827028 -0.683519194544903 -0.111628756914876 -0.200212985218588 -0.221401949637507 0.0802368890955306 -0.574601150291638 -0.259928110820636 -0.736622731785639 -0.8803043868009 1.08878115041813 1.33819885405921 1.7603544916306 -0.770030086331188 -0.486250378034283 0.27639318984339 1.06998356781327 0.0445736498024737 -0.0980625952078451 -0.517971089777958 0.0266085899708579 -0.386389554205049 0.11218051536805 -0.754544339996292 -0.238461981624214 0.20878606716763 0.784640629602429 0.512440135516687 -0.927194085133753 0.356103517283701 1.19592693417851 0.659875856317036 0.0123639144903288 0.0207012264013646 -0.48361474154617 -0.225213093883268 -0.322969213752723 0.882772387449558 -0.503879909076806 -0.0643335958230968 0.331448450484892 0.377801816975564 0.396989692838539 -0.474821059059932 -0.538617551710298 0.112352007860253 0.0791138318152578 -0.244118148544709 -0.362229681619108 0.105615463949899 -0.168140803854462 -0.807590541666171 0.35809380721195 -0.465085839082769 0.351080098524092 0.664843996387254 0.558020628796622 -0.0779817756785726 -0.216097509447647 0.0948350910779771 -0.181723420613218 0.415243744516086 0.384959764476203 -0.162401333234606 -0.961299750936908 0.0799116447137666 -0.884145355827914
-0.0846468429579935 -0.260774003323406 0.0439239323694954 0.268550557924855 -1.43029032237213 0.758120485534596 -0.773227765679804 0.754917663982316 -0.723138588227053 0.272234689740109 -0.454283097624908 -0.358062182659414 -0.15003124809988 0.625925742174725 -0.451589868455755 0.980093991109384 -0.944308624479302 -0.96162808064087 0.180981914844833 -0.00349567005095886 -1.39149573815772 0.862290476034474 -0.0360872139851745 0.0480042709770797 0.884839296212404 1.10706348421583 -0.966083285895579 -0.446988881727165 0.095473495662894 -0.737069332173879 0.44819292871515 -0.0634046567311496 0.412076918389456 -0.728558727999358 -0.381675953216212 -0.411985387164232 0.15502278519677 0.219440456049778 0.544708234840422 -1.61597606801884 -0.0930674585683902 0.28069567164927 1.33491941367234 0.229558770199927 -0.186614427628472 -1.56258893824602 -0.453274968596531 0.258409618078582 0.388836728928867 -0.1417543570819 1.18760659153956 0.227014407826855 0.154736107342488 -0.0489442658069051 0.396182109753068 1.45870948225317 -0.0709187018355386 -0.588043642000543 0.865645763925399 -0.155992347697665 -0.642065833925898 -0.0339046056398825 0.564333455125041 -0.28614177955008 -0.843136024495317 0.950169708215817 0.340286613032826 -0.0189194528317011 0.690426716727093 -0.493331706700325 0.102300799467922 -0.124298632523228 0.632156293244517 -0.455394842057119 0.849344978309718
-0.303451465524686 0.25580123526989 0.0448675267418857 0.192019912120334 0.408657610062911 0.125728679362257 0.727620790050998 0.250347414063584 -0.335319758513525 -0.362378291305005 0.134942222777681 -0.872527832199451 -0.553685751107657 -0.730584242022707 0.118027200934306 -0.00907367547575678 1.00632899998403 0.46854962747101 0.131835817544106 1.80258046835016 1.52137289032612 0.884203976949686 0.694354074775666 0.667838815801315 -0.00532732299616561 -0.396657506481828 -0.1094122100254 -0.587800672877407 -0.453763477944635 -0.074002738483174 0.0364497393435043 -0.519950323968328 -0.357242515395333 0.292919203979564 0.00866409895389907 1.21071462636598 -1.08371890802085 0.387320550178462 0.937867500169459 0.838617313025355 0.296339026526475 -0.936853200496685 -0.228171917871678 0.18658306018612 0.0558433033530495 -1.11763894027173 -0.366193035093331 -0.178501058687014 0.712702228780269 0.693218161986233 -0.00980283995534779 -0.146058638659062 -0.421166277586389 -0.447051873722052 0.0999029898992811 -2.05503824279756 -0.343646528907049 0.258520432567547 -0.823268863528294 -0.557220501906464 0.112130635992507 -1.06841262459384 0.0163434659060938 0.0694236061201572 -0.234008833250971 -0.848816359773033 -0.256453780914884 1.13577343571408 0.0866150214104862 0.418278930228911 -0.524371847789036 -0.0423547889213487 -0.120865697356973 0.332504916227713 -0.141017222186629
-0.867787748861743 -0.70497606777473 -0.226870426124256 0.197769410037335 -0.128202336434945 0.188766182751779 0.455680234360485 -0.440393234197212 0.267201757903721 0.317070334819276 -0.031006716764893 0.499974405393806 -0.052269471806394 0.240816596682075 -0.0104700408807846 0.509534276226018 0.352465665301425 -0.19363456407091 0.779385811677929 0.845828739444102 -0.551983938804973 -0.521110662225167 1.14839831704037 -1.05213549311501 0.332858956949997 0.648713931933227 -0.945252218851692 -0.102330881359358 0.471849122452177 0.287917896695712 -0.0628179312930584 0.141927135125018 0.277680026310369 0.0201713223137634 0.380134320557669 0.476619030571138 -0.721093276719596 -0.452170166139266 0.883956636953436 -0.187717173204271 0.283207381029074 -0.187233806059831 -0.362446682613739 -0.130194940354843 -0.150633400148964 -0.748021711758371 -0.000366382011077992 -0.24793572054505 -0.756859617196121 0.19075827245131 -0.237034762997201 -0.053808790473288 -0.426280199130488 0.344870373379141 0.0287703723913096 -0.230904227788679 0.144276350869032 0.578937570641702 -0.799013860174564 -0.263378272369166 0.287901955864353 -0.773905765232935 0.0447356292178976 0.248399547315565 -0.181652715312835 1.09052358612976 -0.168467848007508 0.176652950690082 0.245752597979391 0.624801399343536 -0.591415384943194 -0.546558142608637 0.223450346467162 0.0097298206633154 -0.139153430468521
0.151263062987652 -0.222402879580754 0.185389040495281 0.644892246169954 0.158359046934137 0.431333699781532 1.31675792166074 -0.963126004568267 0.537357968922739 0.143143780511981 0.450782799590651 -0.0814116255226291 -0.237388289499118 -0.082684835149898 -0.339863409671258 -0.969239570504697 0.565089101953503 0.458012480832407 -2.1941759895449 1.25653988854033 0.0270284509000441 0.825592625364169 0.317800270629417 1.54653060753311 -1.20783833474638 1.00790174297475 2.00080393497105 0.197688420329623 0.0101509671434177 -0.0522504456528362 0.0950204675200734 0.0451896858014511 -0.0996713336242065 -0.263217578504659 -0.16453123399234 -0.0990534978539466 0.0806701197542439 0.365349199472027 -1.40782197768154 0.605536904645964 0.414401194445698 -0.470789314276975 -0.0559803430807018 0.351899251567808 -0.345614964469725 0.813934221216576 -0.313579549861798 0.141028792144873 0.272730912393709 0.338418707551787 0.0280509780986807 0.827206505984195 0.145442088439718 -0.759381610983254 -0.164425304596856 -1.32387550286262 -0.229370051325449 -0.0137497383778448 -0.555162077779664 -0.165099190387056 0.413562243917875 -1.55149000585709 -0.0206629169840659 -0.610705333548904 -0.608535837822956 -0.53088110629743 -0.352094141086683 0.314651442215612 -0.00892275179821097 0.107136013573419 0.576449001178387 -0.427079811800279 -0.426321336759802 -0.533036203853118 -0.317661431130482
-0.073872126510102 -0.202244155665968 0.0643582784006852 0.0809889363814275 -1.22631015874911 -0.0196676434648498 -0.630072415209578 0.0303989082917784 -0.134954049846109 0.0311219021269723 -0.183535018964134 -0.534160032463941 -0.265832646178114 0.507130810233347 -0.529182636427127 -0.0127670632576061 -0.391092099456008 0.407043986553069 0.0992597002208831 -0.0473409267043912 0.0177190053862813 -0.182314516924424 0.74332302316016 0.165733738319225 -0.00690777929237362 0.371877227023795 0.032676647404859 -0.0621646143175151 0.0485421454803606 -1.10749980019674 0.426484858836325 0.0525116695989803 0.25678879548361 -0.290207719987404 -0.556056306996877 0.5202601417391 0.0848054799410357 0.37707085272469 0.752843041913974 -0.207707232838869 -0.409463907597466 0.654669117996798 1.21975436329755 0.320220448783997 -0.142899268727745 -0.568084949808297 -0.0933649350503672 -0.226575263633928 0.841671524891737 0.0711441874662161 0.794799310051343 0.1883293525505 0.00102689807175123 0.0549416179405228 -0.0245756197521956 0.545179260696067 -0.237164603639723 0.251608539512242 -0.812674381318834 -0.79660139532548 -0.786430887808138 1.24090064742606 0.27191304490091 -0.293614944135338 -0.564443498283456 0.659097583792452 -0.107344272821821 -0.093466236462553 -0.503129661562192 0.110169399514961 0.249591253014756 -0.240762860653784 0.177702988678322 0.0210745503873893 -0.180247351051395
-0.144406962842104 0.186885421761578 -0.163703596312578 0.102045231945809 0.103019936650368 0.0640870271573959 -0.165358357451735 -0.194877948916926 0.278688669559112 -0.386367956949659 -0.374083746616126 0.244949385767035 -0.339002347667679 0.502979766325379 0.104082315927402 -0.810156501294633 -0.129079596380067 0.576695312733905 -1.80650756928855 -1.27301525197041 -0.521096006944724 0.705931489215548 0.419930863156052 -0.758692555692244 0.206674421232904 -0.63420854672692 0.716287887395352 0.320450562397972 -0.341574477940538 0.0411420001871348 0.544908009452778 0.750371955943117 -0.162635560611513 -0.825014127451941 0.202350599281818 0.0315016538675773 0.995956660972871 -0.1005735332571 -0.982935315744067 -1.08914830375975 -0.290379983810156 0.346834695178886 -0.0398459077535599 0.269996031374876 0.222249899021742 0.559123117262238 0.511710971037097 -0.037342940119985 0.202769945990637 0.0111742656726039 -0.236755541338232 -0.208154090337293 0.493782420851497 -0.672609238140642 0.839390443346275 -0.0617131288357937 0.154161723193191 0.0931829010406527 0.123864373423782 -0.0950214959608062 -0.253808888460176 0.397170955517704 -0.534016307871525 -0.484942715642464 -0.387832456553238 0.269612422981523 0.54129715403974 0.474333835262744 0.107889860630598 0.223240801667843 -0.837812815262082 0.124091401715559 1.21774299033428 0.177580090010747 0.88253481764027
0.163965334479089 0.0340609286312758 -0.133354053175977 -0.279236828469721 -0.133590851654715 -0.916885509448026 0.458371663758355 0.25345150530551 0.0899697950810445 0.197114550400692 0.3548614179886 0.472973208173183 -0.466073399296489 -0.143301646164473 0.0545274134353673 -0.26108407820436 -1.28775023657033 -0.168963556440742 -1.04617465062741 -0.365868562042116 -0.685105821485508 0.020343843246699 -0.746589350927693 -0.709127111682697 1.08354844396938 -0.976799638331881 -0.326258167216379 0.190364893870995 0.0600758511890957 0.717062303267189 -0.212163723644494 0.416483529819537 -0.282545836527668 -0.125322445272781 0.0203620980697071 -0.663541990419465 -0.0830123935233109 -0.0474463418795083 0.391192372427461 -0.149949487061619 0.137589429224038 0.216306282916416 -0.207462206834268 -0.154324473939165 0.238392304764563 0.917465550021354 0.0167571561908829 -0.113431870629746 0.475945401891121 0.152875915166945 -0.00302104465274835 0.0803929549767406 0.276840818672363 -0.102662296385519 -0.124565512893403 0.722557519212992 0.412347912522562 -0.129688433293914 0.90767582268535 0.271009045496734 -0.497533915534752 0.910228412584285 -0.153076203999667 -0.03584835862497 -0.200008325512751 0.310215777334827 0.0385307891664273 -0.00547721823297857 0.228497933583992 0.0293159602000868 0.432512292861378 0.327334173333124 -0.0372444669198146 -0.635176823676899 0.528145453948048
-0.117593713165409 0.736338110812822 0.082562707812872 0.132621546264004 0.586126114254144 -0.155228216233157 0.0604648588962964 1.06430426097628 -0.331466448197717 -0.15662098209562 -0.706067500502467 0.281454918020297 0.353765100167382 -0.367704071640071 -0.41895590134131 -0.573759885772166 -0.13720942037325 0.643792328806171 -1.01451333133606 -0.844993645569028 1.1607989982869 -0.117946468336777 -0.99931554840636 0.096947508343252 -0.872239354573886 -0.843402904865491 1.05532211672575 0.198432240089657 -0.628309924903656 -0.455096337134409 0.364441857635469 -0.0457843816552219 -0.275167031379649 -0.164273866698944 -0.243012831867078 -0.527789870564665 0.854072977468815 0.442873576134664 -0.661531131676559 0.248776985064521 -0.490990718482174 -0.0761066711124029 0.109231204456418 0.146429648653438 0.170119266714283 0.896352947326849 0.0646025330747372 -0.335602322604876 0.427672193662401 0.0592710963156402 0.232002088270997 -0.117400880528 0.399827160820473 -0.102812705842698 0.282656908126816 0.446452292774801 -0.490123742944381 0.0367978665315742 0.673047353892836 0.561782150777023 -0.299329732177605 0.862771014966898 0.0658538883364331 0.116256997322887 0.438718418463765 -0.408342907198659 0.173956893308914 -0.335810067632911 -0.342325496785703 -0.580331364944897 -0.262035900102613 0.287520147242282 -0.241490996692642 -0.0161244080299966 -0.0576075934302545