2.51656112076255 3.12965472714006 4.11237516479931 3.12965472714006 1.80608080434674 -0.513493562020151 4.11237516479931 -0.513493562020151 -6.39210951342325
3.56771450524963 1.4646406916288 4.53162333649252 1.4646406916288 -1.12163936726445 0.0525768453405209 4.53162333649252 0.0525768453405209 4.58420018183304
2.14794148249501 1.14102943306411 -0.528216157078504 1.14102943306411 -3.00835608211117 -0.231094568721846 -0.528216157078504 -0.231094568721846 1.19673973088099
1.43007710464277 2.87689424228303 2.74058254501775 2.87689424228303 -0.662427020043557 -1.73857199845367 2.74058254501775 -1.73857199845367 -3.26669786779603
-4.27473064385387 1.5602881577137 -2.59283179149483 1.5602881577137 -1.67501522813383 -1.20004515659451 -2.59283179149483 -1.20004515659451 3.71027345738685
-1.19623268815583 -5.17072874079477 -0.269281817247199 -5.17072874079477 -0.0569634613407536 -0.0388387236414229 -0.269281817247199 -0.0388387236414229 2.6850504277437
-2.57665827200666 -1.76663097092672 3.30182557011632 -1.76663097092672 3.53326194185345 0.0102860609660945 3.30182557011632 0.0102860609660945 -4.86016380647963
-6.10102094506858 -5.04921122925925 -2.22427590774641 -5.04921122925925 -0.619020181872822 -1.531812653448 -2.22427590774641 -1.531812653448 -7.26824120326098
-6.46238508687643 0.44334038605889 -1.04444604463423 0.44334038605889 -3.64657452677267 1.44185476907441 -1.04444604463423 1.44185476907441 -1.44584882660647
-3.64506680361117 -2.25931744104002 -1.29735259272609 -2.25931744104002 -5.4702001104122 0.722773588733171 -1.29735259272609 0.722773588733171 5.64439374510688
-6.24426690791717 -6.02378837901215 -1.75595399806498 -6.02378837901215 0.188981596204303 -1.33599489538875 -1.75595399806498 -1.33599489538875 -8.00022090598215
3.15443460251995 -0.134826640268998 0.111931550411998 -0.134826640268998 -7.69275019195187 -0.389216527568994 0.111931550411998 -0.389216527568994 1.04299853792998
6.18200611550204 -2.96191940788055 -0.0320207503554654 -2.96191940788055 -2.53964576256785 -0.540350162248479 -0.0320207503554654 -0.540350162248479 -2.78580528092549
6.49906878200529 3.82742524163039 1.34715296333701 3.82742524163039 1.05505998437048 0.783111348780955 1.34715296333701 0.783111348780955 2.1831432134826
-6.49178238595603 -2.30289528064495 1.63011457126113 -2.30289528064495 2.88744245437188 1.68084885426385 1.63011457126113 1.68084885426385 -4.01242003399729
-3.33276153807175 -1.58887468675513 2.21409041715309 -1.58887468675513 2.5086135298199 0.284188968362707 2.21409041715309 0.284188968362707 -5.76645252168693
3.25887933559591 1.88473815726521 0.345888276052418 1.88473815726521 4.60949069922916 -2.54357296879363 0.345888276052418 -2.54357296879363 0.536479775101709
6.9929560887024 4.57752685146409 -0.363693914225914 4.57752685146409 0.443957398744736 -1.13121348493715 -0.363693914225914 -1.13121348493715 0.381251551464406
3.42020135855174 1.97708679809491 -1.86195523756328 1.97708679809491 -1.37760867256814 2.85446869042217 -1.86195523756328 2.85446869042217 -1.7527787577488
2.42046372176098 1.04446374811313 -3.28046370529089 1.04446374811313 -5.07773903318962 0.511014482967045 -3.28046370529089 0.511014482967045 0.0722898536880211
-1.55264792851482 -3.90106032122673 -1.25974439609049 -3.90106032122673 -2.82276059123981 -0.0673937331241827 -1.25974439609049 -0.0673937331241827 4.46094671948917
-0.0759959940865965 0.904352329630499 3.76433490708941 0.904352329630499 0.841022334558335 -0.861287932981427 3.76433490708941 -0.861287932981427 3.55407932344983
2.88882237651735 1.84789461558969 -0.997307930945937 1.84789461558969 -2.19288781635429 3.15648951504161 -0.997307930945937 3.15648951504161 -3.87819942928479
2.88641222475888 -0.197208288648123 0.123504180769531 -0.197208288648123 -1.49001818089693 1.09560160360068 0.123504180769531 1.09560160360068 -0.430272629777722
-5.57901706744216 0.648722914818855 -1.02997238168163 0.648722914818855 -3.16975996533028 1.6507503094006 -1.02997238168163 1.6507503094006 -1.21760300935231
-3.37868953629909 0.0595934504101834 -0.10623180290511 0.0595934504101834 -2.34746374224462 2.04172343144454 -0.10623180290511 2.04172343144454 -3.50046745670251
-2.82001186469941 -0.618457774465111 -1.09688737357963 -0.618457774465111 1.18634981894251 -2.57107288629835 -1.09688737357963 -2.57107288629835 -4.30781122779944
0.235168049270289 -0.33428846673132 -2.27005191361734 -0.33428846673132 1.58203960418195 -1.94936821006694 -2.27005191361734 -1.94936821006694 -5.22034198628097
-0.330160479146095 0.636738066924613 2.55677847243494 0.636738066924613 -2.70220630253501 1.60953233583722 2.55677847243494 1.60953233583722 -1.17128360458972
3.2259664128161 -1.42445270176295 1.17706875915986 -1.42445270176295 -1.62994097666713 0.434916931350594 1.17706875915986 0.434916931350594 -1.93318580953544
3.16323294436129 -0.300873056404544 1.90281878915306 -0.300873056404544 -1.71375666587183 1.54908965527204 1.90281878915306 1.54908965527204 -2.06138702158248
-6.87992473950597 1.22927249788265 -1.44267242518235 1.22927249788265 -2.72974073670867 2.44743041621844 -1.44267242518235 2.44743041621844 -1.46045575245733
-1.97629511309369 0.804410369161717 2.5230252804348 0.804410369161717 2.66867061189862 -1.21669869207469 2.5230252804348 -1.21669869207469 1.99422069235077
-1.21463744829099 -4.88962793683027 -0.58012534843749 -4.88962793683027 -0.756234829213156 -0.0906445856933578 -0.58012534843749 -0.0906445856933578 3.11817374785151
1.94515057762101 1.27538237081483 0.50296769553261 1.27538237081483 -11.1371418296506 -0.138572732442658 0.50296769553261 -0.138572732442658 -6.43849973515979
-0.383305591547925 1.44318413998917 -3.46261292767455 1.44318413998917 -4.64339995130205 1.49977959645933 -3.46261292767455 1.49977959645933 -1.29397793656783
3.06300508251681 -0.394651527672573 0.496497083200978 -0.394651527672573 -7.07571997033599 -0.224060222162493 0.496497083200978 -0.224060222162493 0.157860611069029
2.90219608065323 0.437917104076619 -0.533462654056973 0.437917104076619 -1.32768503826866 1.42920218512279 -0.533462654056973 1.42920218512279 0.117441405184184
-2.69112442899529 -1.53111225950552 0.228369286163535 -1.53111225950552 -0.651371486670991 1.70498432965275 0.228369286163535 1.70498432965275 -5.56909645576074
6.68356504219438 0.491267273583724 -0.912630903495456 0.491267273583724 1.99419561253156 0.59029743545238 -0.912630903495456 0.59029743545238 -0.570879756654604
-4.48290832905406 -1.07999236072737 2.81174026603297 -1.07999236072737 -0.116981764411476 -1.73801478554193 2.81174026603297 -1.73801478554193 -2.23936520444825
-8.48843072295566 -0.458458615151451 1.18683225913666 -0.458458615151451 -5.69997031478341 0.986380656841001 1.18683225913666 0.986380656841001 2.84403114940273
-3.01163286354203 -0.578164475235863 -2.71176397526671 -0.578164475235863 2.76353989842217 4.65983308399054 -2.71176397526671 4.65983308399054 3.8529916148181
-5.52743943341156 -0.527256630219829 0.040857524850983 -0.527256630219829 2.00007312127669 -2.96508894632848 0.040857524850983 -2.96508894632848 -0.986417385688019
1.29235078774656 3.16386618777954 2.61820696628655 3.16386618777954 -0.691646995664362 -1.54842770309634 2.61820696628655 -1.54842770309634 -3.0513838044016
1.92353907658518 1.14841702594641 2.79139045230038 1.14841702594641 0.953447675785733 -2.72006020224159 2.79139045230038 -2.72006020224159 -2.80327882731017
-0.227139772404298 1.36031485917685 0.618324935989479 1.36031485917685 -8.76254766430805 -1.24926874822364 0.618324935989479 -1.24926874822364 -5.36049862874144
-3.66419447580545 0.96147726985981 -2.36228984723929 0.96147726985981 -2.449696871772 -0.837267287629117 -2.36228984723929 -0.837267287629117 3.44567691447367
-2.68152439351835 1.28742265186098 -1.31651694907818 1.28742265186098 0.164867684230785 -0.504301151764753 -1.31651694907818 -0.504301151764753 3.50101376513607
-2.6655466579381 -1.96422321686895 2.29029979832546 -1.96422321686895 -1.90470130120625 1.22925695390349 2.29029979832546 1.22925695390349 3.42639201466995
-2.81486384350566 0.417345743358883 -1.07666322089925 0.417345743358883 -2.73494657350077 1.74930024344043 -1.07666322089925 1.74930024344043 0.046618407502854
-8.13911444500339 1.32642197901931 2.12829458546047 1.32642197901931 2.79473026373598 -1.51990330497026 2.12829458546047 -1.51990330497026 -1.82087425644952
3.04466988693435 -0.676593308207634 -2.60294495641663 -0.676593308207634 -0.846819013138854 3.74281075272822 -2.60294495641663 3.74281075272822 4.26857115783224
-3.37174776605004 0.961769949077514 -1.52372791008585 0.961769949077514 -3.56721140466164 2.15232120243906 -1.52372791008585 2.15232120243906 0.555294427873854
-1.85886129739736 -0.698292071844967 -0.651479195520165 -0.698292071844967 7.79239337156604 -1.81790003061315 -0.651479195520165 -1.81790003061315 -1.04158649822685
3.52016225706993 0.184877222869535 4.29214957959272 0.184877222869535 -0.129913724178592 -0.357262741491128 4.29214957959272 -0.357262741491128 3.04048081394897
-6.19333561804524 -5.73145974144525 -1.9524752965363 -5.73145974144525 -0.083977432109088 -1.43286493536131 -1.9524752965363 -1.43286493536131 -7.77053676484405
-1.31907485427215 -0.99943555511405 1.90883187102864 -0.99943555511405 0.290376546418271 -2.23297313214671 1.90883187102864 -2.23297313214671 0.481709929717132
-0.277290552821928 -3.67246228225577 -2.58076719240566 -3.67246228225577 -5.60257920111076 0.29912445461893 -2.58076719240566 0.29912445461893 2.15937288772352
-2.073457246019 1.16659959522235 2.64220253812357 1.16659959522235 3.09451178617523 -1.0725550981027 2.64220253812357 -1.0725550981027 1.99956514113928
-2.97925884951223 0.705015452938009 -0.977924660526915 0.705015452938009 -1.44641880022121 -2.14233727957292 -0.977924660526915 -2.14233727957292 -0.309297101934094
-0.407138080927863 0.672662916315599 2.64934780197986 0.672662916315599 -2.85193341712754 1.76623186798657 2.64934780197986 1.76623186798657 -1.85080644518415
4.36280025039297 1.09215497597654 -3.74785686249854 1.09215497597654 3.04367878740176 -1.22988677578886 -3.74785686249854 -1.22988677578886 -3.59654587115543
-1.36644985969577 -0.987888797996371 0.0959367074169705 -0.987888797996371 -5.21428969231156 0.00518576796848489 0.0959367074169705 0.00518576796848489 1.8020543690485
-1.75925903711701 0.0920020669920888 2.31127143906955 0.0920020669920888 1.79740623562593 -1.55057142174472 2.31127143906955 -1.55057142174472 1.70316021578038
6.63857670403975 0.600152194718631 -1.09153894314521 0.600152194718631 2.05100555865008 0.635112516741076 -1.09153894314521 0.635112516741076 -0.00776896044943212
1.96224674432598 1.03338660264141 2.68205396409689 1.03338660264141 1.36834639798034 -2.78182922228296 2.68205396409689 -2.78182922228296 -2.47775224495399
1.7423988445207 2.53050699240362 0.75537522161302 2.53050699240362 -5.07360357183412 -0.13093170507959 0.75537522161302 -0.13093170507959 -2.56323991867352
-10.1780714682115 0.831316603867897 -1.34477685919807 0.831316603867897 -0.00444554333619196 2.34502410984126 -1.34477685919807 2.34502410984126 -4.62114229797155
-3.78007352583633 -1.43694575810902 1.57157851382374 -1.43694575810902 1.73469127555503 0.277032785797594 1.57157851382374 0.277032785797594 -5.88241578815079
-5.94071913198148 1.11717063322661 -2.37891628957666 1.11717063322661 -1.18069602217479 -3.03169442428554 -2.37891628957666 -3.03169442428554 1.03612099905134
4.46726084663886 2.6157152685872 0.686499984284379 2.6157152685872 0.901970782271447 1.22517697925205 0.686499984284379 1.22517697925205 1.80394156454289
1.76870950731077 1.93499843534853 4.00101238975712 1.93499843534853 -0.597128423408336 -0.304863034735902 4.00101238975712 -0.304863034735902 5.66138214092208
-1.14122296447381 -1.38549157844508 -0.783613713619856 -1.38549157844508 7.16390991054961 -1.36790423823915 -0.783613713619856 -1.36790423823915 -1.59263136309273
3.25318554542223 2.77682623341398 -2.43601631913165 2.77682623341398 3.05373428876837 -1.66919401199641 -2.43601631913165 -1.66919401199641 0.112312358115768
3.69161173350957 0.233290852673513 -0.239771154136666 0.233290852673513 1.89656822821615 2.27242571307904 -0.239771154136666 2.27242571307904 -1.88576772577757
2.94693249396091 0.736235666958498 -0.849655756192645 0.736235666958498 -1.23966167706796 1.59584055378572 -0.849655756192645 1.59584055378572 0.28255531002191
-5.27408860677341 0.70840009663434 -0.985773655598208 0.70840009663434 -3.02117675015321 1.72410615068189 -0.985773655598208 1.72410615068189 -1.05960690510658
-9.47960940686821 0.746904634897541 1.5850011147535 0.746904634897541 1.24845978216885 -1.91285750972306 1.5850011147535 -1.91285750972306 -3.7041258928349
-6.07354443253651 0.827811370595179 -2.94235341272557 0.827811370595179 -0.456723514811133 -3.03018485788156 -2.94235341272557 -3.03018485788156 0.643365335767606
7.01902330860675 -1.6064736819183 -2.61378696682577 -1.6064736819183 -2.75452934196255 1.10985415822141 -2.61378696682577 1.10985415822141 5.27984967298806
3.88038449193928 0.0604623070530327 -0.509610873732705 0.0604623070530327 1.39063306221975 2.47463585295627 -0.509610873732705 2.47463585295627 -1.43813916061856
1.22399998261166 2.44364409339907 0.609822055393707 2.44364409339907 4.38200705518621 -1.02145194278446 0.609822055393707 -1.02145194278446 1.08461208423595
4.71340049933401 1.80845156687734 2.51820837866516 1.80845156687734 0.470241355178312 -1.362381496311 2.51820837866516 -1.362381496311 -3.06535836669974
-3.55106797380375 -1.51043240837683 1.89579958106202 -1.51043240837683 2.13115805565498 0.292258325593463 1.89579958106202 0.292258325593463 -5.84258015500559
-2.80998764402891 -2.65592654539876 -1.80967544024719 -2.65592654539876 -0.0238686209145313 1.79231644321844 -1.80967544024719 1.79231644321844 0.512090412348127
-2.11373920892006 -0.180187604694824 -1.4969431774647 -0.180187604694824 -3.82783155101698 -0.145536142253512 -1.4969431774647 -0.145536142253512 1.04878426322372
0.557281011786438 2.3072946868081 0.615278583148827 2.3072946868081 -7.23204498553622 -0.842225601523395 0.615278583148827 -0.842225601523395 -4.58937303824125
-2.04869562680364 -2.25122827432035 0.220708654345133 -2.25122827432035 -0.189549785496408 1.40993881540479 0.220708654345133 1.40993881540479 -6.2135977629165
-0.860275606700452 3.7723196500534 4.2235753300539 3.7723196500534 4.12576621714739 -0.386790582857568 4.2235753300539 -0.386790582857568 -3.95460026956099
3.65880815285705 0.576480647956787 -3.52681931763462 0.576480647956787 2.63783569216591 -1.31212430309356 -3.52681931763462 -1.31212430309356 -4.38086472201505
0.644082627971899 -0.810215051853539 2.50732165889061 -0.810215051853539 -3.72136629494875 1.84023607991971 2.50732165889061 1.84023607991971 -1.07347104661983
6.50612462862871 0.283381323323327 -0.469714248248254 0.283381323323327 1.81092311411414 0.438658760760766 -0.469714248248254 0.438658760760766 -1.58382986186188
2.49891593000581 1.18347998665292 -0.531947450446782 1.18347998665292 -3.13601578344789 -0.111337838465605 -0.531947450446782 -0.111337838465605 0.72781957367331
6.99783436310644 4.62675029242319 -0.188181275451052 4.62675029242319 0.429053308028398 -0.996106218054234 -0.188181275451052 -0.996106218054234 0.664907173260383
-2.09001317166143 -4.78012913518604 2.52457036576925 -4.78012913518604 2.38489126766317 1.07345973544492 2.52457036576925 1.07345973544492 1.2596985329197
-9.68778194344752 0.920382495073292 2.38953765152831 0.920382495073292 3.01824963759951 -1.37409217574323 2.38953765152831 -1.37409217574323 -3.90406377605033
5.55926923784007 2.14674877672513 1.99232463122957 2.14674877672513 0.501245587018367 2.04295549860516 1.99232463122957 2.04295549860516 -0.113919451595083
3.60815031286219 1.19604427846611 4.51143898341923 1.19604427846611 -0.950830179533725 -0.0200174774638679 4.51143898341923 -0.0200174774638679 4.21618119082717
3.61116971655164 0.887787568819828 4.46394594462928 0.887787568819828 -0.725234915373944 -0.115037262438626 4.46394594462928 -0.115037262438626 3.83124100121684
2.39532624579414 1.1208140577556 1.7379711655071 1.1208140577556 3.61072376833924 -2.90134778241797 1.7379711655071 -2.90134778241797 -0.345229646481682
-0.939499662433222 -0.450356489560879 -3.08785095474038 -0.450356489560879 1.06232415958619 4.62854420850129 -3.08785095474038 4.62854420850129 5.56157942371593
-11.429631981433 -0.0909931866483019 -1.60458716943225 -0.0909931866483019 3.20029695480125 1.34936237761384 -1.60458716943225 1.34936237761384 -6.70686365978459
3.55450232768744 0.965795698246654 -0.294649535058301 0.965795698246654 1.26746069842539 -0.0888625581921861 -0.294649535058301 -0.0888625581921861 -3.09615860648564
2.21035157393054 1.12745365120734 1.02671896072146 1.12745365120734 0.780693851265565 -1.26499524783229 1.02671896072146 -1.26499524783229 -1.25337201431469
-0.184211358203836 1.24658097195472 0.635907702292694 1.24658097195472 -8.74120746326147 -1.21377620953486 0.635907702292694 -1.21377620953486 -5.09483194813075
-0.871270384224546 -3.43933984172639 -2.25659029514157 -3.43933984172639 -4.16249426063277 0.516227702653043 -2.25659029514157 0.516227702653043 0.964931950528684
-5.59794503013135 -2.04587086245417 2.34003391619082 -2.04587086245417 4.06520069750353 1.35801590221282 2.34003391619082 1.35801590221282 -4.86364327193158
-5.78738935459568 2.19219293734685 1.0800560325465 2.19219293734685 0.772079658909475 -2.04462092497911 1.0800560325465 -2.04462092497911 1.91201998632984
-9.22905897392059 1.04150361785132 2.40429924203772 1.04150361785132 3.19351316363934 -1.35201401323556 2.40429924203772 -1.35201401323556 -3.32504881723961
-6.12375930332886 -2.13922735677457 2.31381306047828 -2.13922735677457 4.22762596436958 1.53149231223634 2.31381306047828 1.53149231223634 -4.9038693230194
3.0713633736853 2.45859750027629 1.07736294955928 2.45859750027629 -1.47666530149383 1.18535037806988 1.07736294955928 1.18535037806988 0.64792457106362
4.0902663327641 -0.373215229730058 -1.35263554358813 -0.373215229730058 0.110022986799034 3.01160959944024 -1.35263554358813 3.01160959944024 0.442249260662785
4.1640731109088 2.37663314279214 3.61460082441368 2.37663314279214 0.814278207697587 -0.86503267592806 3.61460082441368 -0.86503267592806 -5.88972503074488
-4.3492146492068 -2.19152527506411 -1.09576263753205 -2.19152527506411 -5.42155243225479 0.952610749018365 -1.09576263753205 0.952610749018365 5.00511057476042
-7.619882026305 -0.275762956945027 -2.68262204516123 -0.275762956945027 2.0075543265598 -2.14653885686009 -2.68262204516123 -2.14653885686009 -2.82160657546152
0.914665186206667 1.82716291936545 1.13141049099498 1.82716291936545 6.15339920294011 0.253592006602322 1.13141049099498 0.253592006602322 -2.06991766072836
4.07300058850041 0.826630895998654 -3.66356603672643 0.826630895998654 2.85051827751649 -1.25546992889936 -3.66356603672643 -1.25546992889936 -4.01090624889488
-1.14065251550574 -1.20901353955146 -0.816425944317462 -1.20901353955146 7.48846189117978 -1.48636397996552 -0.816425944317462 -1.48636397996552 -1.53519328285532
-6.28892961561807 -2.01835334851242 1.22437598454064 -2.01835334851242 0.235834860585678 -0.414676296529816 1.22437598454064 -0.414676296529816 1.33639754331884
4.5142727258675 1.90533709297027 -3.64591970689428 1.90533709297027 3.41526343622952 -1.31028268041496 -3.64591970689428 -1.31028268041496 -2.16894425944428
4.13632103599848 2.37136156817899 -3.29355773358193 2.37136156817899 3.42723742982731 -1.45304017658026 -3.29355773358193 -1.45304017658026 -1.17793123648107
-5.06525608247098 0.683739801766055 -0.681746391265279 0.683739801766055 -3.04393783468445 1.80802332420353 -0.681746391265279 1.80802332420353 -0.422603026164442
6.33717903549876 3.57552964269294 1.52949012904483 3.57552964269294 1.14144815231846 1.07593457183219 1.52949012904483 1.07593457183219 2.13423087199501
-6.44547025910516 -6.59243537901961 -0.419900342612714 -6.59243537901961 1.19934035358756 -0.296554616970229 -0.419900342612714 -0.296554616970229 -7.9991015267722
-0.283886571115294 0.869402624040587 2.53723622934294 0.869402624040587 -3.1385237584413 2.2277210094464 2.53723622934294 2.2277210094464 -3.6432109959796
6.64591221190287 4.05398128488282 1.1424627581234 4.05398128488282 0.943664172458757 0.483156056298884 1.1424627581234 0.483156056298884 2.14148856203307
-3.47793826402089 3.0905546874898 -0.0446981049843565 3.0905546874898 -1.97523054407061 -2.57971920195429 -0.0446981049843565 -2.57971920195429 5.52979413092182
-4.89929666510835 -1.44663247254394 -0.0468334253701276 -1.44663247254394 -0.228963412920624 -0.130092848250354 -0.0468334253701276 -0.130092848250354 -5.82555774465087
-3.16113293050743 -0.72091464699021 0.114101598804206 -0.72091464699021 -1.4340496395165 1.91638821627973 0.114101598804206 1.91638821627973 -4.60814866079714
-6.73061240128165 1.06134900292761 -0.991465941006446 1.06134900292761 -1.18801205265971 -2.78877093979126 -0.991465941006446 -2.78877093979126 -0.229303796928804
-1.21152038695383 -5.40265608455694 0.0724841257151866 -5.40265608455694 0.610937631028001 0.0388307816331357 0.0724841257151866 0.0388307816331357 2.28583867880392
0.297782390659136 1.37339292243653 1.56079046138582 1.37339292243653 -10.704763526281 0.410734331943636 1.56079046138582 0.410734331943636 -3.80699383920258
6.50245709446068 0.707168922134355 -1.2297745266787 0.707168922134355 2.07293747230043 0.656656856267616 -1.2297745266787 0.656656856267616 0.57506044217519
-10.2333042819045 -0.609125254875271 -1.91597580169858 -0.609125254875271 3.72563155890984 -0.0509450213168408 -1.91597580169858 -0.0509450213168408 -6.1023275533868
1.55083879339054 2.58074868545729 2.83643397188685 2.58074868545729 -0.590226782692546 -1.92600318562831 2.83643397188685 -1.92600318562831 -3.41232326188241
-4.0008087655151 -2.20070495164225 -1.20180341330818 -2.20070495164225 -5.49135715474797 0.845424479058782 -1.20180341330818 0.845424479058782 5.3873049111715
-3.14995267892502 -1.6021737330796 -4.08208153289263 -1.6021737330796 -2.24749370890333 1.79255548839925 -4.08208153289263 1.79255548839925 -1.12745558994491
-5.27430749618638 -0.568092139021181 -0.0856029250579862 -0.568092139021181 1.723731627304 -2.96302851962075 -0.0856029250579862 -2.96302851962075 -1.57976307152465
2.50337445031329 0.137889515882268 -3.11319568956726 0.137889515882268 2.18875330139882 -1.50707414541746 -3.11319568956726 -1.50707414541746 -4.94265940732918
-1.43865659133702 -5.70805115195949 1.15403028729553 -5.70805115195949 2.18644751740969 0.390714290093329 1.15403028729553 0.390714290093329 1.39466888980334
-5.79915179579932 -2.9087310766481 -1.85457763789883 -2.9087310766481 -1.44651824225396 -1.1326263994502 -1.85457763789883 -1.1326263994502 -6.11304363860307
5.77886761571699 1.29890810225459 1.31673625267769 1.29890810225459 -3.60892702136226 1.06714214675426 1.31673625267769 1.06714214675426 -4.89255385182562
-3.49516737174948 1.51330616276834 1.34234688915016 1.51330616276834 -4.25287575729179 -3.15747004114567 1.34234688915016 -3.15747004114567 1.549186504145
0.369160100279501 2.34090934177236 0.940272490711906 2.34090934177236 6.24966334473179 -0.397389990300875 0.940272490711906 -0.397389990300875 -0.673174300509678
1.51468443234944 -1.19753945070174 -2.54223417288801 -1.19753945070174 3.82096273889157 3.00907158587344 -2.54223417288801 3.00907158587344 4.55420193646106
6.98372839569524 -2.95727260333769 -0.796881852490454 -2.95727260333769 -2.89920834775422 -0.486538417475328 -0.796881852490454 -0.486538417475328 -1.96617582699906
-9.49757612615889 -1.18818552286043 1.95922105350197 -1.18818552286043 -5.46446719664929 0.193747389750951 1.95922105350197 0.193747389750951 4.72901792126812
2.87936104129176 0.125449339973292 -0.203108455194854 0.125449339973292 -1.41578540827001 1.26245843719155 -0.203108455194854 1.26245843719155 -0.125449339973292
0.64954747977808 1.41030153196953 3.79618799465633 1.41030153196953 0.207248612224913 -0.679876544981725 3.79618799465633 -0.679876544981725 4.69595026236448
-6.49277484726109 -5.98405177764531 -0.0629348127359717 -5.98405177764531 0.721128062599676 0.314674063679859 -0.0629348127359717 0.314674063679859 -6.64224502750902
2.30581103995598 -0.510465726988094 -2.06925375183954 -0.510465726988094 -1.51147656722816 -1.39195288481144 -2.06925375183954 -1.39195288481144 2.17383697395418
0.1653486717761 -0.0952007504165424 0.836764490503293 -0.0952007504165424 -3.26438362612512 -0.112737730756432 0.836764490503293 -0.112737730756432 2.35496593135657
2.3144082928563 -0.405137870178064 -0.13271757816178 -0.405137870178064 -2.36796099983386 0.777678440456744 -0.13271757816178 0.777678440456744 -3.65788272442379
4.36278303019412 -2.51414615299322 1.29704360357123 -2.51414615299322 -1.78068698117405 -0.259808425984991 1.29704360357123 -0.259808425984991 -3.2615950092885
3.0940887028577 1.26070195219266 -1.40586164069434 1.26070195219266 -1.08571493043721 1.93082270596068 -1.40586164069434 1.93082270596068 0.334066132442219
-0.14073095879243 0.211096438188645 1.05548219094323 0.211096438188645 -6.11928365463514 -0.0804176907385316 1.05548219094323 -0.0804176907385316 0.0779046379029525
0.404118665691617 2.41819395115468 0.851690951350075 2.41819395115468 6.01832636540742 -0.530134163595455 0.851690951350075 -0.530134163595455 -0.269412443794411
-8.81347265631003 0.774332740781434 0.974441201882254 0.774332740781434 0.354539990863409 -2.20554325604599 0.974441201882254 -2.20554325604599 -2.93202397352071
2.46651183901734 2.71626068299948 -1.39394703617935 2.71626068299948 2.3542216611029 -1.75211398297543 -1.39394703617935 -1.75211398297543 0.735694269094655
-3.28718567985985 -2.36989196840489 -1.38243698156952 -2.36989196840489 -5.35564402070446 0.595071557856051 -1.38243698156952 0.595071557856051 5.77921023874174
6.322932517416 -1.44334371696507 -2.00497955662093 -1.44334371696507 -2.67330607549457 1.29236634071349 -2.00497955662093 1.29236634071349 4.99835766976884
5.74755113084971 1.14542852097271 0.99236457607658 1.14542852097271 -5.14805068000653 0.655623897305093 0.99236457607658 0.655623897305093 -6.03582156040409
-0.607717327140766 4.09244565142016 -0.00482315339000608 4.09244565142016 -0.388263847895489 -0.554662639850699 -0.00482315339000608 -0.554662639850699 2.01366654032754
0.810671814042239 3.9094528310321 2.08903890541654 3.9094528310321 -0.613999953830808 -1.01453898621262 2.08903890541654 -1.01453898621262 -2.0362732843842
5.63826027887574 -1.30826990382208 -1.25384265050437 -1.30826990382208 -2.6104923350533 1.43123517983617 -1.25384265050437 1.43123517983617 4.20097762644871
-0.0706073433673712 0.935547299617668 0.721203578681005 0.935547299617668 -8.48801134909183 -0.991024497977745 0.721203578681005 -0.991024497977745 -3.93635939273094
-5.63896141268672 -0.430374940283238 2.96643800302544 -0.430374940283238 -1.17355898350405 -2.32192528757688 2.96643800302544 -2.32192528757688 -2.8887605747792
1.03178477699579 -0.202082140880532 -2.56877490619291 -0.202082140880532 1.76433253768772 -1.78959280529779 -2.56877490619291 -1.78959280529779 -5.21333061521603
-6.14995645753465 -5.40482521438625 -2.10945605454687 -5.40482521438625 -0.362070815332671 -1.49813359097794 -2.10945605454687 -1.49813359097794 -7.52477607517465
1.4986380500304 1.4986380500304 1.05034603217448 1.4986380500304 5.51377525343553 0.669189533900856 1.05034603217448 0.669189533900856 -2.51866481529675
0.305229470303852 4.35973432386762 1.36512078057156 4.35973432386762 -0.492693239466848 -0.656123192070486 1.36512078057156 -0.656123192070486 -0.61286232226364
4.24186901179878 1.06533624860144 -0.967956335566571 1.06533624860144 1.21724891293583 0.555065504298738 -0.967956335566571 0.555065504298738 3.41413975100241
0.187718934102175 -0.0675788162767829 0.640747295068756 -0.0675788162767829 -2.50041620224097 -0.310361971048929 0.640747295068756 -0.310361971048929 2.87335115132395
-7.52043229789713 0.933240076398948 -0.174437397457747 0.933240076398948 -0.750080809068313 -2.59039535224755 -0.174437397457747 -2.59039535224755 -1.32354375321066
-5.07890076185039 0.734106630149624 -0.915638432713797 0.734106630149624 -2.94440594049143 1.77542092617708 -0.915638432713797 1.77542092617708 -0.869756768329446
6.97573503926141 4.6103130065097 0.218462544426113 4.6103130065097 0.507234873265229 -0.620232741071839 0.218462544426113 -0.620232741071839 1.26557611943404
-2.94815816550954 -2.33293317270705 -3.32467586110466 -2.33293317270705 -2.62331936930982 2.22957537391623 -3.32467586110466 2.22957537391623 -2.89401836614292
0.408042048244073 2.23989039248874 1.02010512061018 2.23989039248874 6.38325353130755 -0.253941061939131 1.02010512061018 -0.253941061939131 -1.06351384914679
-6.16585970257593 1.25362107867802 -1.4892307140324 1.25362107867802 -3.09626624574199 2.43166925544992 -1.4892307140324 2.43166925544992 -0.886870231192429
-0.062760795966297 0.0602503641276451 1.05187094039514 0.0602503641276451 -5.15893742842961 0.0150625910319113 1.05187094039514 0.0150625910319113 0.948943235010411
0.104791269589346 -0.00499006045663552 -3.19114366201841 -0.00499006045663552 -6.21512029873954 1.43464238128271 -3.19114366201841 1.43464238128271 -3.22108402475823
2.93122070440338 0.138611271140076 2.00782503048493 0.138611271140076 -1.70410327460447 1.39834311767783 2.00782503048493 1.39834311767783 -3.22882725714531
-6.42026447275444 -6.66437101239719 -0.606329146854569 -6.66437101239719 1.17591107268765 -0.503961888294707 -0.606329146854569 -0.503961888294707 -8.23137750881354
-2.4929159044311 2.32164687282897 0.501120499872919 2.32164687282897 -4.71729888276997 -3.20970851817338 0.501120499872919 -3.20970851817338 3.95821761924938
-6.48433591872819 -6.24563261427663 -0.144271227965231 -6.24563261427663 0.973175010456375 0.118040095607916 -0.144271227965231 0.118040095607916 -7.20831517179008
-2.58611920740118 -1.46003126423851 1.89234548609636 -1.46003126423851 -2.98478022635992 1.04066058195723 1.89234548609636 1.04066058195723 3.76915872470082