5.130079553 0.014928589 0.006038072 0.018836793 6.294972631 0.025980642 -0.005190018 0.043064121 10.470562211
5.084362091 0.019962281 0.010888306 0.025255428 6.308213458 0.032730930 0.005244346 0.054263442 10.446748833
4.949179787 -0.010920537 0.010673961 -0.014108604 6.332559913 -0.010495899 0.005264441 -0.017457424 10.547439823
4.975402876 -0.000333953 0.003922772 -0.000613912 6.381329142 -0.031803891 -0.009128541 -0.052902309 10.446697466
4.969060683 0.020526958 -0.009323800 0.025979635 6.354254653 0.025687095 -0.037166585 0.042555234 10.532533582
5.018722791 -0.002975352 -0.001211505 -0.003982782 6.310365074 -0.036757040 -0.020156212 -0.061123268 10.450800122
5.007934728 0.002581354 -0.002229799 0.003101265 6.270590638 0.010316826 -0.022275503 0.017078941 10.531972995
5.035775123 0.011744134 0.006404801 0.014780844 6.269038595 0.029327019 -0.004082623 0.048636120 10.580790875
5.055756927 0.009561339 0.004000017 0.011997481 6.273622723 -0.013539411 -0.009246653 -0.022586436 10.581647839
5.011940239 0.015346132 -0.003746755 0.019373541 6.331306973 0.000185149 -0.025503033 0.000198034 10.512317216
5.122425860 -0.023800444 0.007118797 -0.030534350 6.297292990 0.049422005 -0.002873476 0.082151802 10.440023154
5.021792586 0.013934400 -0.005264926 0.017573506 6.275870313 0.005845881 -0.028753469 0.009609662 10.493746184
4.988836196 0.002503037 0.000689857 0.003002150 6.333239318 0.003752128 -0.016023895 0.006170464 10.550388726
4.984611332 -0.006005170 0.009644526 -0.007843878 6.315796899 -0.012488047 0.002959564 -0.020784870 10.565972025
5.099124366 0.001059953 0.017635631 0.001158348 6.160107160 0.033022574 0.019485588 0.054816034 10.588426688
5.063330253 0.005161564 0.014633291 0.006388400 6.293021292 -0.016595061 0.013251177 -0.027648010 10.412153637
5.099471708 0.012530972 -0.001442813 0.015781490 6.225236188 -0.016984212 -0.020929376 -0.028320896 10.565781378
5.116932635 0.005053041 0.016232653 0.006248028 6.225618972 -0.013983012 0.016451217 -0.023306565 10.411948759
5.093118913 0.002523635 0.015990078 0.003024464 6.172825337 0.031003113 0.016020865 0.051455003 10.589755283
5.060945960 -0.000329325 -0.001550533 -0.000611247 6.219663353 0.014950415 -0.021022388 0.024789146 10.514292069
5.027135469 -0.003917991 -0.001620354 -0.005184768 6.301357737 -0.036990723 -0.021051747 -0.061508215 10.451996397
4.947980775 -0.010425805 0.010667684 -0.013477879 6.334140599 -0.010520321 0.005255343 -0.017499754 10.545741919
5.004592608 0.016508022 -0.000871281 0.020854986 6.320983598 0.028350485 -0.019386214 0.046995828 10.567038765
4.982216197 -0.001074340 0.006599543 -0.001558008 6.368200332 -0.010842424 -0.003482242 -0.018068315 10.541936641
5.078272845 -0.008641662 -0.005157414 -0.011208398 6.230687858 -0.034879694 -0.028723431 -0.057983419 10.466630881
4.982266439 -0.000852895 0.001246118 -0.001275714 6.366401173 -0.032051965 -0.014822512 -0.053312745 10.447492222
5.037529805 0.011451194 0.006762662 0.014407341 6.265574290 0.029489694 -0.003330716 0.048907511 10.581333729
5.133595327 0.005227188 -0.000142615 0.006469398 6.247212734 0.020018666 -0.018294702 0.033191297 10.494577856
5.079209851 0.004614656 0.013138370 0.005690606 6.199684947 0.029726735 0.010028855 0.049326337 10.589923183
5.027623952 0.001971164 -0.001701250 0.002322657 6.247763371 0.013324507 -0.021224887 0.022079098 10.526480306
4.955669893 -0.010152079 0.010423551 -0.013129226 6.324961788 -0.012507650 0.004711245 -0.020802940 10.551772493
5.015381774 0.014301561 0.016104157 0.018041801 6.312158880 0.042039670 0.016534842 0.069751663 10.418571724
5.078942327 -0.000858636 -0.001346907 -0.001286689 6.218300639 0.015354317 -0.020654117 0.025462178 10.511184177
4.951545563 -0.007295027 0.009486619 -0.009486925 6.341437135 -0.012137383 0.002740978 -0.020197894 10.543682034
5.056159016 -0.023874562 0.012992396 -0.030626328 6.303347157 0.051178235 0.009800749 0.085070658 10.416967524
4.966956772 0.019312801 -0.010092775 0.024431917 6.356972670 0.024414961 -0.038788107 0.040445545 10.526535347
5.077276960 -0.013037098 0.002586301 -0.016811623 6.270884505 0.006481527 -0.012316481 0.010760968 10.455323980
5.040457181 -0.023076688 0.014174673 -0.029608612 6.304508163 0.051432918 0.012360175 0.085491126 10.412950892
4.987830956 0.019218241 -0.004406536 0.024310583 6.336868659 0.028896342 -0.026816181 0.047893004 10.555897723
4.952433682 -0.010531035 0.010428905 -0.013612193 6.328157498 -0.011800132 0.004733935 -0.019625977 10.549825159
4.999091322 0.000990828 0.012972251 0.001074012 6.369832036 -0.025368364 0.009957814 -0.042212537 10.432419706
5.079661878 -0.001960609 -0.008996894 -0.002691502 6.215558132 0.019474422 -0.036861494 0.032311854 10.467181128
4.963909459 0.015424744 -0.010739281 0.019475572 6.359495766 0.023032584 -0.040146869 0.038162050 10.514157193
4.992318430 0.003795299 0.002792056 0.004649383 6.371026135 -0.009536393 -0.011583055 -0.015915450 10.535129181
4.981256557 -0.000802834 0.001515406 -0.001211859 6.368754024 -0.031941875 -0.014248543 -0.053129990 10.447435086
4.978598342 -0.001876528 0.007254997 -0.002580494 6.366552099 -0.011047039 -0.002081114 -0.018405451 10.542800231
4.964507282 -0.005428739 0.018915990 -0.007108288 6.302564257 0.047260798 0.022669641 0.078496886 10.395906206
5.015926145 0.002795089 0.014150876 0.003373431 6.352099397 -0.024083238 0.012395454 -0.040083171 10.427122589
5.033121371 0.001684124 -0.001588945 0.001956532 6.240876242 0.013974222 -0.021006257 0.023159785 10.524283311
4.964118805 0.008514273 -0.009943353 0.010666157 6.355408209 0.022926727 -0.038461521 0.038010457 10.494369764
5.132330132 -0.022986736 0.005864273 -0.029497417 6.293369710 0.048313083 -0.005565640 0.080306240 10.443901234
5.102337379 -0.000106368 0.018427738 -0.000328589 6.156035971 0.033977064 0.021152248 0.056406258 10.587880377
4.989045849 0.003409878 -0.001026691 0.004158176 6.303313274 0.006745321 -0.019660781 0.011141151 10.540368471
5.089657812 0.012402777 0.000422562 0.015618439 6.242075768 -0.014367281 -0.016943579 -0.023971992 10.574349547
5.113698422 0.001726607 -0.008525707 0.002007641 6.186776640 -0.025215690 -0.035982719 -0.041961166 10.517606002
5.026680512 -0.010243373 -0.004602349 -0.013248292 6.311632987 0.016353207 -0.027366803 0.027153876 10.460186250
5.075767153 -0.000827682 -0.001399119 -0.001247109 6.218122200 0.015248824 -0.020753590 0.025286773 10.511621261
5.000052233 0.008541731 0.000105307 0.010699800 6.371475597 -0.006517993 -0.017301519 -0.010916661 10.528726146
4.998282162 -0.019563562 0.017287679 -0.025128513 6.306002415 0.050719629 0.019102193 0.084293743 10.404385021
5.110369401 -0.002559576 -0.009017775 -0.003456221 6.191690321 -0.029663608 -0.037013344 -0.049337204 10.498760268
5.070686164 -0.008825653 -0.004592287 -0.011442661 6.243614426 -0.035137720 -0.027499737 -0.058411607 10.462877940
5.111715393 0.006033858 -0.006479659 0.007498562 6.188367352 -0.023109750 -0.031641702 -0.038476762 10.532501403
4.959143796 -0.009772613 0.010458965 -0.012645617 6.322556146 -0.012876635 0.004774082 -0.021417379 10.553702641
5.108152351 -0.011063861 0.007904163 -0.014297325 6.234414641 0.002189196 -0.001159961 0.003622254 10.447534817
5.137934845 -0.022300229 0.004950509 -0.028622475 6.289260942 0.047122215 -0.007520906 0.078324978 10.446252419
5.048244288 -0.023499899 0.013593323 -0.030148411 6.303923979 0.051319358 0.011101421 0.085303878 10.414853394
5.127713976 -0.023413592 0.006485568 -0.030041394 6.295547351 0.048932469 -0.004233374 0.081336973 10.442073779
5.011258070 -0.020959898 0.016326726 -0.026909041 6.306104824 0.051274718 0.017021155 0.085220951 10.406953069
4.957877676 -0.009910704 0.010446513 -0.012821607 6.323339390 -0.012774516 0.004752145 -0.021247215 10.553012072
5.026978951 0.012497726 -0.005749990 0.015741850 6.265503601 0.007608602 -0.029799136 0.012543825 10.490377111
5.116001624 -0.009214101 0.009206027 -0.011939565 6.223549530 -0.000080235 0.001570230 -0.000155106 10.444590178
4.976471183 0.004347686 0.017874027 0.005354160 6.307177744 0.046566293 0.020420423 0.077308475 10.402564902
5.058110029 0.009840445 0.003850095 0.012353193 6.271605700 -0.013478601 -0.009572483 -0.022486360 10.581600638
5.025650574 0.013340821 0.004072243 0.016816669 6.289374723 0.028400920 -0.008988183 0.047091324 10.577188133
5.075543995 -0.013398057 0.016004797 -0.017271704 6.215580318 0.033693672 0.016113821 0.055981263 10.587607991
5.068178157 -0.012574132 0.000970258 -0.016221094 6.278859747 0.007979986 -0.015707839 0.013249123 10.456144168
4.984313119 -0.000461627 0.006073328 -0.000777007 6.368959198 -0.010719214 -0.004604273 -0.017865767 10.541148722
5.100911943 -0.005285043 -0.007621563 -0.006930265 6.200264425 -0.033015064 -0.034022591 -0.054896665 10.484414022
5.023857743 0.002120701 -0.001806160 0.002513427 6.252422872 0.012798569 -0.021433918 0.021204590 10.527796726
5.045025195 0.010162221 0.008127070 0.012763886 6.251725154 0.030024898 -0.000466765 0.049801571 10.583442658
4.988125156 0.003369869 -0.000296308 0.004107207 6.313674055 0.005869194 -0.018110394 0.009685409 10.543797644
4.972023995 0.021056623 -0.008298613 0.026654735 6.350753201 0.027029172 -0.035005337 0.044783567 10.538612710
5.135673468 -0.014961485 -0.003564732 -0.019267024 6.239766775 0.032371709 -0.025550784 0.053788630 10.461394316
4.979149703 0.020547064 -0.006350654 0.026004884 6.344067208 0.028510679 -0.030903969 0.047247314 10.548033503
4.963170331 0.013712597 -0.010681208 0.017292970 6.359286617 0.022952215 -0.040021244 0.038034510 10.509263073
5.053371246 0.008709108 0.009420178 0.010911154 6.238093229 0.030256362 0.002243174 0.050191483 10.585483869
5.003124717 0.012014356 0.016684904 0.015126556 6.311754675 0.043836643 0.017808016 0.072745701 10.414053979
5.007537994 0.001787546 0.013634322 0.002089342 6.361813496 -0.024727509 0.011330656 -0.041150326 10.429950500
5.113012468 0.003824127 -0.007606396 0.004681568 6.186676533 -0.024003611 -0.034032974 -0.039954379 10.525071807
4.989499155 -0.018276231 0.017922475 -0.023487103 6.305471602 0.050133961 0.020477643 0.083316086 10.402459462
4.983474575 0.000080017 0.000056784 -0.000086492 6.351456343 0.000104589 -0.017346106 0.000117737 10.554580322
5.107480675 -0.002754882 0.019570126 -0.003705087 6.154916593 0.034518108 0.023554156 0.057314661 10.587829600
4.947952941 -0.010270222 0.010615555 -0.013279542 6.334339643 -0.010630538 0.005145014 -0.017683450 10.545531862
5.110770340 -0.007915253 -0.007501993 -0.010283607 6.223189254 0.026228105 -0.033803830 0.043555168 10.465062695
5.012437050 0.015713195 -0.004373469 0.019841451 6.309278696 0.001408225 -0.026832339 0.002229255 10.505239135
5.068753284 0.005031290 0.014750905 0.006222123 6.287208529 -0.015891394 0.013481312 -0.026478230 10.411341534
4.971940552 0.000131257 0.006332608 -0.000020735 6.386394728 -0.031872128 -0.004011687 -0.053017219 10.445186578
5.113731856 0.001233811 -0.008703456 0.001379428 6.187011552 -0.025580533 -0.036359355 -0.042565702 10.515730228
5.113133910 -0.000589828 -0.009142741 -0.000945308 6.188571990 -0.027264455 -0.037287770 -0.045357480 10.508189670
5.008148919 -0.002034142 -0.000799166 -0.002782536 6.322530653 -0.035986941 -0.019245712 -0.059846993 10.449501453
4.988509814 0.001612504 0.000735725 0.001866920 6.342563599 0.002291999 -0.015925580 0.003747249 10.553191289
4.988261375 0.003162938 0.000186956 0.003843408 6.321395915 0.005137935 -0.017087176 0.008470982 10.546431029
5.006154063 0.012624535 0.016550390 0.015904292 6.311944303 0.043415921 0.017512453 0.072044450 10.415202095
5.031473428 -0.010499965 -0.004120412 -0.013575575 6.307744890 0.015619287 -0.026362717 0.025935303 10.459329008
5.088289795 -0.003496570 -0.008779208 -0.004649858 6.216573476 0.021377281 -0.036430596 0.035479172 10.466195530
5.064545967 0.006839919 0.010989823 0.008527906 6.221584072 0.030103574 0.005528986 0.049944393 10.587799074
4.954721381 -0.010258321 0.010416655 -0.013264626 6.325781795 -0.012347716 0.004699964 -0.020536818 10.551221867
4.962896336 0.012551166 -0.010571550 0.015812398 6.358804140 0.022971826 -0.039787984 0.038071179 10.505936542
4.976133368 -0.000411946 0.003534557 -0.000713364 6.379978138 -0.031778361 -0.009953451 -0.052859626 10.446858256
5.013215951 -0.009143585 -0.005854083 -0.011845783 6.322759272 0.017669392 -0.029971155 0.029336914 10.463426085
5.041529895 0.007383266 0.004794307 0.009221430 6.286209932 -0.013638254 -0.007514232 -0.022743107 10.581132810
4.996909755 -0.001370841 -0.000376702 -0.001936540 6.337992761 -0.034515692 -0.018311426 -0.057404692 10.448391991
5.125698412 -0.006464356 0.010988767 -0.008434580 6.211292646 -0.003779696 0.005312568 -0.006311822 10.440880937
5.038007445 0.008675595 -0.007037149 0.010869013 6.244870630 0.010602925 -0.032564319 0.017532909 10.483648651
4.992289553 -0.004723868 -0.007652044 -0.006210775 6.338315360 0.018451131 -0.033706458 0.030620170 10.470567118
4.950055710 -0.010843396 0.010565575 -0.014010299 6.331330908 -0.010886287 0.005031778 -0.018106388 10.548174713
5.061062954 -0.012128814 -0.000223910 -0.015653137 6.284621791 0.009402637 -0.018212497 0.015611418 10.456581024
5.024333810 -0.010101827 -0.004829022 -0.013067763 6.313557315 0.016663401 -0.027838738 0.027668790 10.460662162
5.126239767 0.015867145 0.006703720 0.020033401 6.298035827 0.026878804 -0.003766539 0.044553299 10.468281789
4.964640779 0.007942165 -0.009842056 0.009936818 6.354771233 0.022852311 -0.038248768 0.037888820 10.492797799
5.130476545 -0.005015753 0.011942603 -0.006588095 6.206085805 -0.005602538 0.007316303 -0.009345761 10.438747969
5.036369566 -0.010740296 -0.003594506 -0.013882132 6.303836388 0.014744620 -0.025265854 0.024482802 10.458604542
4.977145565 -0.015510386 0.018722163 -0.019960761 6.304011030 0.049023606 0.022214877 0.081461407 10.399301629
5.110291904 0.005019696 0.016322636 0.006205771 6.236059021 -0.014402727 0.016665102 -0.024003963 10.411055974
4.985058308 0.000331225 0.000223373 0.000233686 6.350579339 0.000441271 -0.016998777 0.000676331 10.554734483
5.132941752 -0.014003969 -0.004279432 -0.018046287 6.236782737 0.031465981 -0.027055161 0.052280231 10.462369272
4.970914127 0.003842859 -0.009150705 0.004710822 6.349888025 0.021640003 -0.036806229 0.035888813 10.483054921
4.969023946 -0.008577366 0.010405109 -0.011122301 6.318673910 -0.013002214 0.004625358 -0.021630210 10.558778820
4.984092851 0.019818498 -0.005215250 0.025075927 6.339959241 0.028837931 -0.028516175 0.047793762 10.552786207
5.071459828 0.004963870 0.014826912 0.006136073 6.284322277 -0.015590273 0.013632831 -0.025977599 10.411012604
4.994276543 0.010018037 0.017059467 0.012582000 6.310832887 0.044952028 0.018632483 0.074606135 10.410544955
5.062753350 -0.016496962 0.013844600 -0.021221678 6.239509361 0.032483755 0.011582767 0.053981292 10.588029951
5.105459093 -0.006774154 -0.007914569 -0.008828743 6.221165695 0.025094125 -0.034659182 0.041666855 10.465251678
5.139141541 -0.016254898 -0.002456616 -0.020915986 6.244688229 0.033821709 -0.023215616 0.056202616 10.459694663
5.138564997 0.011220701 0.003266501 0.014109689 6.279343415 0.022859132 -0.011090700 0.037890149 10.478093890
5.124408366 -0.006845427 0.010738726 -0.008920317 6.212798760 -0.003266193 0.004787434 -0.005457240 10.441396043
5.011456413 0.014385621 -0.002958757 0.018149109 6.348944042 -0.000786489 -0.023832120 -0.001413250 10.517665931
4.978656896 0.005241458 0.017757797 0.006493451 6.307768758 0.046419130 0.020166545 0.077060792 10.403625694
5.103052653 -0.011970809 0.007079751 -0.015453302 6.241431501 0.003229890 -0.002888418 0.005354612 10.449363654
5.123084783 -0.007232839 0.010486024 -0.009414137 6.214388179 -0.002738808 0.004256783 -0.004579569 10.441911400
5.104934433 -0.007828106 0.020097571 -0.010172291 6.170599093 0.033132195 0.024680418 0.055029403 10.588717305
5.043820020 -0.011110540 -0.002711923 -0.014354398 6.297998911 0.013224490 -0.023422401 0.021958247 10.457761237
4.948017679 -0.009890578 0.010475291 -0.012795578 6.334876578 -0.010899061 0.004847663 -0.018130990 10.545116051
4.971132296 0.000304297 0.007467695 0.000199886 6.387227870 -0.031656888 -0.001604417 -0.052660103 10.444072721
5.030684422 0.012566564 0.005280224 0.015829463 6.279343285 0.028829562 -0.006446967 0.047806464 10.579085136
5.106182395 -0.001944295 0.019280022 -0.002671707 6.154487200 0.034524149 0.022944175 0.057321844 10.587731611
5.114683406 0.000943036 -0.000600848 0.001008715 6.229254449 0.017732643 -0.019199039 0.029407816 10.505780020
4.995806588 -0.005772846 -0.007372506 -0.007548137 6.336057805 0.018264795 -0.033126630 0.030314254 10.469209838
5.022025146 -0.009947429 -0.005047394 -0.012870850 6.315461251 0.016935371 -0.028293221 0.028120143 10.461167159
5.027888318 0.016210561 0.015381442 0.020474905 6.311741788 0.040047355 0.014960071 0.066434353 10.422975973
4.991577065 0.003288022 0.003133285 0.004002739 6.370850317 -0.009743239 -0.010857630 -0.016257359 10.535835923
4.987068360 -0.005518928 0.009458063 -0.007224114 6.315393062 -0.012418595 0.002555966 -0.020671176 10.567014197
5.120342585 -0.008021780 0.009975841 -0.010419769 6.217815253 -0.001663696 0.003185689 -0.002790382 10.442955574
5.137981207 -0.002114985 0.013582859 -0.002890505 6.198732806 -0.007820410 0.010764500 -0.013041139 10.432598295
4.966916286 -0.001430438 0.018552425 -0.002011380 6.303912375 0.047055925 0.021891019 0.078142405 10.397519447
5.137412140 0.012105959 0.003952805 0.015238251 6.283610158 0.023535229 -0.009632882 0.039010504 10.476346127
5.093198322 -0.009937281 0.018789402 -0.012860605 6.187221567 0.033373227 0.021950498 0.055437083 10.588096145
4.953870003 -0.010356436 0.010414696 -0.013389671 6.326594296 -0.012174135 0.004698799 -0.020248046 10.550715296
4.982751315 0.000010337 0.000007356 -0.000175291 6.351636518 0.000013497 -0.017448273 -0.000033387 10.554441230
5.009890039 -0.000168910 0.007268936 -0.000404820 6.308890462 -0.012453592 -0.002161280 -0.020748160 10.575230111
5.133566286 -0.004008528 0.012581465 -0.005304211 6.202995707 -0.006637833 0.008658756 -0.011069547 10.436964446
5.106996067 0.010755556 -0.003666603 0.013517920 6.203014055 -0.020675714 -0.025666353 -0.034448689 10.550900343
4.953309190 -0.006630543 0.009257708 -0.008639913 6.343940013 -0.012258019 0.002249890 -0.020400718 10.543540634
4.951834544 -0.010608145 0.010445683 -0.013710470 6.328889968 -0.011607255 0.004771574 -0.019305213 10.549436011
5.024367223 0.003830480 0.014468121 0.004693019 6.341034386 -0.023188755 0.013037874 -0.038600345 10.423946107
5.110801555 0.018336082 0.008564453 0.023181363 6.304579259 0.029564126 0.000229108 0.049006833 10.460047605
5.097012322 -0.005102474 -0.008417850 -0.006697380 6.218530692 0.023279003 -0.035695688 0.038644847 10.465601396
5.033156384 0.004681011 0.014580841 0.005776936 6.329140354 -0.021883306 0.013245833 -0.036433983 10.420571699
5.112320858 -0.001414873 -0.009182790 -0.001997037 6.189667247 -0.028206358 -0.037369746 -0.046919735 10.504408155
5.074067426 0.011344931 0.002506621 0.014270496 6.258176843 -0.013187344 -0.012474290 -0.022007625 10.579933794
5.012739792 0.015695458 -0.004441614 0.019818828 6.306243982 0.001658528 -0.026977749 0.002645262 10.504211921
4.987611610 0.001074091 0.000590847 0.001180588 6.346592630 0.001488120 -0.016229318 0.002413307 10.554187636
5.131559946 -0.004673098 0.012164380 -0.006151322 6.204981182 -0.005982608 0.007782289 -0.009978490 10.438177061
5.068416522 -0.015169935 0.014784785 -0.019530210 6.229006680 0.033158497 0.013554485 0.055097993 10.587836899
4.987250796 0.000924712 0.000532882 0.000990176 6.347548130 0.001271863 -0.016350840 0.002054470 10.554384802
5.124433737 -0.011346902 -0.005921432 -0.014658759 6.230110105 0.029234365 -0.030503597 0.048562656 10.464115096
5.002270127 -0.002092181 0.008047996 -0.002856302 6.311838971 -0.012294107 -0.000484280 -0.020476384 10.572809024
4.988267043 0.001429191 0.000697995 0.001633243 6.344041233 0.002013576 -0.016004650 0.003285228 10.553579943
4.986850737 0.000784025 0.000470694 0.000810844 6.348377485 0.001070863 -0.016481167 0.001720955 10.554533167
5.087910279 -0.013185659 0.004504547 -0.017001409 6.260143771 0.005169093 -0.008290353 0.008580866 10.453626702
4.968474656 0.020283885 -0.009541539 0.025669789 6.355011630 0.025350002 -0.037625761 0.041995927 10.531032295
4.976896994 -0.000487185 0.003157539 -0.000809306 6.378475398 -0.031761309 -0.010754759 -0.052831037 10.446996550
5.006527663 0.011692362 -0.001428542 0.014715952 6.366655908 -0.003531461 -0.020573382 -0.005965117 10.524108164
5.109401740 -0.005175064 0.020179165 -0.006790385 6.159258398 0.033955104 0.024837570 0.056387615 10.588377117
5.034374952 0.005933599 0.005210332 0.007373678 6.292465678 -0.013463460 -0.006607878 -0.022447604 10.580389190
4.966320885 -0.010143266 0.019123739 -0.013118394 6.302298452 0.047737461 0.023103409 0.079305484 10.396081611
5.106884847 0.000138239 -0.000754522 -0.000016939 6.225453636 0.017017643 -0.019497222 0.028222564 10.507471937
4.963627468 0.014860886 -0.010735986 0.018756781 6.359497318 0.022985617 -0.040138895 0.038085983 10.512541164
5.060040301 0.007577591 0.010365934 0.009468454 6.228109531 0.030210891 0.004223194 0.050120037 10.586923962
5.011968015 0.015656127 -0.004141814 0.019768719 6.318629193 0.000794137 -0.026339982 0.001208974 10.508324825
4.986175552 0.000228041 0.005483461 0.000102107 6.369520894 -0.010588331 -0.005860315 -0.017650742 10.540195776
4.962205984 -0.004507092 0.008584014 -0.005933293 6.354179622 -0.012066909 0.000791607 -0.020090729 10.543509301
5.108562460 -0.003273843 -0.008773272 -0.004366695 6.193331153 -0.030615076 -0.036489076 -0.050915730 10.495042455
4.948121943 -0.009667436 0.010388766 -0.012511122 6.335238993 -0.011050133 0.004664011 -0.018382814 10.544913383
4.950836454 -0.010741495 0.010497019 -0.013880426 6.330218696 -0.011229156 0.004883820 -0.018676476 10.548753347
5.011949380 0.015228294 -0.003631043 0.019223321 6.334425771 0.000044721 -0.025257952 -0.000034917 10.513271254
5.007071271 -0.008280148 -0.006404010 -0.010744849 6.327748266 0.017934368 -0.031114531 0.029774114 10.465290099
4.948282850 -0.009423371 0.010292834 -0.012199996 6.335678749 -0.011207094 0.004460233 -0.018644497 10.544716762
5.085879702 0.003662955 0.014327263 0.004477132 6.188080298 0.029896518 0.012523905 0.049611972 10.590286102
5.040142000 0.005098312 0.014570866 0.006308644 6.320000665 -0.020637853 0.013200216 -0.034365831 10.418073625
5.076406518 -0.008741971 -0.005013145 -0.011336199 6.233830958 -0.034934055 -0.028411286 -0.058073416 10.465622848
4.979353884 -0.016133072 0.018593358 -0.020754640 6.304331505 0.049246197 0.021934299 0.081833452 10.399911655
4.994661221 0.005375408 0.001806923 0.006663603 6.371515535 -0.008750309 -0.013678077 -0.014614838 10.532967029
5.044443993 0.000841258 -0.001536911 0.000881626 6.228601652 0.014707611 -0.020935707 0.024381504 10.519438328
5.038843950 -0.010860575 -0.003313245 -0.014035557 6.301884408 0.014261576 -0.024678735 0.023680598 10.458292130
5.112956137 -0.009988218 0.008690530 -0.012926287 6.227727222 0.000900017 0.000488941 0.001476397 10.445738109
5.130589904 0.003760888 0.015302423 0.004600286 6.205614917 -0.011224389 0.014432869 -0.018717988 10.416219189
5.075329233 0.005178881 0.012530933 0.006410021 6.205772012 0.029783778 0.008755724 0.049419054 10.589497077
5.031979696 0.005398785 0.005364765 0.006691992 6.294474022 -0.013376670 -0.006272343 -0.022301521 10.580066174
5.029092684 -0.022363546 0.015012564 -0.028699074 6.305309600 0.051510879 0.014174891 0.085618218 10.410455358
5.090969790 -0.007147600 -0.006340981 -0.009304260 6.211528707 -0.034344784 -0.031275083 -0.057099717 10.475139329
5.130545774 0.004111607 -0.000309316 0.005047381 6.242336308 0.019588084 -0.018637120 0.032479752 10.497925405
4.966815176 -0.003744229 0.008320050 -0.004960977 6.358428548 -0.011792504 0.000216294 -0.019637486 10.543551718
4.988679729 0.008542494 0.017294793 0.010701203 6.309954275 0.045557441 0.019150604 0.075617329 10.408184828
5.060331401 0.019422640 0.012909108 0.024568408 6.309527483 0.035379507 0.009609213 0.058666520 10.435500606
5.023036748 0.013613739 -0.005373798 0.017164682 6.273274613 0.006293696 -0.028988449 0.010354925 10.492888905
5.074522603 -0.008806906 -0.004871781 -0.011418907 6.237041468 -0.034993612 -0.028105232 -0.058172172 10.464662835
4.975887808 -0.002357426 0.007603109 -0.003193436 6.365043036 -0.011208904 -0.001334208 -0.018672697 10.543173932
5.032833358 -0.022611234 0.014737554 -0.029014966 6.305059657 0.051500157 0.013579234 0.085601255 10.411244331
5.094439298 -0.006554653 -0.006749306 -0.008548508 6.207217224 -0.034025026 -0.032152200 -0.056570449 10.478042550
5.003315946 0.001354417 0.013317354 0.001537352 6.366046146 -0.025032763 0.010674029 -0.041656096 10.431225772
5.018596400 0.014389696 0.002340323 0.018154033 6.302002227 0.028084255 -0.012632174 0.046561234 10.574177666
4.993076145 0.004314147 0.002456133 0.005310777 6.371199350 -0.009302215 -0.012297297 -0.015528162 10.534413014
5.032774197 -0.004627025 -0.001939106 -0.006088853 6.295342498 -0.036984886 -0.021746709 -0.061495998 10.452888793
5.011923435 0.015447792 -0.003855682 0.019503137 6.328152967 0.000326114 -0.025733713 0.000431937 10.511342536
5.139290321 0.009974617 0.002299650 0.012521165 6.272794474 0.022011701 -0.013141297 0.036486359 10.480746408
4.984199959 0.000180256 0.000125656 0.000041264 6.351141821 0.000237633 -0.017202760 0.000338470 10.554678498
5.019978538 0.002246972 -0.001925570 0.002674543 6.257060352 0.012215625 -0.021673267 0.020235435 10.528986555
5.121242032 0.001914380 -0.000492209 0.002246727 6.233384767 0.018429873 -0.018991907 0.030562950 10.503627211
5.115344100 0.005067089 0.016278056 0.006265996 6.228137723 -0.014130815 0.016552961 -0.023552234 10.411696317
4.967933521 0.019999096 -0.009742685 0.025306764 6.355718401 0.025022510 -0.038049947 0.041452722 10.529533954
5.132781551 0.003254745 0.015102672 0.003954976 6.203000782 -0.010584576 0.014002064 -0.017653043 10.417559753
5.011923171 0.015602904 -0.004053067 0.019700872 6.321800005 0.000626542 -0.026151832 0.000930650 10.509343015
4.987965969 0.001249066 0.000648915 0.001403632 6.345383769 0.001744919 -0.016107557 0.002839424 10.553911338
5.047034711 0.009811364 0.008455276 0.012316540 6.248288373 0.030115214 0.000221429 0.049952927 10.583960081
5.136812782 -0.002737997 0.013292775 -0.003684671 6.199877135 -0.007539110 0.010154122 -0.012571555 10.434184100
4.972375572 0.000060395 0.005935522 -0.000111085 6.385888450 -0.031894009 -0.004854352 -0.053053351 10.445506372
5.058644698 -0.011974650 -0.000609997 -0.015456518 6.286524419 0.009923394 -0.019021866 0.016476164 10.456716931
5.091463619 -0.010214703 0.018550098 -0.013214194 6.189674339 0.033454920 0.021449665 0.055573766 10.587993553
4.974804623 0.001994934 -0.008863992 0.002354956 6.347705122 0.020843719 -0.036212505 0.034572163 10.479679237
5.018021261 0.003059735 0.014250214 0.003710720 6.349441303 -0.023891696 0.012598536 -0.039765789 10.426357747
5.024320960 0.013266680 -0.005490971 0.016722206 6.270683760 0.006738641 -0.029241151 0.011095509 10.492043284
5.015984987 -0.002703715 -0.001095300 -0.003636399 6.313383890 -0.036611591 -0.019900465 -0.060882549 10.450442329
4.988872887 0.002160657 0.000760812 0.002565686 6.337336244 0.003163507 -0.015873716 0.005193537 10.551676290
4.957952237 -0.005360834 0.008850226 -0.007021475 6.349675663 -0.012251272 0.001370438 -0.020394031 10.543460037
5.098048147 0.019444459 0.009730826 0.024594795 6.306935483 0.031214313 0.002744508 0.051745073 10.453568159
5.025754252 0.002049438 -0.001751245 0.002422510 6.250092474 0.013069721 -0.021324237 0.021655429 10.527154389
5.000129364 0.011377080 0.016813912 0.014314276 6.311505059 0.044234211 0.018091798 0.073408573 10.412893630
5.037408102 0.017415334 0.014731272 0.022010378 6.311103472 0.038543011 0.013549445 0.063930366 10.426373690
5.114494231 -0.009604978 0.008948693 -0.012437793 6.225606087 0.000420157 0.001030410 0.000677717 10.445158274
5.138065466 -0.015843615 -0.002829286 -0.020391645 6.242983395 0.033322560 -0.024001272 0.055371744 10.460287625
5.020596407 0.014227907 -0.005164178 0.017947711 6.278475323 0.005398408 -0.028535868 0.008865063 10.494617183
4.966082711 0.018487965 -0.010369559 0.023380457 6.357997648 0.023896737 -0.039371343 0.039587291 10.523515988
5.006706795 0.016179420 -0.000409627 0.020436008 6.318557416 0.028264646 -0.018415706 0.046854394 10.568220276
5.129840897 -0.012979947 -0.004964863 -0.016740756 6.233995712 0.030580460 -0.028496244 0.050805176 10.463190072
5.121446461 0.004894849 0.016019879 0.006046195 6.218537955 -0.013364180 0.015984682 -0.022277664 10.412858817
5.039326974 0.011146878 0.007113056 0.014019333 6.262105538 0.029644215 -0.002594776 0.049165393 10.581868535
5.092718330 -0.006856373 -0.006541557 -0.008933073 6.209302084 -0.034198883 -0.031706093 -0.056858290 10.476565702
5.108269910 -0.006606664 0.020287195 -0.008615334 6.164239727 0.033449875 0.025070392 0.055553069 10.588671248
4.963718307 -0.004243526 0.008497890 -0.005597359 6.355641755 -0.011982272 0.000603868 -0.019951032 10.543529454
5.117478691 -0.008818290 0.009462926 -0.011435044 6.221562759 -0.000597354 0.002109234 -0.001015743 10.444034090
4.972145669 0.003233327 -0.009055075 0.003933748 6.349164292 0.021384691 -0.036607966 0.035466717 10.481875162
5.144937266 -0.018890996 0.000493947 -0.024276680 6.260647384 0.038529656 -0.016985761 0.064034973 10.454616313
5.141062849 -0.017017791 -0.001707231 -0.021888587 6.248301660 0.034877504 -0.021634930 0.057959692 10.458452651
4.949173988 -0.008582236 0.009963384 -0.011127758 6.337544691 -0.011671624 0.003759230 -0.019419380 10.544184530
4.965973233 0.006793364 -0.009640294 0.008472286 6.353432858 0.022627952 -0.037826035 0.037520059 10.489769751
4.977523125 -0.007286738 0.010088170 -0.009477341 6.316930062 -0.012731448 0.003924189 -0.021184812 10.562820797
5.137686525 0.001433003 0.014603644 0.001632450 6.198106776 -0.009065668 0.012927810 -0.015122717 10.422499369