5.1390260242 6.3669070144 10.5363778624 2.5949387172 0.0639555105 5.1918411262 5.1181094005 3.2084873351 10.4556629152 2.5532855262 3.2046484697 5.2972264291 2.4457874281 4.6705971075 2.2210948975 2.7110696810 1.6289399140 8.2773885267 0.1354175426 4.7114496988 7.4633644142 4.9936855856 1.6617181032 3.0356828877 2.8626247426 4.7633673532 9.3421304212 4.8848756161 4.7905110517 4.1275432931 2.2601586169 1.5633396080 1.1658677271 0.2689717445 1.5839315869 6.3748263747 3.8252663740 1.6066751128 1.2255058934 1.3029693441 4.7350799739 9.2785163118 3.8671114401 1.6264713638 6.4358037124 1.3123910408 4.7674754910 4.0780347404 3.3989391273 4.7143223743 0.3542354277 1.7483291448 1.6780943099 10.1520831921 0.8165159857 1.6298157242 4.9076396077 4.3439816932 4.7369535081 5.6015442588 0.9236619864 2.8198466386 7.1225000997 3.5427731536 3.5203421793 8.6195852294 4.2633949035 6.0781472174 3.4365106996 1.6724531334 0.2616508861 1.8206361343 4.2191942713 3.5609650658 3.3528394250 1.5884713368 2.7660486226 1.9655286517 0.8963407971 0.3221563247 7.0928737120 3.4610640789 6.0096639259 8.5936196923
5.1111631090 6.3987963871 10.5276611378 2.5982464354 0.0637977003 5.1938131419 5.0643378533 3.2313714000 10.4252607833 2.5296180293 3.2263198564 5.2915160072 2.4683234599 4.6834198081 2.2452750995 2.6737728360 1.6461756913 8.2468653556 0.1198082507 4.7137272181 7.4566896259 4.9578896080 1.6760022924 3.0318442316 2.8508815631 4.7811603264 9.3388077884 4.8315295815 4.8292963232 4.1386181135 2.2434499830 1.5505233820 1.1405785142 0.3039477232 1.6014372556 6.3562235329 3.7697956804 1.6350240156 1.2303445586 1.3190791185 4.7303558804 9.2633619197 3.8163511760 1.6422685019 6.4030576146 1.2836565331 4.7685863823 4.0655983448 3.3771812839 4.7535987313 0.3571301778 1.7386130778 1.6763193797 10.1158750320 0.8536181054 1.6479380357 4.8958401904 4.3093321323 4.7573010385 5.5998750267 0.9360283066 2.8450353279 7.1141873473 3.5154032117 3.5612985249 8.5885732146 4.2237885780 6.0845504706 3.4576045795 1.6558439713 0.2617239363 1.8133720849 4.1651812101 3.6088339256 3.3786877469 1.5936185605 2.7428340525 1.9575975586 0.9262487428 0.3507471442 7.0733818840 3.4894703742 6.0400272729 8.6207588013
4.8968776273 6.2598669369 10.5340903508 2.4551859748 0.0250663760 5.2744668902 4.9712646381 3.1151566589 10.5691553272 2.4944378883 3.2096495008 5.3613542732 2.3884896068 4.7411430812 2.2517463428 2.5637546258 1.5410575894 8.2946889710 0.0968721431 4.7722505726 7.5021805163 4.8405430397 1.5791979681 3.0479813159 2.7402634652 4.6515040011 9.3820178066 4.6863053887 4.7465922647 4.1564632319 2.1898075796 1.5643437099 1.1378003315 0.2600188208 1.6211643107 6.3984501745 3.7488963763 1.5920652935 1.2311243981 1.1883248348 4.7000342743 9.2705732215 3.6741862336 1.5687747035 6.4901373931 1.2845783482 4.7107971710 4.0589403398 3.1770519782 4.6908965208 0.3403857163 1.7516940582 1.5106849615 10.1902045513 0.7325778646 1.6411158312 4.8949184683 4.2255218526 4.7589356876 5.6494342477 0.9063005217 2.8544878634 7.1196610198 3.3828926440 3.3873712757 8.6896871155 4.0346222029 5.9908034201 3.4538029516 1.5106221140 0.3325561898 1.8404799984 3.9690244177 3.4904420507 3.4524695100 1.5245711785 2.8457340438 1.8291362099 0.9558356233 0.3801926743 7.0865783483 3.4547849281 5.8953231974 8.6944896064
4.9591950993 6.3080546648 10.4439516009 2.4404396099 -0.0330432059 5.2449717409 4.9771653023 3.1143971912 10.4109694882 2.5019215737 3.1459878182 5.2044202994 2.4449832997 4.8065751325 2.2625876894 2.5568674224 1.5136827370 8.1700704727 0.0559004277 4.8041895232 7.4212593977 4.8925810285 1.5562752519 2.9791194112 2.7585182064 4.7020754553 9.3221913497 4.6957933912 4.7386559162 4.0837593294 2.1924931459 1.5909467705 1.0954233381 0.2777066605 1.6310371089 6.3364334398 3.7440670249 1.6045169925 1.1375899722 1.2000060658 4.7345161045 9.2848357184 3.7049847446 1.5540149656 6.3773983562 1.2694468435 4.7361679359 4.0586291765 3.3002448419 4.7608218634 0.3334719824 1.6406521479 1.4663644738 10.0667139509 0.8341779195 1.6066997314 4.8805624126 4.1278306933 4.7720303564 5.5511624289 0.8591147130 2.8870970546 7.0617792713 3.3792457713 3.4613510340 8.5628607131 4.0866042339 5.9780933812 3.3122277397 1.5626114602 0.3745901259 1.8833912289 4.0814875101 3.4650279262 3.3610545520 1.5828851500 2.8813520904 1.7995503828 0.9221617492 0.3760920120 7.0925070097 3.4006567002 5.9646209473 8.5787382456
5.0153746694 6.4225882426 10.5720858496 2.4658934437 0.0149247705 5.2726933897 4.9145960315 3.2655117815 10.5452333001 2.4309403324 3.2050611337 5.3191361575 2.4236619754 4.7873589049 2.2821713503 2.5530886368 1.6818711047 8.2880961939 0.0662867418 4.7586338894 7.5637652421 4.8934711438 1.6514814295 2.9856970714 2.7358207492 4.8533506265 9.3977434526 4.7124674524 4.7945808109 4.1415500125 2.2294822167 1.6106237298 1.1489090982 0.2586359917 1.5551157657 6.3790655594 3.7747339444 1.6296843485 1.1852893884 1.1691233869 4.7891647129 9.3732531752 3.6811251055 1.5681470528 6.4524092348 1.2850208192 4.7912200617 4.0499747378 3.2551875353 4.8145375079 0.3493450599 1.6742224331 1.6865330097 10.2152092630 0.7368442656 1.5879765663 4.8926923838 4.2155608938 4.7358949794 5.6155051054 0.8959531976 2.7952116607 7.1265977419 3.3622275534 3.6135239470 8.6540600683 4.0764787002 6.0646885339 3.4387714103 1.5772581750 0.3277413402 1.8359131863 4.0409154849 3.5874489935 3.3688592248 1.5819789724 2.8026409035 1.9320222521 0.8903752460 0.3217473607 7.0869080074 3.3604205140 6.0922395051 8.6695542453
4.9677355967 6.2132052458 10.4247545038 2.4497430859 -0.0122707860 5.2030982050 5.0289832295 3.0735680814 10.4033942956 2.5372190993 3.1091743667 5.1524402597 2.4654488737 4.7486112768 2.2166488812 2.5693829349 1.4989603152 8.2116734041 0.0221768962 4.7336365651 7.4198598703 4.9548759474 1.5366447981 2.9904236345 2.7649666899 4.6343005201 9.3064318439 4.7502766146 4.6655710897 4.0693623527 2.2147209374 1.6000336028 1.1109630319 0.2549279085 1.5960812596 6.3571571059 3.7687850192 1.6259342806 1.1565653279 1.2104216465 4.6665917257 9.2450156399 3.7443724089 1.5448212079 6.4031846155 1.2710567456 4.6950416372 4.0386388423 3.3044444152 4.6972154707 0.3299637625 1.6605648540 1.4364615722 10.0894916334 0.7736036446 1.6015269811 4.8906610368 4.1898317602 4.7114750512 5.5311938798 0.8653632516 2.8530335205 7.0731754836 3.3409895186 3.3834935396 8.5937659210 4.1149427004 5.8894759236 3.2837717790 1.5968771289 0.3531028137 1.8943990680 4.1058225424 3.4308789200 3.3563813584 1.5650917680 2.8231141790 1.8015375694 0.9184121762 0.3583380184 7.0979058369 3.4578232582 5.8687106312 8.5673823706
4.9790875635 6.2794261521 10.5250900924 2.4756725443 0.0091167594 5.2187191591 4.9866270504 3.1681488487 10.5954603800 2.5035365856 3.1532368386 5.2807182719 2.3353180555 4.7029070828 2.2090502329 2.6080234926 1.5809055257 8.3375259267 0.1283473323 4.6947177728 7.4775016661 4.9102297146 1.6057752617 3.0513277029 2.7746505666 4.7397581333 9.3992625910 4.6970706079 4.7108089258 4.0856856238 2.2446891971 1.5416023152 1.1506217434 0.2862116434 1.5844301610 6.4435556859 3.7907443478 1.5388925142 1.1634597919 1.2261279373 4.7168808419 9.3518535995 3.7498297930 1.5551553594 6.4878605615 1.2423926231 4.7027619962 4.0323138462 3.3019904799 4.6783982225 0.3422363992 1.6667021730 1.5089458534 10.2221500247 0.8075919731 1.6433797585 4.9751617707 4.1803439676 4.7265901660 5.5692365347 0.8735071594 2.8119412482 7.2130817787 3.3959188677 3.4968829233 8.6311039833 4.0759855913 6.0034156044 3.3772842458 1.5850786486 0.3030035347 1.9001740630 4.0310305581 3.4938073141 3.3335156024 1.5671418234 2.7849469312 1.8609544465 0.9397932508 0.3423408937 7.1514650485 3.4351247850 5.9947364840 8.7117748433
5.0641089387 6.3177712263 10.6405257135 2.5296425245 -0.0273381547 5.3556376370 5.0166019247 3.2112803546 10.5997000111 2.4724223290 3.1815960800 5.3476682238 2.4950015333 4.7141644221 2.2743290978 2.5695350854 1.6725653981 8.3490434201 0.0754822804 4.6842885931 7.5177803422 4.9726342688 1.6039966351 3.0756130899 2.7952614714 4.7788097589 9.4590413772 4.7763204557 4.7393751887 4.1688101385 2.2666242842 1.5916565367 1.1440862903 0.2587940081 1.5467212063 6.4434057612 3.8158323830 1.5825452717 1.1841313942 1.2331488657 4.7466710632 9.4029120282 3.7674603437 1.6368182630 6.4696904854 1.2672983877 4.6713158928 4.1599116311 3.3481492371 4.7078904126 0.3314963561 1.7129287538 1.6903695019 10.2702219797 0.8426575321 1.5869584438 4.9948426902 4.2043062098 4.7002832744 5.6216839125 0.9165748207 2.7648781671 7.2382478758 3.4418769152 3.5520958073 8.6878696257 4.1673673326 6.0196896380 3.4700809798 1.6539427214 0.3111417784 1.8573066471 4.1147574322 3.5342598261 3.3719767433 1.6469473362 2.8038008006 1.9183276019 0.8507321683 0.2869795678 7.1334969714 3.3682408673 6.0390088653 8.7332235124
5.1190394562 6.2514379934 10.5911074447 2.5541005831 0.0121428511 5.2436393739 5.0221777382 3.1107044962 10.5770422764 2.4894024748 3.1749376454 5.3393395942 2.4150612138 4.7313596344 2.2237497803 2.5945158530 1.4825280120 8.3338416461 0.1185289751 4.7244494607 7.5000249764 4.9666472543 1.5811704904 3.0737830422 2.8100472636 4.6461175009 9.4177518516 4.7869137806 4.7024996221 4.1115456721 2.2658862116 1.5769028051 1.1575084786 0.2721840424 1.5817644563 6.4506010759 3.8113025515 1.5569735539 1.1688600049 1.2552944385 4.6740908431 9.4264858964 3.7864959351 1.5536240568 6.4595826209 1.2727857583 4.7322247858 4.0943791129 3.3639359091 4.7466522781 0.2966966077 1.7099266502 1.5635154530 10.2739364629 0.8139925628 1.5136407214 4.9940655298 4.2353454532 4.7061669780 5.5774861319 0.8987555242 2.8489864847 7.1685160684 3.4046716568 3.3865004166 8.7145701747 4.1430813398 5.9321778451 3.3447239620 1.6292610873 0.3299547425 1.9026872220 4.1930492151 3.4823263191 3.3623862351 1.6306746061 2.7842017580 1.9009604065 0.8983005134 0.3845779256 7.2768159336 3.4304620324 5.8628247748 8.6413900177
5.0305533279 6.3262545179 10.5600890674 2.5003695456 0.0464845299 5.1866534310 4.9819619647 3.1511612862 10.4362459284 2.4969637084 3.1915054604 5.2657947748 2.4392788678 4.6823432776 2.1946272582 2.5840603036 1.5577151050 8.3187828872 0.0770394816 4.7793544148 7.4518610636 4.9221648650 1.6302484794 3.0627221077 2.7642620540 4.7799501381 9.3623923444 4.7297967180 4.7921469391 4.0721699991 2.2264323998 1.5419047386 1.1625669853 0.3008811737 1.6017524779 6.4313618830 3.7614335111 1.6188914010 1.2179485922 1.2180850225 4.7958648330 9.3289035330 3.7553902859 1.6254980859 6.4898828164 1.2666862581 4.7619906973 4.0202276756 3.3084476274 4.7946450609 0.3315296222 1.6803598177 1.5617335242 10.1881975432 0.7788844688 1.5519755892 4.9484348786 4.1989031657 4.7726581850 5.5595426195 0.9478558525 2.8492719094 7.1361272417 3.3682226453 3.5121046024 8.6429549136 4.0943004585 6.0410249772 3.3416345227 1.5814445362 0.2933971960 1.8716274061 4.0824579264 3.5748021394 3.3214570394 1.5495332266 2.7583305346 1.9141352901 0.9310265408 0.3575306544 7.1557063827 3.4464418623 6.0070902129 8.6542787000
5.0706518075 6.3086306536 10.5385657062 2.5216894145 0.0248483612 5.2128614946 5.1513872837 3.1576357352 10.4325259137 2.5754354480 3.1837991821 5.2802674879 2.4453591870 4.6809203266 2.2658256517 2.6136322550 1.6395880776 8.2044033928 0.0492195921 4.7995201227 7.5213366674 5.0532418521 1.6574080076 2.9890714870 2.8118823736 4.7820709697 9.3303175488 4.8282364735 4.7938364670 4.1476303501 2.2931337210 1.5023669507 1.1557105156 0.2694810764 1.6253019016 6.3612882717 3.8293855130 1.5629934185 1.1864197125 1.2720819286 4.7277465688 9.3075812715 3.8301016875 1.6045830700 6.4130558537 1.2626523197 4.7748742731 4.1110167779 3.3605915869 4.6575569931 0.3688935878 1.7409082094 1.5922345782 10.1188396904 0.7859971159 1.6654227531 4.8958036953 4.2812538056 4.7752548008 5.6276010660 0.9061189752 2.8248133044 7.1554931770 3.4500169023 3.5693091898 8.5109773629 4.2061555113 6.0514046424 3.4331487865 1.6467236351 0.2311635042 1.8272983742 4.1719509899 3.5576688500 3.3682194471 1.6163687548 2.7422531542 1.9275147867 0.8843226388 0.3573606811 7.0659194618 3.4434424296 6.0705128815 8.6597035501
5.0475986624 6.2591527520 10.5545461294 2.5167132269 0.0539223402 5.1780553764 4.9708360369 3.1273584085 10.4208028095 2.4850564652 3.1668622301 5.2442745764 2.4169375835 4.6334969461 2.1918958364 2.5914797742 1.5720499652 8.3031380621 0.0860867074 4.7357941337 7.4414396015 4.9311759647 1.6250999587 3.0627877313 2.7611826790 4.7381452801 9.3703027387 4.7483672067 4.7537515066 4.0585036260 2.2317195249 1.5526629283 1.1488274322 0.2542157963 1.5823696803 6.4327938619 3.7869834240 1.6135657053 1.1869750070 1.2083312201 4.7493806880 9.3242085538 3.7435161673 1.6198774234 6.4390153295 1.2656581091 4.6866807661 4.0592002228 3.3288377938 4.7323648523 0.3354445093 1.6836494021 1.6040872915 10.1814303024 0.7917529805 1.5602190823 4.9557520160 4.2153028410 4.7033352407 5.5115421763 0.9251761192 2.8308426730 7.1374376172 3.3337836101 3.4937490207 8.6055765679 4.1531929864 6.0073727428 3.3365008173 1.6304225319 0.2868518714 1.8579782426 4.0902297587 3.5235576086 3.2716836766 1.5824226635 2.7543591533 1.9600042327 0.9051044610 0.3576140197 7.2042738596 3.4632055568 5.9515893025 8.6219098927
4.9753362584 6.3390499573 10.5439972453 2.4893914669 -0.0075075189 5.2484352629 4.9638340304 3.1884860082 10.5914314815 2.4890235647 3.1735470951 5.2803792899 2.3852619472 4.7587002607 2.2322757159 2.5624913123 1.5887051409 8.3310635724 0.0832981837 4.7357651105 7.5005174242 4.9205153985 1.6005822112 3.0439570635 2.7822712647 4.7625185094 9.4195140698 4.6617711176 4.7761022700 4.1174427087 2.1980095940 1.5487939281 1.1262757989 0.2863946158 1.5966522132 6.4351776321 3.7590611763 1.5586384897 1.2128130764 1.2225772276 4.7925950443 9.3353509053 3.7374841065 1.5421855038 6.4889633827 1.2166328754 4.7449351707 4.0298161002 3.2832031820 4.7104189580 0.3691411376 1.6891463699 1.5468939118 10.1883328035 0.8018452464 1.6426139705 4.9435766827 4.1955831039 4.7508252233 5.6114182449 0.9352300243 2.8577121331 7.1891611407 3.4608251514 3.5383057049 8.6883233962 4.0223507838 6.0129131980 3.4004404559 1.5784738970 0.3307854505 1.9023821933 3.9979787748 3.5150692424 3.3985408463 1.5436057243 2.8097118732 1.8288495678 0.9868857074 0.3544426688 7.1501462825 3.4275215068 6.0253237112 8.7238972343
5.0093031717 6.2438023367 10.5504163007 2.4878978738 0.0157859989 5.2638791811 4.9776451429 3.1113380553 10.5880099839 2.4802213839 3.2065695517 5.3697891866 2.3877111606 4.7487421372 2.2475718370 2.5705664333 1.5159884473 8.2989995297 0.1184932470 4.7547184912 7.5005647548 4.8810237372 1.5821610813 3.0726391956 2.7631146892 4.6612187578 9.4165738733 4.7197065640 4.7150817525 4.1370944132 2.2159903874 1.5823549132 1.1292692282 0.2550657265 1.6002316278 6.4259915647 3.7689085011 1.5708263491 1.2330375141 1.2026523232 4.7205006877 9.3258933780 3.7046104275 1.5912038568 6.5023999270 1.2780288991 4.7265203355 4.0791743538 3.2407708664 4.6589398119 0.3447593848 1.7225300024 1.5614260002 10.2129029577 0.7885098591 1.5822936495 4.9507159536 4.2052815560 4.7134390498 5.6127350791 0.8914042884 2.8717716638 7.1178022798 3.3793399118 3.3884217634 8.7331661846 4.0807490753 5.9729408193 3.4175004480 1.6043616071 0.3411088006 1.8543477231 4.0828948005 3.4756821558 3.4018050251 1.5482284808 2.8254501467 1.8499329753 0.9230431921 0.3732461798 7.1720158596 3.4184776397 5.8550329515 8.6514118658
5.0959540506 6.2133258862 10.6231898028 2.5390688367 0.0158910434 5.3827429837 5.1504339982 3.1201837578 10.6166818930 2.5821902957 3.0892726769 5.3145694173 2.5228540593 4.6084730948 2.2512136688 2.6065299172 1.6366087948 8.3772477588 0.0719076271 4.5818522404 7.5017019540 5.0447434543 1.5766445800 3.1207278995 2.8348435949 4.7196348758 9.4416178663 4.8412194217 4.6572369787 4.1723374862 2.2897403853 1.5498233683 1.1802484171 0.2534443785 1.5424155958 6.4856030839 3.8382125297 1.5460153693 1.2322888424 1.2883746784 4.6614767634 9.3957914595 3.8322152378 1.6164903780 6.5217040243 1.2716384169 4.6816636535 4.1419998143 3.3487074505 4.5984928513 0.3067281798 1.7842428804 1.5829543286 10.3026889019 0.8137196870 1.6081690021 5.0338648338 4.2811251124 4.6090093823 5.6307548054 0.9654584559 2.7212371164 7.2947299223 3.5340339414 3.5310606716 8.6426376910 4.2033293755 5.8986574171 3.4477045796 1.6646865134 0.3060096266 1.9258241974 4.2111366663 3.4253065034 3.3897376600 1.6345112278 2.7686363500 1.9259401227 0.8336322774 0.2852087329 7.1798729963 3.4529376914 5.9851339040 8.7556657915
5.1196792828 6.2330826566 10.4369576387 2.5655854850 -0.0458972521 5.2674019528 5.0430045757 3.0975703215 10.3930804120 2.5267848347 3.1697263237 5.2716987957 2.4277482405 4.7170444247 2.2179851212 2.6437923448 1.5299355658 8.1869807045 0.1362077482 4.7545623905 7.4409899858 4.9540759708 1.5515676346 2.9723545706 2.8291169062 4.6985227140 9.2332655848 4.7775543862 4.7142258405 4.0870082779 2.2657459322 1.5836411610 1.1508340760 0.2993145342 1.5524470483 6.3131577686 3.8007668378 1.5564144368 1.2144326226 1.2878576664 4.7059816539 9.2036926429 3.7970901798 1.5596301701 6.3960980845 1.2601971722 4.7428349191 4.0008191343 3.3175790488 4.7798274784 0.2935231525 1.7730607730 1.5641557471 10.0986299688 0.8167538217 1.4826649381 4.8411379586 4.2935786978 4.7162286894 5.5579932323 0.9340442934 2.8288734377 6.9985604701 3.4495749956 3.4144158800 8.5432824328 4.1071998181 5.9242591500 3.3382032230 1.5687990285 0.3603700403 1.8655097551 4.1525820927 3.4662564807 3.3598713300 1.6620827695 2.8417757552 1.8965152084 0.9269613829 0.3523144936 7.0873534741 3.4976666099 5.9031494952 8.4871254515
5.1324670358 6.2243950886 10.5903551634 2.5907012907 0.0142815740 5.2187473654 5.0572228801 3.0886682237 10.5367947659 2.5061840361 3.1212092154 5.2847803260 2.4369585237 4.6864196148 2.1903151638 2.6094857828 1.4561654168 8.3495490972 0.0940786472 4.6907838689 7.4976903701 5.0211773344 1.5568738350 3.0459486192 2.8157476223 4.6232640156 9.4105632272 4.8168479047 4.6936562164 4.0744060129 2.2918710070 1.5552598321 1.1702998683 0.2658327213 1.5503417669 6.4570814661 3.8285911029 1.5502884775 1.1684109988 1.2777249414 4.6121688680 9.3837978398 3.8079977577 1.5380328046 6.4580966588 1.2715726298 4.6927661520 4.0786521058 3.4312811546 4.7581004346 0.2845203775 1.7105595017 1.5146553825 10.2764264169 0.8356709809 1.4971680161 5.0085984817 4.2822863879 4.6922918943 5.5430388372 0.8738026985 2.8138328161 7.1494395363 3.4208861992 3.3632033232 8.6635993594 4.1807484421 5.9181252094 3.3116540071 1.6173089189 0.3284649006 1.9287130604 4.2129342762 3.4115060855 3.3457802442 1.7054252578 2.8103103712 1.9570608794 0.9056642923 0.3552465010 7.2914920765 3.4520159163 5.8468993890 8.5745890966
5.1870055291 6.1775084583 10.4272659641 2.5868010059 -0.0150463979 5.2486276300 5.1119607825 3.0751694691 10.3977659050 2.5550872925 3.1505355295 5.2438107900 2.4325808833 4.6703148222 2.1801542630 2.6825359775 1.5358025071 8.2200560282 0.1520186545 4.6765215352 7.4207941952 5.0044618859 1.5379391819 3.0168111788 2.8601122516 4.6340232963 9.2422193962 4.8305813756 4.6607728714 4.0657610718 2.2751836532 1.5782388710 1.1661930219 0.2952819223 1.5416831780 6.3289814970 3.8235097333 1.6030165004 1.2004377079 1.3208136206 4.6552479976 9.1882930820 3.8768410713 1.5491310683 6.4100613581 1.2631130874 4.6920171410 4.0011367351 3.3773874196 4.7196630666 0.3121409569 1.7664040780 1.5460643264 10.1049364392 0.8289112750 1.4871825525 4.8709720021 4.3171036986 4.6518206829 5.5400706394 0.9458016354 2.7937807548 7.0175597374 3.4861463768 3.3921763563 8.5349900592 4.1494177882 5.9007796782 3.3338256657 1.6135272546 0.3098976403 1.8750759369 4.2186159360 3.3942936014 3.3753517795 1.6533200704 2.7859887343 1.9197531488 0.9654372826 0.3207547231 7.1007685381 3.5288430180 5.8484956315 8.4560180951
5.0903571902 6.2215066269 10.6293592127 2.5423337996 0.0013323637 5.3817219747 5.1325452659 3.1273392427 10.6166043705 2.5662137630 3.1023289508 5.3258937382 2.5237366179 4.6210658711 2.2541309144 2.5999437139 1.6378599937 8.3736643297 0.0730390635 4.5943899382 7.4971521995 5.0370626241 1.5776132062 3.1185018823 2.8387511947 4.7192859487 9.4375173682 4.8357947037 4.6571618170 4.1769421597 2.2976246757 1.5557754259 1.1717227079 0.2631582597 1.5540098906 6.4820838605 3.8420876560 1.5432659380 1.2178339948 1.2761799353 4.6762600890 9.4049012984 3.8180703818 1.6183776017 6.5120443862 1.2737635275 4.6775552959 4.1502531551 3.3462676205 4.6021703115 0.3217563495 1.7715584360 1.6095173869 10.2993322712 0.8231393876 1.6003227757 5.0186556581 4.2650365708 4.6216777942 5.6327887970 0.9553819036 2.7164627275 7.2937301845 3.5243012598 3.5350544416 8.6625169792 4.1985523054 5.9215218528 3.4411292983 1.6652391712 0.2993371810 1.9200224135 4.1956692945 3.4482472619 3.3805827487 1.6283575793 2.7782239305 1.9147810901 0.8230782104 0.2683768617 7.1853976855 3.4361136492 5.9930326084 8.7457499764
5.0301002940 6.2239610699 10.5201554206 2.4880157125 0.0442543754 5.2045560807 5.0661606611 3.1347115858 10.5634864421 2.5408706177 3.1381495326 5.2899333066 2.3282602700 4.6399923235 2.1894596263 2.6698398302 1.5797165833 8.3368747492 0.1560253398 4.6766627061 7.4703843476 4.9346986117 1.6013159603 3.0518539441 2.7774683522 4.6840858287 9.3803969535 4.7702078303 4.6969121598 4.0835911219 2.2558925790 1.5327178433 1.1519588749 0.2577313123 1.5579702839 6.4375512413 3.7780343316 1.5629012314 1.1928156789 1.2452024283 4.6751665412 9.3495064397 3.7576284467 1.5800783955 6.4666255252 1.2509814443 4.6426283299 4.0719028856 3.3352998701 4.6662367356 0.3200431341 1.7078880066 1.5657849596 10.2052100403 0.7796604359 1.5937396397 4.9767251568 4.2446974327 4.6637586207 5.5445114578 0.9089228685 2.7567275972 7.2094465376 3.3926330699 3.4709380684 8.5966239445 4.1713488197 5.9569204071 3.3672840564 1.6149238889 0.3104183384 1.9111811001 4.1412663513 3.4971013731 3.3073514078 1.6311895311 2.7457313141 1.9298983355 0.8973933216 0.3058201470 7.1285155055 3.4427829634 5.9172038845 8.6562561528
4.9719372956 6.2019364193 10.4258100656 2.4561709551 -0.0104757072 5.1988872421 5.0363063411 3.0687561498 10.4032429585 2.5411657688 3.1043096192 5.1492667288 2.4675103588 4.7407191666 2.2100622995 2.5728831582 1.4971547801 8.2185863040 0.0191861354 4.7255145230 7.4216677845 4.9647362566 1.5332699157 2.9909442332 2.7659119092 4.6246546804 9.3098157689 4.7578865714 4.6623709668 4.0642924699 2.2206697043 1.5950774806 1.1157326754 0.2530749655 1.5933079672 6.3593075345 3.7739249238 1.6195400634 1.1587366909 1.2092401220 4.6644306905 9.2373508101 3.7454664632 1.5429030803 6.4042850054 1.2728699549 4.6884268750 4.0389633867 3.3072953197 4.6910323635 0.3267766523 1.6684988870 1.4399105217 10.0906841656 0.7656595723 1.5975987111 4.8931115720 4.2025956753 4.7044808762 5.5323684300 0.8674686776 2.8440896491 7.0734351485 3.3448380206 3.3719103330 8.5953536660 4.1176459358 5.8846964981 3.2821837206 1.6043489955 0.3503281505 1.8985298909 4.1097900342 3.4167771476 3.3545897045 1.5606881695 2.8257577354 1.8066326007 0.9226369970 0.3539378063 7.1033213326 3.4640887113 5.8582741665 8.5597860880
4.8795356428 6.2698094119 10.5375906173 2.4543171652 0.0253925237 5.2747509137 4.9759944013 3.1170094209 10.5605323461 2.5010879264 3.2071528754 5.3549388085 2.3939158204 4.7360433578 2.2495171437 2.5651528387 1.5416335729 8.3011736444 0.0889091128 4.7754649730 7.5000415638 4.8395957851 1.5800631460 3.0418088342 2.7540610661 4.6627271146 9.3656587726 4.6843853838 4.7438572670 4.1605261605 2.1861469633 1.5549299766 1.1459159341 0.2691843383 1.6213201044 6.3920876255 3.7451715444 1.5867399116 1.2313923319 1.1877894232 4.6894277972 9.2796554601 3.6807715475 1.5537266971 6.4805694904 1.2773774548 4.7158615590 4.0480767054 3.1698381092 4.7046681524 0.3351954043 1.7503155272 1.5008332335 10.1880554364 0.7181418018 1.6503569540 4.8864182639 4.2310165648 4.7758498185 5.6650331422 0.9164702671 2.8523597249 7.1314444520 3.3911287542 3.3992060378 8.6858413484 4.0242232590 5.9905529877 3.4493793770 1.4990246208 0.3409162560 1.8471878991 3.9615225648 3.5206902310 3.4678028480 1.5231459097 2.8249605074 1.8223298727 0.9616858277 0.3818067632 7.0771426404 3.4530269433 5.8962909602 8.7072321563
5.0528379493 6.3779250194 10.6251236782 2.5048828413 -0.0128661877 5.3287177886 4.9624119312 3.2530331437 10.5793115358 2.4383976522 3.2062756695 5.3452702379 2.4674647654 4.7599294164 2.2827086773 2.5582098306 1.6881808063 8.3290510008 0.0722835836 4.7276400278 7.5436276857 4.9362350297 1.6277238335 3.0376668194 2.7428525914 4.8134714959 9.4401134642 4.7265119794 4.7719914848 4.1570870964 2.2479020140 1.6053675064 1.1389796059 0.2601832471 1.5630479481 6.4124353670 3.7924093990 1.6114624416 1.1855265756 1.2104963682 4.7646537756 9.3981346090 3.7013514782 1.6184047536 6.4558252270 1.2827556299 4.7138125046 4.1158591048 3.3357513809 4.7814754032 0.3433243819 1.6874270811 1.6836999644 10.2314780970 0.8127835117 1.5861092394 4.9496148572 4.2029744264 4.7277704214 5.6314255248 0.9008974392 2.7813436464 7.1815115828 3.3951790162 3.5872707837 8.6813158538 4.1487188446 6.0705413569 3.4688610175 1.6276718815 0.3274301436 1.8258657881 4.0888640711 3.5661106548 3.3759042298 1.6362974360 2.8226650766 1.9596999395 0.8954871125 0.2784495317 7.1225154541 3.3721972999 6.0749791919 8.7157610923
4.9185592131 6.3522858079 10.5682089181 2.4792286215 0.0186311030 5.2404680648 5.0050771007 3.1468604628 10.5077211446 2.5217822945 3.2065591130 5.3172227628 2.4350304552 4.7347091624 2.2198158196 2.5796714663 1.5361733607 8.3289386424 0.0705217222 4.8084839910 7.4903014123 4.8810984266 1.6006754977 3.0299124982 2.7743610116 4.7483498827 9.3781716181 4.6947420111 4.8122254573 4.1294863891 2.1794528347 1.5308973418 1.1627112944 0.2907614485 1.6020846158 6.4073703869 3.7380815211 1.5452468970 1.2540961549 1.2074106730 4.7476317375 9.2726305284 3.7350902355 1.5672208624 6.5114519719 1.2537553165 4.7875383958 4.0303894397 3.2418919912 4.7542918034 0.3441956762 1.7234235781 1.4910860405 10.1998038677 0.7636570318 1.6642150895 4.9032716963 4.2435557911 4.8370458276 5.6370317030 0.9425883446 2.8491554852 7.1165157838 3.4574646949 3.5092587933 8.6860683238 4.0213541515 6.0518125905 3.4254126425 1.5545673925 0.3074603002 1.8933118444 3.9992191732 3.5376336335 3.4608093857 1.5128889120 2.8097497973 1.8362256483 0.9978746980 0.3627475927 7.0894078076 3.4209796431 5.9769205835 8.6441539238
5.0049478205 6.1369335333 10.4495122179 2.5123256099 0.0030989803 5.1789578207 5.0684900929 3.0374805488 10.4078610481 2.5517655832 3.0682847202 5.1476447482 2.4684185527 4.6775261704 2.1709821630 2.5932252856 1.4790399030 8.2677752351 0.0085191587 4.6708011651 7.4405559685 5.0200818646 1.5118471668 2.9924327735 2.7645534663 4.5778569672 9.2964639343 4.7930353514 4.6283015969 4.0446731145 2.2565936548 1.5625854161 1.1484594067 0.2333490273 1.5514058274 6.3873046241 3.7999164181 1.5531152666 1.1771626535 1.2342377492 4.6605857199 9.2279992701 3.7643836062 1.5202064011 6.4230934506 1.2571814242 4.6421572026 4.0189374377 3.3285684449 4.6548592946 0.3033829844 1.7156099519 1.4790284752 10.1533709686 0.7420800432 1.5421689543 4.9008217101 4.2803186628 4.6645705962 5.5058126350 0.8780672842 2.8123229172 7.0984770024 3.3966560489 3.3031204182 8.6177830981 4.1407674952 5.8534231292 3.2795692197 1.6440561459 0.3411108339 1.9265353305 4.1574182923 3.3682987454 3.3561887640 1.5730824603 2.8167660111 1.8329855035 0.9247860044 0.3483985516 7.1305416920 3.4593458212 5.7515093900 8.5365074625
4.9547478023 6.2888692814 10.4352763871 2.4334337921 -0.0250600098 5.2324538159 4.9869756195 3.1066291272 10.4080543162 2.5097195468 3.1388165813 5.1868077928 2.4503083581 4.7966134641 2.2537952521 2.5547756684 1.5115726516 8.1780007756 0.0434112009 4.7893839173 7.4187860130 4.9044992591 1.5523507886 2.9832618225 2.7506214163 4.7006915433 9.3152406803 4.7039970682 4.7209534372 4.0895485605 2.2010133819 1.5844391551 1.0884831218 0.2799751502 1.6240737136 6.3471412063 3.7391337627 1.6283964590 1.1425822600 1.2126300121 4.7124056376 9.2853854648 3.6971901435 1.5528088761 6.3904079793 1.2735486650 4.7286606402 4.0472383659 3.2952200124 4.7433325318 0.3311873904 1.6334324460 1.4492846425 10.0797716683 0.8244152733 1.6119926742 4.8749720936 4.1320260156 4.7585044123 5.5404720516 0.8549366672 2.8901805176 7.0685925396 3.3639817086 3.4307056350 8.5656879787 4.0973459794 5.9471892349 3.3047992535 1.5679971365 0.3774602858 1.8764020978 4.0830018456 3.4610468093 3.3551554542 1.5722985039 2.8784441145 1.8062293710 0.9111310606 0.3768765920 7.0845073018 3.4109801992 5.9383113411 8.5921899090
5.0644312555 6.3141987181 10.6409711074 2.5306079863 -0.0274679940 5.3568370900 5.0199719226 3.2084833663 10.6007122465 2.4749546160 3.1795333916 5.3475146543 2.4963503310 4.7111693259 2.2737514010 2.5702075720 1.6714122803 8.3499744755 0.0755818037 4.6815414755 7.5164215464 4.9746935421 1.6026704537 3.0776655988 2.7966290168 4.7774481756 9.4602060543 4.7784861015 4.7379162806 4.1691453131 2.2675983435 1.5891355814 1.1452826595 0.2585443459 1.5457825001 6.4443365089 3.8177439167 1.5809534867 1.1841001039 1.2370915668 4.7452477638 9.4033791554 3.7715964375 1.6370843171 6.4709940452 1.2674384147 4.6699966690 4.1614345485 3.3473138567 4.7028791278 0.3303187192 1.7143337520 1.6904395183 10.2722616353 0.8428888192 1.5871944237 4.9969325558 4.2047284130 4.6981758387 5.6214743942 0.9180106828 2.7648538048 7.2423495722 3.4452066672 3.5490548511 8.6871955392 4.1686870165 6.0138851475 3.4705206212 1.6554466647 0.3120837177 1.8586207740 4.1162027804 3.5322887989 3.3715705794 1.6461218095 2.8031339961 1.9161619414 0.8475819479 0.2871829899 7.1347681838 3.3686096057 6.0376433035 8.7334622379