-32411.8351855396
-32411.8470369075
-32411.782158607
-32411.79682227
-32411.8131345339
-32411.8392169041
-32411.8376968769
-32411.8487621084
-32411.8324599127
-32411.8568825254
-32411.81663378
-32411.8317724175
-32411.81136389
-32411.8530538857
-32411.7987801281
-32411.835990724
-32411.781632067
-32411.8251596464
-32411.8150394658
-32411.7981519536
-32411.8561855062
-32411.7817466268
-32411.8276435003
-32411.8035844315
-32411.8408165244
-32411.780198436
-32411.84547756
-32411.7934618019
-32411.8141314224
-32411.8275669003
-32411.8139633922
-32411.8441908704
-32411.7918326572
-32411.7606888361
-32411.8437073243
-32411.7994265342
-32411.8141820356
-32411.8557271306
-32411.8370466613
-32411.8155385224
-32411.8203494926
-32411.8064914221
-32411.7829104571
-32411.7805856537
-32411.7807023905
-32411.7896679927
-32411.7764582332
-32411.8316864295
-32411.8313088718
-32411.7852012463
-32411.8040104255
-32411.7794513478
-32411.8504731593
-32411.7895433646
-32411.7979797056
-32411.8477151509
-32411.7900111281
-32411.8367071994
-32411.7782220742
-32411.8163019373
-32411.8336576212
-32411.8048051335
-32411.807706818
-32411.797229216
-32411.8069949685
-32411.8514978035
-32411.8077673633
-32411.8039896088
-32411.8095407283
-32411.8050005112
-32411.8010539101
-32411.8061534569
-32411.8318513304
-32411.8518071967
-32411.8046922064
-32411.8156503611
-32411.8133480071
-32411.8262388493
-32411.829006926
-32411.8358914025
-32411.8439018856
-32411.8116262076
-32411.8324141976
-32411.817100591
-32411.791901638
-32411.8344305601
-32411.8303253168
-32411.8298054436
-32411.8103925802
-32411.7769061323
-32411.8452074871
-32411.7692270837
-32411.7824617416
-32411.7981915461
-32411.8184583023
-32411.8343226671
-32411.7914450312
-32411.7943299806
-32411.7905363075
-32411.8270315166
-32411.822145443
-32411.8270192714
-32411.8348704319
-32411.846171586
-32411.799184353
-32411.8308144412
-32411.8157168929
-32411.7963724661
-32411.7949165217
-32411.8648340959
-32411.8497719223
-32411.8185859237
-32411.795139655
-32411.8304431421
-32411.8424372336
-32411.7958946344
-32411.8243611288
-32411.8493393976
-32411.8408090413
-32411.7834095137
-32411.7917732003
-32411.8458507639
-32411.7825675939
-32411.8143922434
-32411.832415014
-32411.8320966409
-32411.8006121336
-32411.8205451423
-32411.8299623172
-32411.8335646944
-32411.8154404254
-32411.8627435824
-32411.7938709248
-32411.8270448501
-32411.8175195101
-32411.7963740987
-32411.8374141508
-32411.8048550664
-32411.7960147726
-32411.797597794
-32411.7614229989
-32411.8443844793
-32411.7806687845
-32411.7853945831
-32411.8555114805
-32411.7675569859
-32411.7886668864
-32411.8515742674
-32411.8516237921
-32411.8468707821
-32411.7835950952
-32411.8542809824
-32411.7997080358
-32411.798531144
-32411.8010306444
-32411.8220370057
-32411.8007779869
-32411.81670072
-32411.8597742777
-32411.8492943628
-32411.7924107627
-32411.79223661
-32411.7729248368
-32411.8132594341
-32411.8316333674
-32411.847729709
-32411.7930786658
-32411.8377126595
-32411.7978922211
-32411.8310981197
-32411.8199130222
-32411.8285265092
-32411.7916605452
-32411.8347047147
-32411.8292953665
-32411.8192116491
-32411.8506919388
-32411.8248907981
-32411.8298080287
-32411.8139906036
-32411.8112014382
-32411.7924519879
-32411.8108973511
-32411.7749397027
-32411.8570072895
-32411.7619775666
-32411.7915080255
-32411.7856526829
-32411.8332203345
-32411.8296289779
-32411.8175282177
-32411.8191857983
-32411.8275082598
-32411.7779389399
-32411.8057583478
-32411.8599752337
-32411.8706197773
-32411.77415792
-32411.8085354042
-32411.8431066333
-32411.8398507929
-32411.7828688237
-32411.7880142217
-32411.8356673169
-32411.8456698083
-32411.8002393378
-32411.8394394931
-32411.8194587284
-32411.8577520647
-32411.8479137939
-32411.8218516962
-32411.799653613
-32411.8129647349
-32411.8077306279
-32411.8517813459
-32411.8237483287
-32411.8380834144
-32411.787347271
-32411.8526559194
-32411.8180717648
-32411.8259584362
-32411.834286612
-32411.7802238786
-32411.865301179
-32411.8515137221
-32411.8076591981
-32411.8371112883
-32411.8331294485
-32411.7927647826
-32411.8220178216
-32411.8081373018
-32411.8386713161
-32411.8369314211
-32411.8270863475
-32411.8350145161
-32411.7962146401
-32411.7939428989
-32411.8281101753
-32411.8041255296
-32411.8157087295
-32411.831431323
-32411.8161393494
-32411.8346338291
-32411.813735497
-32411.8064772722
-32411.8446198576
-32411.8278666335
-32411.8253659086
-32411.8466031583
-32411.8008232938
-32411.8294753697
-32411.8393683353
-32411.7897485383
-32411.8254305356
-32411.8285844694
-32411.8338436109
-32411.8423034897
-32411.8192843035
-32411.7653187147
-32411.8190497415
-32411.8009228874
-32411.8058373969
-32411.8097397794
-32411.8212301885
-32411.7610121072
-32411.782967601
-32411.8433101744
-32411.8285078694
-32411.8381521231
-32411.8376627267
-32411.7986989021
-32411.7981764438
-32411.824017041
-32411.7762499301
-32411.8308266863
-32411.8398678
-32411.8517833868
-32411.8281342573
-32411.828537938
-32411.8215640721
-32411.8268740988
-32411.7727644258
-32411.7790574632
-32411.7872967939
-32411.8299946987
-32411.8200798279
-32411.8333444183
-32411.8467759505
-32411.7651093232
-32411.8313156746
-32411.8379113025
-32411.790774407
-32411.836108005
-32411.8358508576
-32411.7887966846
-32411.8172027697
-32411.7709272501
-32411.7820399654
-32411.7761021724
-32411.8116395412
-32411.8080830152
-32411.8040686578
-32411.7868463097
-32411.8162544535
-32411.8312464217
-32411.7919385094
-32411.8484910832
-32411.7786060266
-32411.7637235842
-32411.8427195516
-32411.781053009
-32411.8031314982
-32411.8425135615
-32411.8203464993
-32411.8089426223
-32411.8084815257
-32411.8082834269
-32411.7895984676
-32411.8153189266
-32411.8677300659
-32411.8404369258
-32411.8254112155
-32411.79512292
-32411.8509651409
-32411.8508474517
-32411.7907708695
-32411.8216670671
-32411.8308454622
-32411.8001332134
-32411.8228772928
-32411.8019479397
-32411.8007386664
-32411.7982333156
-32411.7842560594
-32411.8318094249
-32411.8576754647
-32411.8140760473
-32411.8075198759
-32411.7876875492
-32411.8118659398
-32411.8350935652
-32411.8183674164
-32411.8338852443
-32411.8065236676
-32411.7950108091
-32411.8461377078
-32411.8499287959
-32411.7908491022
-32411.8329663163
-32411.8552478024
-32411.8543680588
-32411.7963521936
-32411.8102063184
-32411.8686794706
-32411.800747238
-32411.8227016434
-32411.8515247427
-32411.7939794982
-32411.8469737772
-32411.8352764256
-32411.7709618086
-32411.804942551
-32411.8519952273
-32411.8551337867
-32411.8309498178
-32411.7891366907
-32411.7605984944
-32411.772372582
-32411.8092110625
-32411.7615417765
-32411.7889471635
-32411.7891036289
-32411.8501222687
-32411.7889119248
-32411.7824401086
-32411.8136393048
-32411.829095499
-32411.8345398138
-32411.8295370034
-32411.8317936423
-32411.8024189685
-32411.8103867297
-32411.8480893073
-32411.839130508
-32411.7773941682
-32411.7989413554
-32411.8312337684
-32411.7639693028
-32411.8529166043
-32411.7939876616
-32411.8323627681
-32411.8323823603
-32411.8285549451
-32411.7861699711
-32411.8603801388
-32411.8062292406
-32411.7979703177
-32411.7934680605
-32411.7889848512
-32411.8198747902
-32411.811770564
-32411.8199456758
-32411.8236213877
-32411.8043580507
-32411.8614242391
-32411.8263693279
-32411.7820801022
-32411.8236302314
-32411.8052543933
-32411.8757259909
-32411.7733234834
-32411.8444968622
-32411.8334241476
-32411.8319356857
-32411.8383344393
-32411.8301715726
-32411.8033444272
-32411.8165586766
-32411.8480426398
-32411.7674435145
-32411.845475247
-32411.8099212793
-32411.8100109407
-32411.8165169072
-32411.7842412292
-32411.8302895339
-32411.7954260546
-32411.8255757083
-32411.8760262684
-32411.8513549438
-32411.8343283815
-32411.7805089177
-32411.7918850391
-32411.8111086474
-32411.8612979783
-32411.8107231983
-32411.7933477862
-32411.8489625201
-32411.8384959388
-32411.8305688586
-32411.8478128398
-32411.7849189284
-32411.8500464851
-32411.8406664537
-32411.8468691494
-32411.7743713932
-32411.8578739717
-32411.813201746
-32411.8191413077
-32411.8233261443
-32411.8569240227
-32411.8326815493
-32411.8044837673
-32411.8425394123
-32411.8678302037
-32411.844154135
-32411.8233353962
-32411.8437218824
-32411.7992239455
-32411.837725721
-32411.8160290073
-32411.7785888834
-32411.7937023504
-32411.8250942031
-32411.8147400047
-32411.8295221732
-32411.8182188423
-32411.8380194677
-32411.8133123602
-32411.8481463151
-32411.851735903
-32411.8373825856
-32411.8536978427
-32411.8282171159
-32411.7868208671
-32411.854337582
-32411.7960225278
-32411.8635890396
-32411.7960296028
-32411.8328493074
-32411.8328728453
-32411.8495808985
-32411.8321099745
-32411.8065360488
-32411.8128384742
-32411.852726805
-32411.8439628391
-32411.8120249903
-32411.7963234856
-32411.794996251
-32411.8683257228
-32411.8114674293
-32411.8506941157
-32411.7987327803
-32411.8068038087
-32411.7920853147
-32411.7930680534
-32411.777022597
-32411.7957847005
-32411.7971561535
-32411.8387159427
-32411.8146525201
-32411.8451889834
-32411.8202912602
-32411.8190648438
-32411.8661358878
-32411.8101555692
-32411.7784046625
-32411.8334977544
-32411.8041102912
-32411.8579964228
-32411.8037252503
-32411.762868739
-32411.8457764769
-32411.7806621177
-32411.83340578
-32411.7993602745
-32411.7762227188
-32411.8133058294
-32411.8110491905
-32411.7890494782
-32411.8333951675
-32411.7893244491
-32411.8113636179
-32411.8032191189
-32411.8435950774
-32411.8457009653
-32411.8476886199
-32411.7856379888
-32411.821152364
-32411.8085967658
-32411.8267926007
-32411.8136243385
-32411.8338044265
-32411.8109591209
-32411.8394405815
-32411.8473137832
-32411.8325997792
-32411.8334195217
-32411.829571834
-32411.7680462463
-32411.8041836259
-32411.7971772423
-32411.7991910198
-32411.8342814418
-32411.8324737905
-32411.8081906361
-32411.8468914628
-32411.8523794519
-32411.8167265708
-32411.8020820918
-32411.8565112263
-32411.7942129717
-32411.8197383252
-32411.832192561
-32411.837024484
-32411.8504478528
-32411.8353913936
-32411.8318662967
-32411.8387737669
-32411.8118550553
-32411.8527156483
-32411.8248697093
-32411.8149582399
-32411.8358826949
-32411.8227376984
-32411.8452314331
-32411.7955072806
-32411.7893375106
-32411.7887028054
-32411.8014984079
-32411.8306876362
-32411.8270560068
-32411.8034908244
-32411.8511118102
-32411.7829775332
-32411.7905421579
-32411.8185338139
-32411.8556995111
-32411.8400219524
-32411.8315888768
-32411.8052100387
-32411.8397894313
-32411.7659611751
-32411.7801600679
-32411.8004581172
-32411.7852426076
-32411.7868721605
-32411.8397822203
-32411.7877547613
-32411.8392952728
-32411.8395415357
-32411.8009749972
-32411.8126816006
-32411.812754391
-32411.8221674842
-32411.7975489496
-32411.832699917
-32411.8142051652
-32411.8134597097
-32411.8670869252
-32411.8407800612
-32411.786825629
-32411.8385690013
-32411.8026927149
-32411.8033562642
-32411.7803553095
-32411.8074679021
-32411.8208792979
-32411.7671328967
-32411.7980384822
-32411.8277843191
-32411.8225458583
-32411.8312178498
-32411.7966078444
-32411.7944897114
-32411.8258002021
-32411.8094570533
-32411.8294447569
-32411.839322076
-32411.8021057657
-32411.8522891101
-32411.8018709315
-32411.816219759
-32411.8337818411
-32411.830557974
-32411.8430150671
-32411.7983005277
-32411.8013871134
-32411.8163925512
-32411.8054216071
-32411.8392875176
-32411.8079261416
-32411.8286680083
-32411.8354411904
-32411.7968658082
-32411.7955823839
-32411.7956240173
-32411.8481057702
-32411.8546718737
-32411.8351380558
-32411.8393872472
-32411.8182886394
-32411.8155099504
-32411.80755838
-32411.8122615931
-32411.8287417511
-32411.8152156594
-32411.7994726574
-32411.8678182307
-32411.8252146134
-32411.7960844337
-32411.8000374294
-32411.8402807326
-32411.7860461594
-32411.8301443612
-32411.816497451
-32411.8475903868
-32411.8386826088
-32411.8338645637
-32411.8115324645
-32411.8470105125
-32411.7888354608
-32411.8371571394
-32411.8395970469
-32411.7875855065
-32411.7753895066
-32411.7924872267
-32411.8468305093
-32411.8616332224
-32411.824715829
-32411.8131833783
-32411.8477759684
-32411.8013973176
-32411.8177166565
-32411.7896730268
-32411.807211571
-32411.8179110817
-32411.8122843146
-32411.8544110527
-32411.8179916274
-32411.8313817983
-32411.7945431817
-32411.8120226773
-32411.846540164
-32411.8519129129
-32411.8346086586
-32411.8390462888
-32411.8326886243
-32411.8017781408
-32411.8387758077
-32411.7786947357
-32411.8446217624
-32411.8344810372
-32411.8348938337
-32411.8242224868
-32411.8171080742
-32411.7984691021
-32411.8258720401
-32411.798150593
-32411.8097873993
-32411.7889742388
-32411.8168501104
-32411.8156846474
-32411.8407065905
-32411.8239345905
-32411.775414269
-32411.7944966503
-32411.8701532384
-32411.8312390746
-32411.801192416
-32411.8334602027
-32411.8100766562
-32411.8075302162
-32411.8259577559
-32411.8155314474
-32411.8410555763
-32411.8046998255
-32411.799129386
-32411.8129079992
-32411.8096468526
-32411.7864740581
-32411.8232390679
-32411.7955931324
-32411.8545208506
-32411.8111721859
-32411.7973383336
-32411.8511488177
-32411.8053786132
-32411.8011548643
-32411.7845503503
-32411.7904952183
-32411.8556204621
-32411.8088703762
-32411.7840268036
-32411.8477522945
-32411.823784792
-32411.8569452476
-32411.79757861
-32411.8139281535
-32411.8313937713
-32411.8066821738
-32411.7910508745
-32411.7720339365
-32411.8080398851
-32411.8356482689
-32411.8352752011
-32411.7756446132
-32411.8097163776
-32411.8248505252
-32411.8541494154
-32411.8046784646
-32411.8036728684
-32411.7848970232
-32411.7964889307
-32411.8127171115
-32411.821652509
-32411.850280775
-32411.8234726775
-32411.7955796628
-32411.8375866709
-32411.8007337684
-32411.7987629849
-32411.8114237551
-32411.8445618974
-32411.7931752662
-32411.8019203202
-32411.8321373219
-32411.808618671
-32411.8250996453
-32411.791396731
-32411.8530273546
-32411.8307005616
-32411.8137334561
-32411.797068805
-32411.8137748174
-32411.8435395662
-32411.82288981
-32411.819304576
-32411.8156228776
-32411.8155947138
-32411.8098098487
-32411.7801151692
-32411.8044681207
-32411.8240669739
-32411.7888566857
-32411.782115613
-32411.7807505547
-32411.8440934537
-32411.845941786
-32411.8399593663
-32411.8281270463
-32411.8312332242
-32411.8260291857
-32411.7748967087
-32411.7906519558
-32411.8467011192
-32411.8158264186
-32411.8040813111
-32411.799596061
-32411.8144059851
-32411.8143438072
-32411.770967659
-32411.797157378
-32411.7900337135
-32411.8464379853
-32411.8117784553
-32411.8494162697
-32411.7695491303
-32411.8499062104
-32411.7854140392
-32411.8370903355
-32411.8235243791
-32411.8147393244
-32411.8249673981
-32411.8294631246
-32411.7987246169
-32411.8459532147
-32411.7995801424
-32411.8382710368
-32411.8499783206
-32411.8380019164
-32411.792763286
-32411.8398809975
-32411.808850784
-32411.8280549362
-32411.844891155
-32411.7882666071
-32411.7811957327
-32411.8461992055
-32411.7862371832
-32411.8170755566
-32411.8119618599
-32411.7809738239
-32411.8286280076
-32411.7961467478
-32411.8652583211
-32411.8361086853
-32411.7935057482
-32411.8337128603
-32411.7957203456
-32411.7916195921
-32411.8356716707
-32411.7706173126
-32411.8282982058
-32411.8339045644
-32411.8369915582
-32411.8739435101
-32411.7893905728
-32411.8082724063
-32411.8310989361
-32411.7998533445
-32411.8073877647
-32411.7826059619
-32411.8254661825
-32411.8368978151
-32411.8370281575
-32411.758053551
-32411.8035193963
-32411.8085030227
-32411.7759606733
-32411.8478807321
-32411.8389526817
-32411.7959509619
-32411.8135602558
-32411.8052530327
-32411.8339040201
-32411.8153507639
-32411.8238181259
-32411.831223292
-32411.7981980769
-32411.8360926306
-32411.8332446886
-32411.7611511573
-32411.8002941687
-32411.8111521856
-32411.8433577943
-32411.822384767
-32411.788519945
-32411.8058454242
-32411.8099381503
-32411.8145450352
-32411.7697024664
-32411.8103376132
-32411.861203827
-32411.8418954553
-32411.809901551
-32411.8346170941
-32411.8149114363
-32411.7969507077
-32411.8046071708
-32411.8697545918
-32411.7659063442
-32411.7843873542
-32411.8222892551
-32411.8002827399
-32411.7849956644
-32411.7958848383
-32411.8038936887
-32411.82969619
-32411.7941052147
-32411.8051648679
-32411.8460461416
-32411.7938535096
-32411.8373507483
-32411.8316286054
-32411.8139157723
-32411.7852676421
-32411.8135738614
-32411.8020283493
-32411.8391313243
-32411.7762703387
-32411.7896063589
-32411.7938993607
-32411.7951928532
-32411.854225063
-32411.8105196573
-32411.8416611654
-32411.8166822162
-32411.7922246369
-32411.8653796838
-32411.8120670318
-32411.7991008141
-32411.8358816064
-32411.8391790802
-32411.8102195159
-32411.8110067408
-32411.7827405221
-32411.7766961966
-32411.8246765085
-32411.8146670782
-32411.8114017138
-32411.8060356317
-32411.7781673793
-32411.7844772878
-32411.8542830232
-32411.8023660424
-32411.8411958509
-32411.8465958112
-32411.8359756217
-32411.7892519308
-32411.8026033255
-32411.8446899269
-32411.832513247
-32411.8043757381
-32411.8049986064
-32411.785401522
-32411.8318960932
-32411.7982969902
-32411.8247286183
-32411.7680105994
-32411.8282499056
-32411.8224189172
-32411.8456996048
-32411.8396088838
-32411.8126244568
-32411.782524736
-32411.7981836548
-32411.8694449264
-32411.8111543625
-32411.792980977
-32411.7849314456
-32411.8303996039
-32411.8467265619
-32411.8202368375
-32411.8480592387
-32411.7923123936
-32411.8355260899
-32411.8437025623
-32411.8315815297
-32411.8413792556
-32411.7567925761
-32411.7968161474
-32411.7628408473
-32411.7681701941
-32411.8137386263
-32411.7821689473
-32411.8364368544
-32411.8080340347
-32411.80806111
-32411.8414602094
-32411.8147355148
-32411.8247246727
-32411.7771887224
-32411.8164760901
-32411.8285050122
-32411.8096959691
-32411.7951333963
-32411.8386575743
-32411.8055198402
-32411.8553804578
-32411.8397155524
-32411.797671945
-32411.8181622426
-32411.7898629622
-32411.8384072297
-32411.8077265462
-32411.757618033
-32411.7932069674
-32411.8516741332