-0.0085262878956971 -0.0891210743662597 -0.0815386379531361 -0.0844403834808738 0.0189672753257786 0.0734880038963824 0.0337598526067338 -0.0575446014353674 0.0771667363977886 0.0531274484877745 0.0121330295458038 -0.0228303558285483 0.0993121506982585 0.0363918895522815 0.118215148478234 -0.177142231368736 0.0106549031025144 -0.0800733670190073 -0.000669000696719252 0.0837443862149172 0.010260238971283 0.114577810716325 -0.0112357150063918 0.0658857699991514 -0.294298857222683 -0.239197316748202 0.209251693709428 -0.209818107443045 0.116408435220799 -0.0321562563940367 0.614800070326748 -0.00319407980605045 -0.231022241362774 0.954399942060214 0.00735797922317893 0.0185512710493406 -0.557114829621164 0.0590440680238635 -0.111735971861276 0.452834024632321 0.0385662703717107 0.215279899065031 -0.65028281827119 -0.0455262430312764 -0.0705644040030716 -0.424212776147275 -0.137485813820203 -0.0306048535485317 -0.157336262625317 0.0846807815021776 -0.460605694140289 -0.00798609940076737 -0.103048475880704 0.357544362750424 -0.0468657870858142 -0.103592263918199 0.103981785845766 0.0117923585530471 0.0571985311287632 -0.410369449662741 0.119804603630854 -0.110048043508485 0.168679192578109 -0.199047761868268 0.243762308051142 -0.0220070890219015 0.115346570164131 -0.578191436890019 0.142741403075253 -0.143253566560212 0.209526030274916 0.0424874577758864 0.0593292032170463 0.574000026683287 0.13566238840086 0.168103265767713 -0.296397647648248 -0.229397047894687 -0.0403668129847487 0.206971126384332 -0.105822951867752 0.204174024701162 0.0151766998946749 0.149532711454631
-0.0313309327059242 -0.112098497219606 -0.106154366893913 -0.210698452710365 0.0365608109426522 0.0625723910680903 0.133034722328427 -0.108553204903287 0.13459563825071 0.11873579659924 0.0469748018034964 -0.0651676612574386 -0.0769258241561184 -0.0841531914062253 0.0658934833046478 0.0162596479863665 -0.0970125572196048 -0.161606862768479 0.0274732515170019 0.27237327212886 0.0470321373743528 0.136206947768904 0.118912945515473 0.0806225543703495 0.468077316064448 0.439626531630872 -0.276822563849355 0.0802834260386921 -0.700269922981206 -0.0308701912576071 -0.366148812141818 0.186975410325703 0.440204515322734 -0.630831918690789 0.160416185510022 0.0521180339084818 0.931941624666774 -0.137193479541891 -0.242509410128347 -0.513892550941656 0.224944670851994 0.189652698663496 0.840238906950877 -0.0468369907452944 0.0221508136143174 0.453427434935176 0.0233497183986378 0.0333145377694096 -0.0125243512446534 -0.216809704655146 0.160555539229323 -0.135552602352628 -0.0835266138897361 0.0240518863089915 -0.164241985036225 -0.105898542261616 -0.0655800659913116 -0.176253658575553 0.143742847238866 0.317491738409561 0.0406822871795506 -0.220314887782884 0.0871896626699664 0.074413857666131 -0.187958856776491 -0.0218646499804017 -0.262700529926218 0.63529535147136 -0.372748573434703 -0.167906319367372 -0.12100710795774 -0.00489794899020052 -0.189833190012111 -0.0878915734701369 -0.288490481073727 -0.244914933002485 0.148947014457273 -0.141002824016369 -0.0401279576245442 -0.0956218482386077 0.0743737484775499 -0.0968912012131284 -0.0329720670053704 -0.0141037791001286
0.148120662328427 0.121108152259742 0.0969603638524126 0.0642155822490022 -0.0407578775734151 -0.0980427977237378 -0.0654877634355383 0.0338123030841092 -0.0873668115861999 -0.0694256630016229 -0.0516518931463173 -0.0949065677089102 -0.00953827357682199 -0.14963349864645 -0.16755562107747 -0.0924231404492594 -0.30543892724092 0.151554111715049 -0.0508157708305098 0.0606504924485759 -0.188059129747944 0.0528425704047749 0.153909755213643 0.0390897467047316 0.114580124707974 0.355551758830526 0.0205245917054975 -0.373912511234106 -0.836483041394507 -0.509648433147365 0.17301535581799 0.675380885915674 0.347142970288557 0.627433693399267 -0.180973944429153 -0.258744889757492 -0.503315295114471 -0.250518906555787 0.056221255322372 0.379690034161077 0.0277205915132525 0.180316513690679 -0.30098603597786 -0.0243339361799758 -1.64550517256081e-05 -0.239022481823618 0.206754639610067 0.012152569919728 0.0325087544552212 -0.0460972847481917 -0.259734506852677 -0.198440724725703 0.0811884538836005 -0.0549765849254397 0.0238274291190469 -0.0693711556427818 0.479691240150346 -0.110466875996938 0.0308516793244158 -0.0172621205907125 -0.000109786048231791 -0.0145884317954844 -0.0424607183168323 -0.100309223988757 0.515149048407016 0.256190242977091 -0.0606150112432926 -0.0283286570965503 -0.138599100913514 0.22827527616533 -0.0277144208688554 0.205578103411686 0.521817458118818 0.839729571677932 0.327405392853874 0.233676389784078 -0.831678166290629 -0.290618324949995 -0.0453205548847063 0.0317250826167891 0.143511190963791 -0.379814218379569 -0.275963044506875 -0.108345974095617
-0.0601308727683032 -0.0471720053140205 -0.00893123643425698 0.1284756445597 -0.00905464932219904 -0.015117564552536 -0.0297288791543263 0.010406534665531 -0.0116961993445256 0.0124261351546662 0.0642487494626367 0.0168846828417564 -0.203739765601715 -0.187429466909256 -0.425440477272115 0.0504434752852179 -0.0128475387449517 0.373426058767468 0.0315296788775475 0.0741264084812993 0.230985217496391 0.0606605197457212 0.0811928247567151 -0.0513978682853032 -0.360045273502533 0.382175261192011 -0.61200708240651 -0.102783395281812 -0.287721464515738 0.0903282066764429 0.045447053094847 0.597902789086015 -0.00793647713540733 -0.084488977305501 -0.781117448761866 0.267134652145903 -0.199241108726044 -0.213256956143514 0.0863766802706481 0.520806243768243 -0.0508407105182814 -0.226214538046881 0.123277390875507 0.10159477490482 -0.0828313879543292 -0.160226438194811 0.114533073544446 0.00222760262735419 0.029579755248063 0.0033946257489563 0.257775327256597 0.303829417494009 0.25252873685796 0.434593085574118 -0.25490083540828 -0.0657770123916525 -0.175357629587057 0.317371925064184 0.012613311368045 -0.443373912551196 0.149905006999923 0.0512346033189632 0.0511258457114642 -0.206410369074745 0.100827558118114 0.164436360334734 -0.11843574901543 -0.11541213326085 0.0151440469014069 0.0476885396720946 -0.0701841380421001 0.131564566300817 0.0605023969830455 0.503071554660786 0.205062083273978 0.0847656278626378 -0.461016041992697 -0.160179644141466 -0.111595075480875 0.343401502902447 -0.0724994152419298 -0.0749818140608477 -0.391423771592352 -0.0340812403357496
-0.206769809110876 -0.0199710334810407 -0.0471918027981278 0.0656947371330245 -0.0657960385452102 -0.0826030741116364 0.0846686973235666 -0.0503683991117198 0.0459648730038372 0.174595040783648 -0.00343602048845353 -0.113201757015771 0.0629302884431223 0.00123181488777169 -0.22473872559524 -0.0600249433728196 -0.0893239343008144 0.0403783829429933 0.0741053254462759 -0.00126523921158933 -0.337589784321109 -0.0625345958711581 -0.155689214791657 0.232796044516757 -0.831102753700599 -0.172691139876959 0.324081472405301 -0.419549311644164 0.393921082801896 -0.517143194988013 -0.295923279360221 -0.695637568810264 0.153599937442872 -0.486376362024057 0.401645444036153 0.0447682822111656 0.0391074873073732 -0.105940708331663 0.0447770239573949 0.579018560349414 0.242003160177602 -0.21831457055749 -0.0704062812403958 0.249081917741812 0.000116213802812107 0.0609376845232245 -0.171748573945301 0.330749882117104 0.232772390379902 -0.072665251310102 -0.0906349391250156 0.00538157324482347 0.00872811938951901 -0.329909388928182 0.205882778978793 0.0778743036219898 0.182583197065881 -0.0139649396011938 0.0807323404185813 0.0918880941579939 0.100766108784326 0.136389753109168 0.134663001118712 0.229358481367205 -0.132566524684796 -0.089600327747768 0.00780689360306817 -0.122026806944361 0.103592521028382 0.313706819402488 0.366268882597378 -0.0521239474426956 0.121398686766773 -0.0935485117211811 0.0189356507732435 -0.107794729862809 0.431562270734408 0.088700699216707 0.208485762473637 -0.56687910304903 0.236349821469122 -0.0121700534121864 0.130114721977681 0.0291061582905853
0.0648886967086529 0.0898947189075464 0.108194279087522 0.189718004650032 -0.0265232293900313 0.0423329345557756 -0.118637580509252 0.000143210372049433 -0.031507310291608 -0.122402702032218 -0.0265913635885826 0.158433094666903 -0.205508940772401 0.032064725168813 -0.11616443765693 -0.0244329236005126 -0.135799171018329 0.0696357220213076 0.237138121290852 0.0973568277549265 0.0972920359887569 -0.146482099130813 -0.126776660469031 -0.157297953208019 -0.64612277550681 0.675836228050143 0.134199688568563 -0.383343826974712 0.61591104342841 0.0459551028168751 0.526883814279023 -1.21193024331221 -0.283583790337297 0.574279505452439 -0.144732978554418 0.293622143220468 -0.288749133918039 -0.234058712626515 -0.00584051492185801 0.398013762698275 0.201301075513944 0.0350592874726905 -0.737474280712439 -0.0598747910258235 -0.0206562321193024 0.152270163575296 -0.088208590326038 -0.0389485932141478 0.0170461480368139 0.0733558492622111 -0.150347236515049 0.158741369776574 0.238240352646285 0.252026857780329 0.163409976483349 -0.159506529681815 -0.2812695415782 0.10513852456004 0.0283517970130395 -0.168705160706613 0.0198111109470825 -0.0222413163988082 0.0254199695938659 0.490159738370031 -0.506032435530662 -0.335528531982293 0.00663190006578647 0.151977829296983 0.102239864354501 0.117871649273462 0.209965174467843 -0.0491093305445276 -0.0153998715337034 -0.381584421990988 -0.131767169125188 -0.250801470647138 0.870560167967325 0.428008750892226 0.000479253381508335 0.0992082781842406 -0.0209655356697072 -0.283125619990812 -0.260307862561241 -0.000728136038858156
0.0602573709784439 -0.0219901197498095 0.0503933387994915 0.0320194737765676 0.116927797790888 0.0539661419054141 0.0844709795926761 -0.0511610698065644 -0.17720496625344 0.0309077293443562 -0.00623800726510473 0.0525353237358358 0.27544085372477 -0.0787446215921645 -0.00266443282863244 -0.0590322409554357 0.109616098400688 -0.0799610098689434 -0.185282339769247 0.190376206719056 0.177748497180751 0.0351420769516849 -0.17899933822208 -0.0838037786672393 -0.141062473578874 -0.472413736414512 -0.149901664567541 -0.0978234827374574 0.966501604163666 0.131128507430088 -0.540754137332795 -0.366480227167979 -0.177165114175042 -0.496739445068625 -0.239627462084717 -0.149739685152117 -0.333695593486171 0.190366693642277 0.271493441081907 0.101032474934134 0.119766808433922 -0.0807655076322157 -0.161670368983733 0.0280306663942069 -0.0945625542837717 -0.362280332325201 -0.154394407908999 0.156307821892467 0.0299530792340877 0.0411134609567982 0.0699157150108261 0.221912056241001 0.330262658319916 -0.107846151899452 -0.067641061219944 -0.130611715961831 -0.237687565752378 0.264488988360645 -0.194738080977258 -0.250047623589958 0.440594808580851 0.276010095670403 0.104228097401284 0.0280214104276112 0.284707876058303 0.168322837864176 0.267485093325622 -0.716265775919596 0.305308829488214 0.205730055529964 0.437733429351877 -0.0658795993547543 0.176828556945216 0.0767707867156412 0.123479222369329 0.194423635223189 -0.110800862124931 0.113874871475422 0.0827087463969368 -0.239623605431969 0.00758243641312355 -0.0854361712204563 -0.20609463776976 -0.129055428022845
0.0298728608569254 0.0695159086759305 -0.0618311424098883 -0.114107556191229 0.215076782020293 -0.0515315655805738 0.115627334484199 -0.0579932587050735 0.000825066577929316 0.163663487123997 -0.149659209664772 -0.0343625188761842 -0.123806009412193 -0.0586861706488315 -0.0176457289840657 0.0953498256647687 -0.0647202895386486 0.0169404757515135 0.0282286412352806 -0.107435546936861 0.278356226092218 0.00125366925334476 0.148117834116412 -0.0861769056582919 -0.903377968862768 -0.138623783491103 -0.371395145430272 -0.751014988511332 -0.130323752556633 -0.102947431578702 0.258189531761752 -0.49047495545465 0.238504147694261 0.519177193647408 0.718849990371066 -0.238877728790469 -0.0571113707766542 0.0270461915026858 0.0727413559243329 0.543667452818777 -0.0600817647233096 0.0773138034225862 -0.65014834964537 -0.164430961020887 0.11055583612033 0.619835316154784 0.270303278043815 -0.241162924098863 -0.0796730464637453 0.0172310102585438 0.268072075873896 -0.0105474310459315 -0.201695739645175 -0.204328805031456 -0.229492178662475 0.0253392369963371 -0.24410786413738 0.138536623138993 -0.0580889036932286 0.186580489084288 0.0216918719372828 -0.0845632821484494 -0.0520110760722653 0.0534467793353246 0.0889197570928042 -0.0518262138505354 0.0512484872688566 -0.155054923969672 -0.0404002373085663 -0.0572468678432072 0.178591561471505 -0.0318274124697077 0.124487865618072 0.0753119435360927 0.0736330140397143 -0.285208983805384 0.295716305662734 0.301792333512415 0.198147876227024 -0.550926958841785 0.38978777949657 0.299309420473131 0.342739444180675 -0.184670160423018
-0.202441873396858 -0.0339164327083103 -0.00900785526885435 -0.0383065890866659 0.0437737800224992 0.0142786140247132 0.0971688802109981 -0.000483110034256524 -0.0111495830950155 0.103545212754671 -0.0527505249591848 -0.0397273799590989 0.187334850361834 -0.0829614857070348 -0.118199721867241 0.0472301122154265 0.137207877712151 0.167345819167968 -0.11406281901935 0.0592001339050735 0.246455280110111 -0.0159194912139762 -0.19346410001944 -0.237218853888381 -0.667486831960497 0.171773513633073 0.537573941476638 -0.051959911145806 0.878003764881514 0.315317614700315 0.193286693993023 -0.701536447743711 -0.544093998612727 -0.00794007667797231 0.0779267540993651 0.298576399340792 0.039090260925098 0.0920878687703501 0.287101828974195 0.145580927938653 -0.0321822245225412 -0.395454487934576 -0.242701985655573 0.133355081616709 0.210992072539594 0.307964520570618 -0.137395311035713 -0.0742017417649806 -0.00968919725436781 -0.218231523968312 0.276308857703296 0.0838611142380958 -0.114413260199069 -0.0771556806599105 0.121389430800177 0.181748617411173 -0.179598147838783 0.166395539930814 0.0135026554917775 0.0336544374316167 -0.15334771235314 -0.163499965047474 -0.271033213853956 0.197657309997454 -0.408324652375651 -0.244929588282928 0.0802733987415468 0.133107227400092 0.180228839118203 -0.0603339898130412 0.0227485947902867 0.00174397837273124 -0.398363175437261 -0.908088998749773 -0.291886392373599 -0.196653551842192 0.910899727272653 0.494006620931258 0.126646305606142 -0.162929694661108 -0.157148572191572 0.261782903682332 0.354841877614676 -0.412778829189626
-0.15476670345429 0.0118491799035371 0.0339758251606324 0.0486763569959975 -0.0341599160518127 0.0682576114392879 0.0132136636458465 0.0203518136623786 0.0784587150684321 0.0278979975396692 0.0127012430507037 0.020176978737794 -0.178885181300734 0.118869751004693 0.0739975962795098 0.0788325532748232 0.213007045045431 -0.135294463728682 0.0958910426004313 -0.0122513002300816 0.166810258656336 -0.0342622459047313 -0.0514649740431217 -0.279990675526901 -0.00987894456957872 -0.449311872232492 0.330929087914803 0.0913831297581643 0.460677942101772 0.338742666382635 -0.502518767766879 0.0932214675681346 -0.204948440572998 -0.906428324076402 -0.0621908395562028 0.00959252382547986 0.292562335045265 -0.164022927160128 -0.0768240085235662 -0.00222940239863668 -0.0498953163746086 -0.181134638293661 0.277303874112329 -0.0758035382063953 -0.0599979468035823 -0.15722441969562 -0.0846596984671542 0.180402388491872 0.017284489176652 -0.21038992049051 -0.124041008119649 0.155676102172314 0.0296928837286765 0.297345098673386 0.143782956427447 0.298258354044158 -0.211570313341639 0.285272490020638 0.036780640149299 -0.433740508206585 -0.0816193705506649 0.0856066352719263 -0.0266556411343858 0.138119590421823 0.16625670043188 0.0524828732584605 0.175302865118033 -0.0452987005191333 0.289231472621746 0.21274684954002 -0.0892632562975762 -0.0385750121179399 -0.158179069805888 -0.432651389470497 0.00742688475227991 0.0268387035848332 0.260310433663073 -0.026117766631105 0.102132392297918 -0.128273041735329 0.120593674783134 0.00307426646067337 0.0820526012093781 -0.269533233045094
0.0664375284523257 0.00797504366288923 -0.0233394339913093 0.139309496349731 0.118297937957228 0.0455223863785283 -0.165543219673464 -0.00908087456088673 0.000604208930549671 -0.0558641292778897 0.0622936836294878 -0.0291588658781439 0.0598796761193045 -0.145279594803928 0.0295910680961243 0.105192517698514 0.0541468903642126 0.0760889305097613 0.0129663236495959 -0.229702494792343 -0.22693958876354 -0.160352165074402 -0.0523252647161511 0.225223635400779 0.699824865254065 -0.158457520134308 0.301785134427285 -0.151723033105419 -0.282870823799248 0.238906010910622 -0.916779580052542 0.343967145305515 -0.502460146645106 -0.810976939889264 -0.0657027075487041 0.114170548186116 0.25940823403018 -0.067240740664682 0.115457898873462 -0.292572105232227 0.319081707782548 -0.0734615215475115 0.38366778580556 -0.00272228261985528 -0.0331206766912673 -0.384893944269301 -0.121638056347344 -0.099232960761829 -0.064536969978018 -0.171139222811087 -0.51854187438469 0.105658401350496 0.242678845739084 0.370473405423454 0.269618336515737 -0.0268294476182375 -0.0441794998916087 0.101348206239119 -0.109475202020287 -0.630183229698543 0.0940413919423997 0.252686345400269 0.0415032399945485 -0.00282152715057536 0.432404820804796 0.403113543182297 0.0806024997760589 -0.00696511486323003 -0.0266939505516845 0.282227019900484 0.238806252159536 0.193703212489827 0.141512930619863 0.36818898144561 0.184500210591915 0.176232318430346 -0.538736336614942 -0.216475718527153 0.219779584381435 -0.120979854278319 0.136154754401712 -0.191642988591745 -0.331382116057624 -0.0530104633544128
-0.166581173483094 0.116364212269286 0.0312386301501508 -0.0289009843643816 -0.0840236078738861 0.0386488027405219 0.0363222126926309 0.0287706295014928 0.0356192734517275 0.0431849977029423 -0.022640094292971 0.05166731975731 -0.00717183145053299 0.161362350984244 0.239872230979135 -0.0232080506876877 0.0438758527652346 -0.163016083682668 -0.00834219700451686 -0.0386773419708585 0.192277536523913 -0.0269693155579052 0.0556170463918224 -0.339727912604705 -0.224196223108662 0.0528585112361341 -0.588306408607787 -0.0726901909978736 -0.62270646557072 -0.357650035035725 0.714796391222536 0.0512842255843232 0.584621762572166 0.940121070925317 0.157839170143681 -0.22704757504049 -0.387453476143183 -0.168866111681304 -0.0427031732196018 0.370077455741307 0.0727878928674944 0.0589983024112516 -0.42230604702857 -0.18807481346912 0.148470846397963 0.26559379081791 0.146670046674742 -0.209394389861111 0.0211930781818503 -0.148272871556889 0.0728002341562886 -0.191595166097667 -0.0268219914229243 -0.188241163757658 -0.0927075043118926 -0.0241639863488722 0.182435101600351 -0.214230118186974 0.158070569308573 0.580757653628664 -0.33126898757701 -0.00910684268939121 -0.00327275552211351 0.415256600025246 -0.278982803608707 0.0421845819800619 -0.0820009220625524 0.143020367624038 0.0420585979902878 -0.0484817245873056 -0.109683975489056 0.0154775188090337 0.18186123167142 0.437588419208545 0.394308547847998 -0.0561477218099732 -0.117738980418924 -0.341686577980419 -0.234525367609046 0.170262991306699 -0.378256644889667 -0.369630084022517 0.0433873434171306 0.127865264984753
-0.0576495023901182 -0.0185792960593108 0.0288279650723492 -0.129321794172653 0.0962854496214795 0.0560507912709021 0.0950654618021356 -0.0648853542762711 -0.0768682314750787 0.0199790038967203 0.0196735569990637 0.00255901765351527 -0.0302004192303382 -0.259878745665459 0.0198656183059235 0.154371525102693 -0.0155597940676617 -0.144420589681814 0.115529632614578 0.200096000085226 0.16126516333499 -0.220873073990638 0.118825270942998 -0.0555062319028577 -0.427843171934237 0.207092739500991 0.166322263528599 0.219982701426173 -0.903041411632942 -0.0916289270933156 0.823093000162976 0.629014149695475 0.248170719252506 0.861025493933068 0.020307590710866 0.051433863710953 -0.567789273097602 0.0282903476792516 -0.174586299037419 0.603040107656786 -0.297551301040323 0.121192998620203 -0.113404102729959 0.240555629846115 0.0749388766602512 0.120216751254544 0.0936467278111683 0.108512324384156 -0.137241559146151 0.215897734835291 -0.518067248986479 -0.00543042417963387 0.00172932309228812 0.451512992510975 -0.219381577817822 -0.181317443633926 0.447216938459675 -0.072238448405969 0.126763033629321 -0.0894113517631067 -0.347695242962098 -0.712159469183507 -0.443964494642035 -0.30416083252017 -0.119290126154246 -0.052864424770348 0.0216373645784417 0.212212317469121 0.0345139567740965 -0.26123371633099 -0.0989138870244621 -0.216207295495879 0.234346933141896 0.395397666584086 0.141684423112066 0.0232707855723916 -0.142273976762172 0.0335456798241177 -0.450964319379999 0.363962090033595 -0.314491776791836 0.0538684400357933 -0.156298565925871 0.0304037933852594
-0.155643449179046 0.127919515233411 0.118669976392337 0.0693840111519424 -0.00224534322999586 -0.0192752933252673 0.0255755212547095 0.00974139062155997 -0.0717381119894372 0.00243251944337465 -0.0722032243108689 -0.119667563903202 0.0339035771991497 -0.105580239854799 -0.147135416106357 -0.00305241209510029 0.00344527645504919 0.317510507452936 -0.162519089698518 -0.0231052066144026 0.0468377620758441 0.0656230033919081 -0.0521015788567561 -0.174232258315135 -0.666697246587851 -0.604592538943024 0.267824992987829 -0.296599736252253 0.222862592588338 -0.0650519616749929 0.463215362499897 0.381546626794056 0.129375015980578 0.746732304189559 0.330935515669383 -0.153965291013217 -0.261530164372234 0.0273141003135933 -0.237484191597457 0.528548088494958 -0.125468483856845 0.183641719690168 -0.280342659367719 -0.221836465847136 -0.13917502772391 0.185059682350585 0.0235314952981692 -0.0132584008177255 -0.00457141905752049 0.419518458422179 -0.366286880310203 0.0329355573593542 -0.13883409962097 0.0968724321697539 -0.199770241483096 -0.0465410569244167 0.190646429521612 0.00770944884363059 0.135421476159189 0.0114054077273121 -0.0439717548635729 -0.343046176629247 0.0516670626471268 0.0282679790933122 -0.0750836296933999 -0.191840963432818 -0.00864610124107418 -0.20298540432417 -0.00395126929561163 -0.415555619168323 -0.457131107124354 0.285439868749909 -0.0982626269303846 0.153029667056506 0.0702738694960413 0.141711933901669 -0.139656080876701 0.0207289943011515 -0.0235052700594815 0.110577947596086 0.0295355322965504 0.289569315402487 0.664566574499567 -0.117366684873632
0.115215443970692 0.0230620121036229 0.024216951046614 0.0273920046991067 -0.017288088719217 -0.0874979377796383 -0.128366629842018 0.0869865456252284 -0.0230180462622935 -0.167499571057529 0.0561865454476383 -0.0935297426778065 -0.174877861985182 0.178371218044492 0.1330918007891 0.148940329592509 0.242504267924683 -0.0640129794246307 0.0546711380277831 -0.0123374321414579 0.412349712293844 0.0102476405723056 -0.0665881950196883 -0.267597707585869 -0.148262072929194 -0.361809563579739 -0.259503879018335 -0.36730143709316 -0.155121001286758 -0.0293375574554767 0.389999124067171 -0.580838900446559 0.101798920390291 0.829603544222286 0.602987400069228 -0.216460549026343 -0.115189475842188 0.132620003602905 -0.048506407164894 0.223601784365074 0.0218224839103548 -0.0532405769683881 -0.861698865502902 -0.0451110100853881 0.0644688357794667 0.618965255294793 -0.224171797641256 -0.0110469961319137 0.187146388597539 0.0161596321250967 0.480752848096831 -0.183726051830261 0.146755664365751 -0.069387096474141 0.0799800360225012 -0.0767928981913975 -0.245243262706447 -0.0661099700789129 0.0883132341706056 -0.015745170509758 -0.19471185573857 0.0167810674379217 -0.171621304404611 -0.275084756121021 -0.0875025657629362 0.0898782638558208 -0.159413455795492 -0.000507535501661723 0.0595896558326407 -0.0681635091122321 -0.0285680266771213 -0.072637483410315 -0.0512119776228405 0.267808023715737 0.131975685483774 -0.0595256353970207 0.297260766533293 0.105820123655736 0.38472502287893 -0.757824037493352 0.239105528412795 -0.0493453576927168 0.236842701690341 -0.114661885746235
-0.0716926034870086 0.102656897071672 0.0245640497939511 -0.10491843824321 0.105701338751092 -0.108134372414833 0.0832448211289351 0.0460836579084814 0.0163257253034521 0.0290457373975303 -0.0790544393629357 -0.175582343887185 0.0908321426355397 0.170413914984244 -0.00042397469211762 0.0162077117293575 0.0970323547037121 0.0282972896541984 -0.119840084836138 -0.289948295812542 -0.348689488040581 0.089653549555693 0.0064920321261188 0.362319927293416 0.306700052689578 -0.677684593157259 0.43703177566189 0.346948594990049 -0.136545047659829 -0.377532365503557 -0.596904687354783 0.173443958493405 0.34770501314906 -0.814368994536389 0.789766378214956 -0.31266578027066 0.471590212497682 -0.0570512069937824 -0.179143062814496 -0.313970357340281 0.0146282838738823 -0.060161983100472 0.676013376966377 -0.0287246067786978 -0.182659558790295 0.10024700332442 -0.101200624993955 0.154260710613728 0.207309997605806 -0.193547146608617 0.250527905412199 -0.240396478642706 0.00647197753182822 -0.444116703870497 -0.027755044277803 0.204390511475427 0.176637524079089 -0.288323359454639 0.0193367426590552 0.332483576082506 -0.079181708903626 -0.143701452499369 0.0883749406145766 -0.0511027057949751 0.403437244902962 0.114004712117944 -0.111862212961233 0.324329326621918 -0.154120071343511 0.146646906758253 -0.0901639132693701 0.142900297168478 -0.0195915388506189 -0.262700787036401 -0.0253358945639554 -0.122428670160722 -0.244455477105084 -0.242486784432225 0.406518453338582 -0.478328299069136 0.447635770948128 -0.00862167577366898 0.318921528138407 -0.312017091278415
-0.0613377479683033 -0.129934487739249 -0.133140908834093 -0.146948754113344 0.038829036978954 0.0702810685811713 0.0870086571009847 -0.037323656856244 0.00537977347354098 0.132162861697152 0.0350497743959116 0.0101805348144871 0.178149589066563 -0.0297124241026007 0.250080019473043 0.0648077070009409 0.325711036746503 -0.217720903144452 -0.123116697010999 -0.0675886107425687 -0.00275390717239044 0.0706811320262501 0.0704134803255258 0.0691963207181972 0.680274978253126 0.194390210899371 -0.922135956499411 0.393190889881572 -0.687201783699057 0.373101328606071 -0.472540234624653 0.265129706937211 0.147729597739761 -0.517496464379747 -0.164627393200861 -0.0743904606394587 0.273585032422341 -0.0486822705302114 0.139442936534818 -0.263772165169848 0.21660273095766 0.153627962452842 0.432478097207011 0.00527615806970629 0.128516267968648 -0.223827012885568 0.00381782911052428 -0.273223278394561 -0.322880767849698 -0.33656622868174 0.0341840844090347 -0.00400397688317022 0.154513964144192 0.142063917742487 -0.124444156886926 -0.0436002306488307 -0.287940779502018 -0.0575929381498114 0.0228923193827026 -0.0051743424371541 0.105673313741122 0.438165374459675 0.252376270519315 0.0114555442130385 0.152803667205462 0.436432966045188 -0.0201265851418844 -0.134821380991571 0.000666429594887126 0.183257854186631 0.336936724455749 -0.159795521527746 0.115955921298345 0.570225906303908 0.181143894260257 -0.11781148549059 -0.534067729908167 -0.546787999112429 -0.116712082347173 0.0138523253409466 -0.253037043690171 -0.156070509193362 -0.630484048612902 0.48169798513032
-0.156294195052757 0.11849334169647 0.0226598917770784 -0.0482241001837265 0.020705340164296 -0.0429217168753325 0.047945392745124 0.0473152156860699 -0.00340568148683444 -0.0171693038145727 -0.152772042652927 -0.0601918078817246 0.0935091738631495 0.148657251280792 0.242646964076366 -0.0447132606319581 -0.260844708623789 -0.160960230657699 -0.209272519634268 0.00276059203715396 -0.344967303918212 0.0618373130542854 -0.08968131745548 0.0361949431519406 0.617308180163988 0.838132403219816 0.36761434018613 0.172840263783222 0.332700834187321 0.34342489992912 0.189846559741638 -0.972816744483734 -0.349005990676116 0.435399897329039 -0.301709801143604 0.133891670569074 -0.0471151839635305 -0.298804970293668 -0.0607296823850054 -0.209128537931669 -0.0961797773361791 0.291171111843902 -0.307613308060349 -0.020551845384918 -0.115247582743594 -0.115627591594382 -0.0517333970743957 0.0197008106784842 -0.126440103239206 -0.210377836311899 -0.541551436010937 -0.0868443636939119 0.0929193631028598 0.0250723566261624 0.076551728839544 0.122450524526296 -0.237243022245603 -0.0449369464913531 0.167363045550243 0.0820598002945081 0.0949114528023912 0.269472297931672 0.33442141553338 0.216355390961409 -0.381589049974286 -0.0187746997985524 0.201152208717864 -0.478533215885156 0.0289315804761839 0.205416381106445 0.533018206140293 -0.148504784942147 -0.215300467879688 0.0563482677528791 -0.330211236283273 -0.4113073876111 0.485360005469818 0.145010914662471 -0.137193222431708 0.251976721294603 -0.0335384807389878 -0.235893965114286 -0.172077932089997 0.374453471059586