9.374343337 0.116502465 -0.139347648 0.069620699 7.247589540 -0.171880642 -0.066242457 -0.136728954 5.329977946
9.356500472 0.464224901 -0.182805600 0.277416122 8.997627936 0.056078946 -0.086901303 0.044610118 5.405872320
10.353150140 0.013125815 0.015616512 0.007843855 6.201641954 0.049213360 0.007423707 0.039148628 5.015227891
8.953591127 0.571403939 -0.204931251 0.341465235 9.423579134 0.267019919 -0.097419295 0.212411089 5.174905709
8.822332525 0.344928263 0.022182429 0.206125654 8.837360690 0.218855185 0.010544983 0.174096631 5.215549482
8.746930350 0.444138521 -0.052851218 0.265412704 9.168194274 0.261663352 -0.025124174 0.208150005 5.214146735
10.229426664 -0.018855885 0.069833927 -0.011268087 6.252830393 0.102315868 0.033197338 0.081391025 5.218978392
9.082855950 -0.153377851 -0.193775014 -0.091657058 8.169031849 -0.277955593 -0.092115893 -0.221110284 5.563087019
9.101025449 -0.294220498 -0.344086595 -0.175823204 8.258980708 0.053973156 -0.163570335 0.042934988 5.379521206
9.214302220 -0.412830747 -0.001941565 -0.246703494 8.428736251 0.063100336 -0.000922972 0.050195548 5.526937480
9.032899150 0.578067739 -0.230972707 0.345447455 9.396654558 0.266798687 -0.109798764 0.212235101 5.233275377
9.312837659 0.133584480 -0.115065886 0.079828739 7.342324901 -0.188016119 -0.054699502 -0.149564529 5.331239651
10.073689642 -0.013739613 0.105419291 -0.008210655 6.389873565 0.095377855 0.050113748 0.075871920 5.359278722
9.064855392 0.225883700 0.182075697 0.134985823 8.120953677 -0.097808517 0.086554324 -0.077805482 5.257867896
8.961866820 0.572337476 -0.208600848 0.342023108 9.421161067 0.266886685 -0.099163731 0.212305103 5.180231005
9.002421645 -0.100357317 0.135955057 -0.059972521 8.005675073 -0.385266835 0.064629703 -0.306475068 5.248727698
8.604100589 -0.549127993 0.090219509 -0.328153354 9.681601057 -0.479269476 0.042888143 -0.381253022 5.294419303
8.816591598 0.004272115 0.239555609 0.002552973 9.268756791 -0.356355352 0.113878866 -0.283476336 5.603451223
8.908175661 0.133356584 0.165431021 0.079692551 9.016262321 -0.288708070 0.078641853 -0.229663748 5.595316225
8.601770605 -0.545296809 0.099520599 -0.325863877 9.685059286 -0.481085171 0.047309654 -0.382697386 5.298360485
8.779687420 -0.050487746 0.252974649 -0.030170968 9.350065444 -0.381138246 0.120257949 -0.303190826 5.560714492
8.761936690 0.400995412 -0.025549569 0.239630817 9.034992553 0.256254345 -0.012145639 0.203847206 5.208334379
9.268319092 0.148852287 -0.083059206 0.088952627 7.432124857 -0.194660576 -0.039484311 -0.154850114 5.337532215
9.751073636 0.047041304 -0.037247928 0.028111409 6.791237673 -0.011523152 -0.017706752 -0.009166527 5.409149162
9.204879095 0.365808336 0.021596700 0.218603375 8.888930805 -0.081673233 0.010266542 -0.064970061 5.373642308
8.597720591 -0.380394741 0.273697315 -0.227320064 9.654773439 -0.494788701 0.130108996 -0.393598376 5.322854061
9.112452779 -0.293372888 -0.472241426 -0.175316681 8.424472941 0.161767233 -0.224492001 0.128683861 5.346357620
9.072405621 -0.277768544 0.132914330 -0.165991682 8.192418098 -0.001268543 0.063184215 -0.001009111 5.470313280
9.346668819 0.123782244 -0.131279894 0.073971022 7.286615922 -0.180017404 -0.062407245 -0.143201649 5.329926508
9.093038287 -0.162793767 -0.204327589 -0.097283914 8.191820225 -0.244335472 -0.097132328 -0.194365888 5.567249591
9.158308038 -0.502922340 -0.204335530 -0.300541321 8.839605413 -0.089222877 -0.097136104 -0.070975710 5.497617166
8.757084689 0.480624121 -0.080677768 0.287216131 9.296488808 0.257527986 -0.038352234 0.204860372 5.216589295
8.677008585 -0.208718013 0.300316827 -0.124727781 9.538453385 -0.438169499 0.142763260 -0.348558492 5.407444375
9.287789466 0.547975891 -0.309195247 0.327464869 9.235279281 0.190356061 -0.146983843 0.151425924 5.460660644
9.085684186 -0.289233864 0.119649468 -0.172843242 8.203376017 0.013588290 0.056878425 0.010809319 5.478652486
9.256318015 0.556305796 -0.313208268 0.332442737 9.262897478 0.206274402 -0.148891535 0.164088771 5.443962362
10.121372576 -0.018513794 0.099397803 -0.011063657 6.348029442 0.101854466 0.047251280 0.081023986 5.329473521
8.745942020 -0.608046385 -0.303164806 -0.363362391 9.293336774 -0.304093167 -0.144117119 -0.241902405 5.124333102
9.094694738 -0.164696520 -0.205687859 -0.098420980 8.196152709 -0.237424933 -0.097778967 -0.188868639 5.567916210
9.334311149 0.443892495 -0.129555448 0.265265681 8.966332673 0.026694167 -0.061587485 0.021234884 5.386134062
9.104253980 -0.315859223 -0.369578410 -0.188754288 8.267528829 0.073788188 -0.175688519 0.058697604 5.357003756
9.222994904 0.166454736 -0.041886725 0.099471673 7.539712003 -0.195679106 -0.019911923 -0.155660342 5.349810414
8.753094297 0.474676388 -0.076700340 0.283661825 9.275578056 0.258195967 -0.036461462 0.205391743 5.218118571
8.849138826 0.542856596 -0.125936761 0.324405631 9.429588323 0.263912927 -0.059867250 0.209939514 5.156584529
9.099403981 -0.300487211 0.105492096 -0.179568129 8.214547448 0.027613184 0.050148357 0.021965951 5.486409266
9.036785621 -0.243009303 0.164630780 -0.145219910 8.157134549 -0.050176458 0.078261438 -0.039914760 5.433846260
9.043909922 -0.250455346 0.158795133 -0.149669591 8.165298685 -0.039042663 0.075487315 -0.031057962 5.443865548
9.577392980 0.071116764 -0.114062754 0.042498662 7.018233428 -0.091775707 -0.054222638 -0.073006455 5.353788706
8.631234514 -0.587148700 -0.031679609 -0.350874146 9.620483174 -0.445242527 -0.015059710 -0.354184999 5.237310256
10.399194961 0.003456864 -0.002254009 0.002065787 6.217078162 0.007217255 -0.001071501 0.005741238 4.949270445
9.105965516 -0.186150800 -0.212236947 -0.111241842 8.236484669 -0.168591653 -0.100892243 -0.134112604 5.575781976
8.747411964 0.440179830 -0.049922113 0.263047030 9.155343455 0.261758018 -0.023731749 0.208225311 5.213125855
9.130107416 0.580164878 -0.265457434 0.346700684 9.351827267 0.260490449 -0.126191959 0.207216975 5.320960464
9.107481646 -0.217299373 -0.241698963 -0.129855915 8.271918392 -0.074235825 -0.114897764 -0.059053693 5.542239571
9.800010900 0.039249514 -0.008831154 0.023455114 6.723319775 0.011896206 -0.004198114 0.009463287 5.416086395
9.009636507 -0.111189559 0.164902574 -0.066445760 8.013211067 -0.368460516 0.078390642 -0.293105846 5.240142842
8.793377886 0.364909291 -0.001802449 0.218066115 8.915182280 0.237802861 -0.000856840 0.189169276 5.213720713
9.142843732 0.194623219 0.051636510 0.116304874 7.774343117 -0.173695863 0.024546732 -0.138172941 5.349696744
8.781290186 0.375865217 -0.010536771 0.224613265 8.954007192 0.245266863 -0.005008923 0.195106798 5.211677861
8.789189598 0.368436114 -0.004877256 0.220173709 8.927990057 0.240421936 -0.002318528 0.191252718 5.213090116
9.248305696 0.156526635 -0.065621837 0.093538740 7.478051718 -0.195961493 -0.031195013 -0.155884978 5.342561457
8.599437580 -0.541356020 0.108626599 -0.323508902 9.688238916 -0.482787104 0.051638423 -0.384051253 5.302143443
8.644578094 -0.268111726 0.308558934 -0.160220865 9.587927755 -0.458744954 0.146681356 -0.364926016 5.358986888
9.108210612 -0.195530358 -0.216467236 -0.116846971 8.250360039 -0.141488573 -0.102903219 -0.112552434 5.575148234
9.068241749 0.224212699 0.179178589 0.133987249 8.107038236 -0.102316155 0.085177110 -0.081391253 5.262055856
9.699752603 0.053085249 -0.063503992 0.031723210 6.862031227 -0.035993339 -0.030188242 -0.028632262 5.394599613
9.166139733 0.187320907 0.019509255 0.111941086 7.696271272 -0.184195903 0.009274222 -0.146525594 5.356656089
9.003694087 0.247698219 0.191569554 0.148021959 8.330902950 -0.006203715 0.091067471 -0.004934979 5.207521492
8.951555689 0.180491197 0.151142678 0.107859720 8.952048726 -0.244617708 0.071849525 -0.194590403 5.548677616
10.064006145 -0.012693538 0.105819194 -0.007585530 6.398790063 0.093821850 0.050303851 0.074634138 5.364138579
9.847664899 0.028577754 0.021620952 0.017077778 6.657880362 0.033582261 0.010278071 0.026714279 5.415317792
8.586659255 -0.419439908 0.248623378 -0.250653062 9.674960027 -0.500616624 0.118189461 -0.398234418 5.325008928
8.706445550 -0.612560743 -0.274218632 -0.366060126 9.356258438 -0.329967834 -0.130356817 -0.262485387 5.107103317
8.996852460 -0.091908139 0.019266061 -0.054923377 8.020333847 -0.402832456 0.009158613 -0.320448305 5.361318016
9.078958301 0.580282782 -0.244622841 0.346771142 9.377452643 0.265894222 -0.116287704 0.211515610 5.272401829
9.069020035 -0.142871202 -0.177573082 -0.085378390 8.143144806 -0.309298944 -0.084413891 -0.246043537 5.552974689
8.970330807 0.573208680 -0.212004824 0.342543730 9.418580096 0.266786622 -0.100781898 0.212225504 5.185935433
9.109026580 -0.206924710 -0.226325084 -0.123656121 8.264110245 -0.107544913 -0.107589399 -0.085550666 5.564986813
8.970714928 0.198236194 0.146660658 0.118463952 8.932638627 -0.226694574 0.069718883 -0.180332769 5.527704473
9.361615672 0.471362047 -0.199219217 0.281681209 9.009660174 0.066429116 -0.094703933 0.052843552 5.412952244
8.770717983 0.387982315 -0.018225697 0.231854321 8.994140234 0.251485493 -0.008664050 0.200053643 5.209599942
9.036499017 -0.552503031 -0.274269970 -0.330170243 9.052711624 -0.183766714 -0.130381223 -0.146184180 5.394049089
9.106174382 -0.275557470 -0.478882993 -0.164670367 8.456740443 0.173136154 -0.227649239 0.137727698 5.348462173
9.370768969 0.496273562 -0.245486676 0.296568079 9.058708445 0.104305227 -0.116698350 0.082973536 5.436409958
9.008481413 -0.109087746 0.160055530 -0.065189738 8.011571731 -0.371586338 0.076086476 -0.295592400 5.240113874
8.658267204 -0.241935614 0.307018629 -0.144578285 9.567885716 -0.449339985 0.145949132 -0.357444478 5.378458617
9.363784845 0.475043423 -0.207113954 0.283881162 9.016132959 0.071820394 -0.098456898 0.057132248 5.416553593
9.105387439 -0.331168822 -0.418985021 -0.197903150 8.302158236 0.106998824 -0.199175211 0.085116259 5.327162787
9.042645242 0.235601085 0.192396588 0.140792834 8.203322794 -0.066653794 0.091460623 -0.053022280 5.234668030
9.009338436 -0.211835673 0.184544500 -0.126590863 8.119009239 -0.102329401 0.087727933 -0.081401790 5.374879893
9.021493250 0.242707656 0.193719245 0.145039649 8.273667451 -0.034676362 0.092089382 -0.027584623 5.218085368
8.580544352 -0.453876657 0.222724784 -0.271232116 9.690932509 -0.501108431 0.105877904 -0.398625645 5.329116253
8.959529256 -0.565957358 -0.280857551 -0.338210413 9.117295114 -0.214841585 -0.133512797 -0.170903861 5.321600810
8.609573142 -0.346983937 0.290604180 -0.207354103 9.636813772 -0.486191611 0.138146105 -0.386759497 5.325828184
9.122167614 0.311507714 0.077905670 0.186153870 8.873016446 -0.132965892 0.037034447 -0.105772745 5.406396540
8.581159904 -0.494792573 0.184706336 -0.295683055 9.702000187 -0.495915184 0.087804865 -0.394494480 5.328095455
9.113801687 0.580637249 -0.258002039 0.346982968 9.360619458 0.262996711 -0.122647847 0.209210676 5.304837123
9.338747646 0.447235138 -0.138695152 0.267263211 8.971195322 0.031549963 -0.065932276 0.025097611 5.389179216
9.000296328 -0.198794072 0.192368966 -0.118797334 8.102788304 -0.127428268 0.091447492 -0.101367633 5.345509722
8.922319419 0.284347200 0.136564243 0.169923021 8.590071048 0.126198143 0.064919294 0.100389083 5.196586550
9.091441749 -0.248973459 -0.479258740 -0.148784030 8.478534763 0.180889525 -0.227827860 0.143895411 5.346370401
9.087220652 0.214581063 0.154310535 0.128231481 8.020899099 -0.126165932 0.073355447 -0.100363460 5.288946577
9.368941252 0.510542520 -0.265194116 0.305095064 9.095981936 0.128124641 -0.126066784 0.101921589 5.448584053
9.185231345 -0.473376357 -0.141077113 -0.282884940 8.723310656 -0.050252081 -0.067064602 -0.039974918 5.510559845
8.999239616 -0.559036396 -0.277334956 -0.334074516 9.086033861 -0.199485386 -0.131838242 -0.158688192 5.358856304
9.013175690 -0.140192585 0.221073112 -0.083777676 8.039927819 -0.309313907 0.105092740 -0.246055440 5.264288566
9.357617254 0.523160055 -0.279605911 0.312635176 9.138747280 0.149703748 -0.132917798 0.119087506 5.458143114
9.122865594 0.200499034 0.085303242 0.119816202 7.852567469 -0.160862294 0.040551071 -0.127963993 5.335979716
8.648426193 -0.600263893 -0.101097034 -0.358711652 9.568457500 -0.416561105 -0.048059052 -0.331369278 5.199983363
9.077560795 -0.543542314 -0.267875283 -0.324815409 9.006580826 -0.162414212 -0.127341345 -0.129198525 5.432513444
9.344183297 0.530226029 -0.287607732 0.316857731 9.166155352 0.160964880 -0.136721668 0.128045599 5.462779309
8.987557680 0.574778771 -0.218046556 0.343482001 9.413020197 0.266697937 -0.103653989 0.212154956 5.198191535
9.019596517 -0.103000492 -0.104164386 -0.061552056 8.057834495 -0.379008143 -0.049517197 -0.301496355 5.461258831
8.817122985 0.348162512 0.017462320 0.208058408 8.850445461 0.222383954 0.008301159 0.176903723 5.215537233
9.150209542 -0.509790354 -0.217425654 -0.304645578 8.865272518 -0.099466570 -0.103358828 -0.079124443 5.492373660
10.404834715 0.000170504 -0.000197758 0.000101892 6.217883376 0.000552040 -0.000094009 0.000439141 4.947016818
8.794252700 -0.029090095 0.248311271 -0.017383948 9.320398855 -0.371426260 0.118041093 -0.295465060 5.578471452
8.908987903 -0.575474057 -0.287460658 -0.343897496 9.154794469 -0.234155557 -0.136651752 -0.186267890 5.274077508
9.126619303 0.199369775 0.078487792 0.119141368 7.836915250 -0.163592541 0.037311173 -0.130135871 5.339226662
9.087332661 -0.157178687 -0.198734898 -0.093928399 8.178418021 -0.264749651 -0.094473700 -0.210605118 5.565099816
9.011993973 -0.215175052 0.182641395 -0.128586442 8.123236422 -0.096272806 0.086823244 -0.076583843 5.382256734
8.579817750 -0.483876558 0.196293619 -0.289159754 9.700473887 -0.497864286 0.093313176 -0.396044967 5.329796704
9.055505175 -0.262058336 0.148719499 -0.156603420 8.177230364 -0.022495841 0.070697605 -0.017895167 5.456724886
10.4063000000 0.0000000000 0.0000000000 0.0000000000 6.2187000000 0.0000000000 0.0000000000 0.0000000000 4.9469000000
8.824868315 0.016671106 0.235226636 0.009962485 9.247259627 -0.350994199 0.111820978 -0.279211604 5.611590052
9.110368829 -0.311282084 -0.457350135 -0.186019036 8.371572527 0.143104567 -0.217413046 0.113837938 5.334895033
8.981324033 0.254261773 0.185287385 0.151944273 8.403083027 0.031388699 0.088081082 0.024969327 5.198125663
8.995083575 -0.092107204 0.055954689 -0.055042337 8.014017332 -0.402871824 0.026599488 -0.320479622 5.329719543
9.809576402 0.037337867 -0.002887077 0.022312733 6.710096840 0.016387775 -0.001372446 0.013036275 5.416500722
10.401981112 0.001454739 -0.001131133 0.000869337 6.217045283 0.003110469 -0.000537713 0.002474340 4.947620025
9.530597809 0.080244708 -0.128203122 0.047953429 7.070802290 -0.111945424 -0.060944623 -0.089051219 5.343291488
8.804213697 -0.596721046 -0.306283724 -0.356594483 9.236382132 -0.276704540 -0.145599776 -0.220115086 5.174007312
10.255009046 -0.013114187 0.061545197 -0.007836906 6.230653940 0.097561548 0.029257079 0.077609022 5.183079591
9.084163182 0.216110297 0.159311802 0.129145336 8.035616411 -0.122507346 0.075732926 -0.097453100 5.284286744
9.152723586 -0.342311647 0.058725184 -0.204561990 8.269159498 0.069776704 0.027916513 0.055506517 5.518385960
9.059245270 -0.135662287 -0.165776336 -0.081070415 8.126137716 -0.326433093 -0.078806008 -0.259673544 5.541924649
8.592624660 -0.528828896 0.134534169 -0.316022818 9.695962594 -0.487337626 0.063954247 -0.387671138 5.312427282
9.109054823 -0.204713189 -0.223903428 -0.122334539 8.261777861 -0.114322918 -0.106438203 -0.090942487 5.568013945
9.191290791 -0.379998376 0.036117526 -0.227083200 8.350672952 0.082038168 0.017169387 0.065260362 5.534586195
10.344819718 0.012833339 0.020369837 0.007669074 6.199533990 0.054655886 0.009683321 0.043478091 5.029725198
9.319290981 0.433732274 -0.102107201 0.259194035 8.952290759 0.011849219 -0.048539261 0.009425909 5.377941269
9.166829873 -0.353823953 0.050687938 -0.211441628 8.291130728 0.077036129 0.024095804 0.061281301 5.526925214
8.838608930 0.335252668 0.038114472 0.200343615 8.797785262 0.207367599 0.018118686 0.164958396 5.214752880
9.007607430 -0.093867070 -0.067389015 -0.056094015 8.037596955 -0.392554469 -0.032035086 -0.312272292 5.422743094
8.989487593 -0.560705189 -0.278109955 -0.335071770 9.093994910 -0.203328453 -0.132206657 -0.161745305 5.349684355
9.269319865 0.552863784 -0.312446252 0.330385825 9.251961908 0.199568080 -0.148529291 0.158753973 5.452095708
8.581358986 -0.447312260 0.227922653 -0.267309298 9.688155481 -0.501370823 0.108348844 -0.398834374 5.328391331
9.092276204 -0.539255879 -0.263474461 -0.322253878 8.985997306 -0.152920193 -0.125249302 -0.121646148 5.445862950
9.217798071 -0.441923291 -0.059790130 -0.264088905 8.552630228 0.004758698 -0.028422763 0.003785486 5.518566427
8.737574148 -0.112271481 0.268470780 -0.067092305 9.429172965 -0.406698995 0.127624430 -0.323524090 5.502935203
9.003202205 -0.092248460 -0.043634913 -0.055126750 8.030896119 -0.397413531 -0.020742968 -0.316137617 5.405162112
9.104019807 -0.304180324 0.100735283 -0.181775096 8.218386679 0.032055255 0.047887085 0.025499565 5.488972361
8.594840616 -0.533127778 0.126156269 -0.318591787 9.693704163 -0.485900637 0.059971599 -0.386528030 5.309189934
9.161944924 -0.499486300 -0.197563206 -0.298487979 8.826788173 -0.084333929 -0.093916707 -0.067086612 5.499810350
9.111302538 -0.288079125 -0.475030841 -0.172153182 8.436414483 0.165864063 -0.225818021 0.131942839 5.347745275
8.998902965 0.221754299 0.139236141 0.132518134 8.910530141 -0.203677441 0.066189449 -0.162022920 5.498570164
8.890250959 0.304579509 0.097599651 0.182013645 8.674486411 0.163354174 0.046396482 0.129946253 5.205096161
9.337890415 0.126207370 -0.127771263 0.075420252 7.300122013 -0.182314998 -0.060739327 -0.145029357 5.330084062
8.995302155 -0.092027344 0.048859202 -0.054994613 8.015320704 -0.403049315 0.023226467 -0.320620814 5.336324115
9.321200008 0.538508396 -0.298067214 0.321807190 9.199215207 0.173935773 -0.141693849 0.138363786 5.466021016
9.199010762 0.175640044 -0.017772735 0.104960720 7.601826672 -0.192905518 -0.008448723 -0.153453987 5.355438213
9.026980883 -0.109545617 -0.119169567 -0.065463356 8.070737821 -0.370341950 -0.056650292 -0.294602504 5.481265906
8.765223053 0.489688820 -0.085705905 0.292633104 9.326019460 0.256988189 -0.040742487 0.204430970 5.212102043
9.001292604 -0.099049552 0.131141174 -0.059191014 8.005081550 -0.387582487 0.062341300 -0.308317141 5.252254535
9.112415219 -0.302769169 -0.465381600 -0.180931804 8.398268046 0.152850146 -0.221231008 0.121590427 5.341532372
9.216432621 -0.443640557 -0.064162468 -0.265115125 8.563274832 0.000443725 -0.030501265 0.000352978 5.518171123
8.843409913 0.540104993 -0.121591549 0.322761300 9.427079413 0.263238965 -0.057801643 0.209403386 5.159240250
9.033383719 -0.239379173 0.167304967 -0.143050581 8.152991704 -0.055773278 0.079532681 -0.044366962 5.428380264
9.106924692 -0.219225206 -0.245308263 -0.131006774 8.272648525 -0.067865140 -0.116613537 -0.053985891 5.536364102
10.340503715 0.012481725 0.022841562 0.007458953 6.198718759 0.057394678 0.010858319 0.045656766 5.037277311
9.565790683 0.073284038 -0.117884552 0.043793803 7.031592104 -0.096844302 -0.056039427 -0.077038461 5.350821937
9.554116715 0.075530733 -0.121526500 0.045136405 7.044797668 -0.101900001 -0.057770720 -0.081060208 5.348081415
9.351524921 0.526753712 -0.283594949 0.314782710 9.152501596 0.155523191 -0.134814089 0.123716802 5.460603613
8.765610166 -0.604488113 -0.307392446 -0.361236004 9.271885559 -0.294188497 -0.146126836 -0.234023361 5.139600563
9.105669626 -0.328881943 -0.430391677 -0.196536534 8.315499667 0.115667771 -0.204597656 0.092012301 5.324711845
8.995594814 -0.091973540 0.041619308 -0.054962461 8.016611132 -0.403128563 0.019784799 -0.320683855 5.342809363
9.109728352 -0.313352361 -0.455166951 -0.187256213 8.365103555 0.140521617 -0.216375214 0.111783233 5.333161199
9.104586787 -0.318740025 -0.374002621 -0.190475826 8.269629431 0.076891903 -0.177791680 0.061166571 5.353541572
9.042164377 0.578619202 -0.233506913 0.345777003 9.393016700 0.266767896 -0.111003464 0.212210608 5.240850884
9.010360905 -0.095531748 -0.078285178 -0.057088810 8.042045710 -0.389476078 -0.037214855 -0.309823470 5.432381871
8.918144428 0.145134514 0.160997230 0.086730923 8.998237504 -0.278570277 0.076534138 -0.221599258 5.585036289
9.360229736 0.521274279 -0.277536900 0.311508256 9.131751313 0.146564922 -0.131934241 0.116590608 5.456795360
8.878624853 0.094661493 0.186805576 0.056568754 9.086639036 -0.316238239 0.088802793 -0.251563662 5.621330858
9.220885604 -0.434769377 -0.043071685 -0.259813798 8.512104797 0.022843014 -0.020475223 0.018171339 5.520204930
8.784758540 0.505672079 -0.092857207 0.302184538 9.369335353 0.257485793 -0.044142040 0.204826808 5.198764267
9.104112564 -0.226734308 -0.260904626 -0.135494137 8.272982088 -0.043680707 -0.124027665 -0.034747470 5.509678226
9.208782845 -0.450895940 -0.083573898 -0.269450869 8.608504958 -0.015958979 -0.039728983 -0.012695173 5.516408865
9.112261731 0.203935724 0.105679624 0.121869933 7.899404494 -0.152237374 0.050237503 -0.121102974 5.324875803
9.127109872 -0.322295881 0.078331965 -0.192600770 8.239324617 0.052130812 0.037237096 0.041469425 5.502296137
9.099745308 -0.286129072 -0.336202243 -0.170987850 8.257784512 0.046908020 -0.159822307 0.037314758 5.387661314
9.104850980 -0.321351781 -0.378465961 -0.192036585 8.271925074 0.079954792 -0.179913443 0.063603062 5.350175400
10.266558349 -0.009470341 0.057586271 -0.005659380 6.221557738 0.094377181 0.027375102 0.075075896 5.165178746
9.203938743 -0.455021150 -0.094735771 -0.271916053 8.632703995 -0.023710484 -0.045035064 -0.018861401 5.515375370
9.105436082 -0.330663095 -0.422974185 -0.197600933 8.306440869 0.109901175 -0.201071562 0.087425044 5.325996943
8.864546810 0.074638972 0.201356975 0.044603497 9.129008408 -0.326823085 0.095720172 -0.259983778 5.627989447
9.097670847 -0.270184277 -0.321403647 -0.161459401 8.257918811 0.032005167 -0.152787417 0.025459720 5.405498312
10.364966066 0.012690188 0.009081933 0.007583529 6.205649180 0.041030111 0.004317328 0.032638953 4.995180348
9.055002530 -0.174105642 -0.460304397 -0.104043777 8.501614331 0.180112357 -0.218817430 0.143277183 5.349201641
8.649062494 -0.259319140 0.308447778 -0.154966504 9.581472096 -0.455543622 0.146628515 -0.362379395 5.365120449
10.404324317 0.000312082 -0.000313306 0.000186497 6.217654346 0.000863028 -0.000148938 0.000686528 4.947071847
9.483139417 0.090446743 -0.138612660 0.054050062 7.121916037 -0.131603352 -0.065893061 -0.104688862 5.336325148
9.370855883 0.502452467 -0.254562138 0.300260530 9.073652643 0.114406424 -0.121012602 0.091008915 5.441829079
8.597120088 -0.537301411 0.117513118 -0.321085908 9.691125240 -0.484387954 0.055862857 -0.385324709 5.305757326
9.193237666 0.177781763 -0.011662081 0.106240590 7.617475385 -0.191814801 -0.005543868 -0.152586335 5.356329876
9.206420512 -0.452906605 -0.089031155 -0.270652422 8.620496423 -0.019870373 -0.042323229 -0.015806640 5.515906088
9.010723007 -0.113366960 0.169739424 -0.067746953 8.014957338 -0.365197710 0.080689963 -0.290510324 5.240666541
8.992899951 -0.169970541 0.218667007 -0.101572682 8.070114281 -0.199445170 0.103948936 -0.158656200 5.291406663
10.174941902 -0.021932175 0.086469495 -0.013106447 6.301631928 0.105351601 0.041105479 0.083805913 5.282313244
8.916105514 0.565561881 -0.182814927 0.337974080 9.432716638 0.267746086 -0.086905736 0.212988745 5.155512310
8.932154415 0.278213373 0.147747001 0.166257508 8.561466835 0.112577867 0.070235304 0.089554320 5.194566111
8.833079303 0.338491225 0.032505383 0.202278944 8.811061085 0.211358449 0.015452263 0.168133068 5.215162123
9.656377594 0.058437212 -0.083352228 0.034921489 6.920249215 -0.056216275 -0.039623606 -0.044719361 5.379340811
8.767585214 0.392236499 -0.020670213 0.234396578 9.007699370 0.253240626 -0.009826113 0.201449829 5.209048387
8.999236854 -0.096867939 0.121338265 -0.057887304 8.004558329 -0.391751241 0.057681238 -0.311633334 5.260923617
8.748124502 0.436105193 -0.047006609 0.260612068 9.142366452 0.261734981 -0.022345790 0.208206985 5.212120423
9.202984017 -0.396512586 0.020607158 -0.236951925 8.387834458 0.076787119 0.009796138 0.061083216 5.531614992
9.023702256 -0.228793155 0.174491384 -0.136724483 8.140336341 -0.072784225 0.082948928 -0.057898963 5.410154759
8.878165924 0.554978592 -0.150967275 0.331649613 9.435936206 0.266772042 -0.071766143 0.212213905 5.149169848
9.471251482 0.093130748 -0.140482589 0.055653996 7.134694769 -0.136386771 -0.066781980 -0.108494013 5.335065812
9.053735150 -0.549122125 -0.272285259 -0.328149847 9.034962712 -0.175530916 -0.129437740 -0.139632703 5.410316906
9.335673103 0.533616543 -0.291748739 0.318883868 9.179673487 0.166207663 -0.138690201 0.132216169 5.464576061
8.994353609 -0.165575780 0.223488745 -0.098946418 8.065613322 -0.214186137 0.106241073 -0.170382459 5.286155842
9.097045408 -0.255979832 -0.307398267 -0.152970967 8.260866440 0.015932940 -0.146129603 0.012674460 5.426458714
9.364584408 0.517272430 -0.273100541 0.309116791 9.117556436 0.139753443 -0.129825305 0.111172159 5.453837829
9.060701968 0.579578568 -0.238825195 0.346350311 9.385414207 0.266517109 -0.113531645 0.212011110 5.256435373
8.785193090 0.372054000 -0.007755034 0.222335721 8.940815316 0.242889897 -0.003686553 0.193215951 5.212407597
8.747331892 0.458748150 -0.064320720 0.274143271 9.218078508 0.260407812 -0.030576494 0.207151238 5.217612181
9.261372721 0.399562001 -0.026832473 0.238774225 8.913970552 -0.038028117 -0.012755500 -0.030250903 5.365916449
9.029252006 0.244941483 0.128698151 0.146374561 8.893277436 -0.183124921 0.061179947 -0.145673641 5.470532497
9.213031590 -0.447131644 -0.073379637 -0.267201364 8.585237453 -0.007886001 -0.034882881 -0.006273218 5.517338504
9.160539155 0.577713635 -0.280974058 0.345235846 9.333565823 0.252925295 -0.133568181 0.201198987 5.352486451
8.734306219 -0.609856792 -0.298207516 -0.364444272 9.308112096 -0.310554627 -0.141760545 -0.247042418 5.116699518
9.105373788 -0.330124586 -0.401591108 -0.197279126 8.286778445 0.095226518 -0.190906571 0.075751534 5.335027352
8.832753105 0.028400239 0.230296502 0.016971697 9.225572262 -0.346101087 0.109477313 -0.275319194 5.618360059
8.976914161 0.255776076 0.183430030 0.152849205 8.417509891 0.038989253 0.087198141 0.031015475 5.196777294
9.077788195 -0.149403106 -0.187920258 -0.089281791 8.159149741 -0.290770097 -0.089332685 -0.231304066 5.560120252
8.844201374 0.332000033 0.043980825 0.198399874 8.784472143 0.203224130 0.020907407 0.161662316 5.214198209
9.124636170 -0.526098138 -0.245563659 -0.314390945 8.928719363 -0.126817418 -0.116734946 -0.100881709 5.473412076
10.277519806 -0.005549895 0.053580937 -0.003316561 6.213888597 0.090624646 0.025471064 0.072090800 5.147224143
9.103456864 -0.179256438 -0.210503333 -0.107121841 8.225007385 -0.189057151 -0.100068126 -0.150392657 5.573734780
9.091267103 -0.160919542 -0.202722240 -0.096163896 8.187436254 -0.251188232 -0.096369185 -0.199817175 5.566586277
9.241856837 0.159052637 -0.059732511 0.095048253 7.493412562 -0.196112968 -0.028395372 -0.156005474 5.344385649
9.208101366 -0.403552339 0.011782214 -0.241158811 8.404393951 0.072243920 0.005600976 0.057469157 5.529747675
9.021521752 0.239165503 0.131687684 0.142922894 8.897111066 -0.187999688 0.062601098 -0.149551459 5.477328255
10.215145417 -0.020690635 0.074339659 -0.012364515 6.265677146 0.103910305 0.035339252 0.082659380 5.237108981
9.080393403 -0.151415432 -0.190949026 -0.090484336 8.164150765 -0.284425098 -0.090772487 -0.226256696 5.561747522
8.999219122 -0.091900243 -0.010220104 -0.054918659 8.024900478 -0.401289601 -0.004858387 -0.319220983 5.382831089
9.044955334 0.256512044 0.121940085 0.153289012 8.886580296 -0.173829542 0.057967328 -0.138279280 5.457447606
8.874992228 0.089552261 0.190394113 0.053515529 9.097173083 -0.319165695 0.090508695 -0.253892418 5.623589650
9.105202184 -0.325831931 -0.387728526 -0.194713878 8.277252762 0.086149284 -0.184316639 0.068530705 5.343610494
9.077942172 0.219282610 0.168339824 0.131041078 8.064670539 -0.114829798 0.080024627 -0.091345704 5.275128831
9.101396773 -0.174842039 -0.209583206 -0.104483840 8.217007967 -0.202817923 -0.099630720 -0.161339184 5.571933352
9.131336759 0.317802160 0.071978895 0.189915368 8.873365109 -0.127960163 0.034217003 -0.101790749 5.401690363
9.895512462 0.016400900 0.052254020 0.009801013 6.593892294 0.052723116 0.024840281 0.041940596 5.409276615
8.927295094 0.281223632 0.142307442 0.168056408 8.575786731 0.119452339 0.067649471 0.095022878 5.195492508
9.197848834 -0.389362636 0.028212170 -0.232679187 8.371736325 0.079847371 0.013411374 0.063517610 5.533232500
8.903448560 0.127551557 0.167938363 0.076223525 9.025704950 -0.293423377 0.079833782 -0.233414717 5.600027747
9.215636217 -0.415132227 -0.005708136 -0.248078835 8.435457801 0.060161658 -0.002713508 0.047857865 5.526185972
8.600459017 -0.372162211 0.278292513 -0.222400386 9.650410569 -0.492942376 0.132293441 -0.392129648 5.323101104
8.963852954 0.260980885 0.176277069 0.155959546 8.460561722 0.061592455 0.083797799 0.048996047 5.193888647
8.635858550 -0.285909405 0.307474122 -0.170856579 9.600235495 -0.465277682 0.146165663 -0.370122721 5.347993728
8.758764522 -0.605778958 -0.306416560 -0.362007400 9.278971229 -0.297526093 -0.145662924 -0.236678378 5.134029908
8.582389206 -0.440542246 0.233147391 -0.263263606 9.685130574 -0.501467669 0.110832556 -0.398911415 5.327568613
8.723860235 -0.611194853 -0.291642188 -0.365243884 9.323469414 -0.316977679 -0.138639549 -0.252151877 5.111249214
8.774647153 -0.057836828 0.254573724 -0.034562705 9.359851432 -0.384411419 0.121018110 -0.305794595 5.554325272
9.075146627 -0.217737816 -0.473587436 -0.130117924 8.490715172 0.183018272 -0.225131861 0.145588803 5.345420441
10.403198058 0.000763569 -0.000652684 0.000456301 6.217266015 0.001770353 -0.000310270 0.001408294 4.947258860
9.425532844 0.103847684 -0.144183785 0.062058329 7.185123680 -0.154098085 -0.068541438 -0.122583147 5.331662899
8.854302644 0.059871919 0.212038883 0.035778855 9.161092759 -0.333363620 0.100798089 -0.265186694 5.628666639