5.1151090478 0.3197148049 2.7707766495 2.5869357467 5.9925039747 4.8766343012 1.9782449863 2.2592238996 3.1009173266 6.9825848719 1.5985173682 -0.4331603032 7.1565122519 4.5397984401 2.7168383023 1.0153482969 5.0857468136 2.0851231320 3.6623991362 2.0472817694 5.1459102988 8.2869535568 1.4328508701 2.4336215052 5.8188605799 5.8211687983 0.2461577182 1.6489269266 5.9188191699 3.2257381428 3.4647668864 1.7783210250 1.3436853989 8.2492982188 1.6544745194 0.8882723384 6.0914993395 5.3717438747 4.0609829364 4.2970663505 5.9376212691 0.2758956179 0.3517206534 1.0575530639 2.9938888694 5.1913461194 2.2118465295 4.8037293092 8.8544528155 5.1962817759 2.2408796134 1.4232082325 5.9228341181 0.8375976174 3.2717532055 0.7676905126 4.2981476156 7.4957968776 2.7405157957 2.9632342328 6.2280081638 4.6785636561 1.1753119599 7.3911924762 0.4356367630 3.2822694487 6.2867879280 7.2035952180 0.6358801358 1.4689682602 3.6631047363 1.8476389348 2.7696916888 3.1638285146 4.4896741455
4.0771635635 -0.5876776032 2.6594547831 2.9739021131 7.4601048858 5.3723697478 1.8940105756 3.3062422119 2.4061299359 6.5772041172 1.8469120349 0.2019039147 7.6372241991 6.5079790608 2.7044669024 1.6523472565 6.3184066695 2.5533137271 3.0448312661 1.8069466673 4.9558536333 7.9175997638 3.3006563516 2.9463507769 6.5859834672 7.7436499937 0.1185453849 2.3496341215 7.2615712085 3.4744417138 2.6915893657 2.3978755403 0.8831422191 7.3093938208 2.3780315783 1.8731254869 6.5624286949 7.4410405392 3.8979982387 5.0451386986 7.8635382021 0.5550376869 -0.0300651308 3.3673830024 2.6327118401 4.5886528217 1.5910525788 4.9867311933 9.5179949052 6.6446404580 2.8692279556 1.7198683135 7.0104318619 1.1219675516 2.2549810474 0.4904825047 4.8800903142 7.0189153877 4.6079766109 3.0765562629 7.3355630010 6.4803242534 0.7393192242 8.0487445681 2.3737573791 4.2414994529 7.4512455751 8.9730307291 0.4038546675 2.4029388089 5.0179007475 2.3008361316 2.7456249612 2.6820960289 3.7560539604
5.1546509157 0.0482672488 2.5486117554 2.7042184244 4.7566606883 4.9228738586 2.3154105698 1.5555373571 2.7699757272 7.6922565152 1.4240129882 -0.0968312519 8.1259325998 4.7365014604 2.6940906235 1.1836090110 4.4136192966 2.1398587468 4.1891470783 1.8939043346 4.9139343156 9.3010087424 1.5777527050 2.7089764566 6.1189135860 4.6948307218 0.3094958891 1.4156030871 4.8285766632 3.5939815461 4.0977626774 1.8430319425 1.3958295031 9.0867892049 1.7384662390 1.1822172138 6.2958771501 4.4545112359 3.8143695482 4.6069380491 4.9893455004 0.7919678792 0.4096622389 1.2168197856 3.0023272757 5.5707150560 1.7150896682 4.2089615647 10.0425847100 4.2334979815 1.9057657990 1.7720067447 5.5549609433 1.2399894912 3.1895603178 0.6333301402 4.2363490079 8.4485776693 2.6776164170 3.5240851518 6.7565005010 3.5681724025 1.1757164158 8.5341231931 0.2297314019 3.4386471285 6.8448482109 6.0596910823 0.6775268975 2.0990448778 3.2165815740 1.8797398211 3.3541749286 3.0233596051 4.2422479036
3.8792427536 0.1286470429 2.6448902461 2.7973939818 8.2458396926 5.1967205276 1.8541273521 3.6786808368 2.3882152649 6.6587761581 1.5420234537 0.0299942947 7.3537027739 6.8409325956 2.8345449709 1.5645527738 7.0283757197 2.5303173120 3.1913982901 2.3117806157 5.1069051669 7.6320075271 3.4407709282 2.5344666330 5.9716718383 7.6765489220 0.2502755019 2.5783140689 7.8098405274 3.3392250074 2.6193141260 2.4313638677 1.3669217436 6.6872630503 3.1434717142 1.4546909082 6.2385425161 8.1530178871 3.8586727854 4.5084227784 7.2616802567 0.2301329976 0.1736239649 2.6250617616 2.5297965039 4.6632277421 2.2433577763 5.3886950147 9.0742861359 7.7663093968 2.9296352113 1.6869671651 8.0027120763 1.2776289519 2.6963425451 0.8472905404 4.8473713844 7.4528049122 4.9067236419 2.9607658759 6.9067767232 6.6529894435 0.9578356197 7.1681174939 2.6275782782 3.7922062367 6.2871965238 9.0581195237 0.9242121124 1.8911222102 5.5910259767 2.0924036753 2.8694787350 3.2097850408 3.9029009594
4.4421984341 0.7376291006 2.4065169626 2.5607208854 7.9607844905 5.0656285395 1.7556159797 3.4320419072 2.7073661349 6.4822057384 1.3920686029 0.3324252790 7.3910966086 5.9960271447 2.9308598055 1.3032411408 6.5738101219 2.5000333410 3.3522066380 2.2046281686 5.1852969209 7.7556937513 2.7358853389 2.8086317994 5.6056113717 6.9689709048 0.3841437559 2.4528646615 7.1524844965 3.2987939416 2.8166515289 2.0098974905 1.5140876858 7.4649394064 2.5724227058 1.3401964881 5.9435111964 6.7966363630 4.0783403139 4.1144166428 6.8331984545 0.7605599012 0.4142598122 2.1092528179 2.8908302663 4.8155730349 2.7218540686 5.1397114759 8.8005069672 7.1560507908 3.3615761010 1.2514318378 7.3746924412 1.1446063606 3.2235831447 0.7984309667 4.3960094205 7.4310838984 4.0898494797 3.4815158601 6.7018275381 6.2462825164 1.2267769746 6.9331827558 1.7005475307 3.6501095267 5.9830842167 8.4620883066 0.7673474820 1.1645990055 5.0815693815 2.1212781475 2.4934480186 3.2660703618 4.4249353421
4.1844490453 0.6110969867 2.4935078319 2.6334463790 8.1975370247 5.1386504257 1.7103145656 3.5561407066 2.6965161513 6.3951035385 1.3308356737 0.2936160196 7.3210153339 6.4133171213 2.9683174976 1.3037986751 6.9301580386 2.5153205583 3.3142023482 2.3388204893 5.1163051014 7.5257673374 3.1586868030 2.7894669939 5.6946796594 7.2873110504 0.2960551868 2.5837482934 7.2543431656 3.3741854505 2.7800119747 2.1049201269 1.3605842014 7.1044524494 2.9285976004 1.2668403540 5.9967028181 7.4093348659 4.0252465668 4.1231166686 6.9881202511 0.5161765547 0.2752667743 2.4366552820 2.7147187679 4.8842085285 2.5450223609 5.2605156770 8.8264607950 7.5403685954 3.3640944665 1.1541825859 7.8252061858 1.2034253948 3.2377781082 0.8819273039 4.5818822546 7.5853870693 4.6067896890 3.3043312550 6.6198074812 6.4008446456 1.1735195557 6.8991658241 2.0237526376 3.6065607442 5.9755658692 8.8458093387 0.6644777108 1.4429977614 5.3722802131 2.1748896476 2.6284950084 3.3476906246 4.2906365201
5.0826754822 0.1262750632 2.7495362298 2.7451468171 4.9647656798 5.0649686030 2.3873680188 1.5620432453 3.1182360761 7.6378542366 1.2939224355 -0.1238020414 7.9584300091 4.6577098313 2.9282363383 1.0403679307 4.3489002739 2.3150385927 4.1634567716 1.9547425483 5.2379004712 9.2596242666 1.4433819604 2.7423376096 5.9000894720 4.7980118447 0.3364159601 1.1989260145 5.0826292538 3.7067821755 4.3077915245 1.8134665431 1.4801462062 8.8818910534 1.6790501687 1.2719478126 6.2030692396 4.5842753957 4.0793430730 4.3907400734 5.0467601931 0.7692144655 0.4914616510 1.2994153120 3.1499257214 5.5916973086 1.9844115079 4.4512581836 9.8157175624 3.9538543043 2.0718303084 1.5165497894 5.4945077708 1.2793838328 3.2683083601 0.8441250988 4.6251580622 8.5992942009 2.5844715428 3.6399179536 6.6369296213 3.9805693922 1.4336332589 8.3698727013 0.2727130313 3.3166716385 6.8634570386 6.0943141463 0.7745810095 2.0009489037 3.1114945603 1.8414784307 3.4255246778 3.2583955609 4.6619444942
3.5726658907 0.1629281638 2.2569846602 3.4949820728 5.8366767813 5.4033079012 0.9274934305 1.9687679385 2.4434337672 5.2707442616 1.8542432404 -0.0228384606 7.9957349620 5.9099314270 2.4250982294 1.9323042236 5.2697576233 2.5411528137 2.3520475434 0.7024256431 5.2910272917 6.9901767726 2.5284844305 2.8359214222 6.7054558918 6.9635160489 -0.5094951743 2.1319391667 5.3239607857 4.0859179544 1.3158971538 0.9846573486 0.8383725179 5.9871645275 2.0123286433 1.8163297126 8.0199451627 6.3363244896 4.3678451846 5.5682076217 5.9242420838 -0.8762804277 -0.6779111879 1.9145303354 3.0480660927 3.3455896735 1.8430763172 5.7832988518 9.9325507383 6.2942776250 2.1491254685 3.1719476381 5.7372566510 1.7181561625 3.1961601848 -0.5630525351 5.1730277597 7.4040049871 4.0615824037 2.5329899442 6.8650914355 6.7822218763 1.0255256576 6.5568675712 2.2242942852 4.3358677488 6.1065379039 8.3117375819 -0.9825291251 1.5152883375 3.7353458914 2.2637908963 2.1094455159 1.2408712869 3.8817915014
3.9279451163 0.0289041268 2.6591687356 3.2952611090 6.0236366511 5.3759125544 0.7956199298 2.0865522731 2.3652889758 5.6491589043 1.7675743617 0.0162879511 7.9977675172 5.9425502409 2.4385153808 1.7443376436 5.1859774451 2.5170641817 2.3195376609 1.1786622060 5.1997619298 7.0011952545 2.8463005414 2.7577615326 6.3951258084 6.8565724717 -0.2862032274 2.1235719116 5.5265535913 3.9992773916 1.2033081183 1.5171720990 0.6430414790 5.9845113186 2.6276675326 1.5353800878 7.2296525957 6.6936691111 3.9777690035 5.2254844939 5.8638955135 -0.6784498762 -1.0722516567 1.9734627790 2.9834850881 3.4868481661 2.2723481103 5.2288666064 9.6665313123 5.7179920820 1.6269642922 3.0645172901 5.7075565612 1.7790806651 3.1448665045 -0.1164433077 5.7346098126 7.9427766326 4.0308346642 2.7658516548 6.8940014932 6.4331604028 1.1256416059 6.1168660596 3.0598336429 4.0244846903 5.9623953984 8.3620605376 -0.1795774055 1.3541256186 3.7818347606 2.2296840249 1.9171436077 0.9686325052 3.6379935615
4.5334800482 -0.0658904726 2.5596726093 3.0009029868 6.2975291357 5.3672319410 1.0553402916 2.3213423340 2.3276817362 5.8736616636 1.6248249097 0.3983599897 7.9372495348 5.8671959766 3.3061432742 1.9630451373 5.3177105431 2.6342510131 2.6344099244 1.0379171619 5.1189576642 7.1242806701 2.6565983295 3.1562578331 6.3614835805 7.1056720881 0.2957459111 3.0881378794 5.4591638368 3.6713793476 1.6240584271 1.2367030968 0.7670031109 6.1257582530 1.7485945996 2.2424655621 6.6884954768 6.3844251417 4.4342477397 4.8037504791 6.9125482232 0.4898269577 -0.6277261292 2.4380249905 3.0385087562 4.0911788072 1.5191324746 5.3985419856 9.8276924553 5.0923773432 3.3114275050 2.2295751839 6.4025809038 1.5701306235 2.8058414112 -0.4617055364 4.7838998278 7.0292179727 4.1479971445 2.7330275873 7.1521464823 6.6447120543 1.5103471945 6.4492457869 2.8451271201 4.5672311905 6.6044240201 8.5197750925 -0.1951176768 1.9651037684 3.9383611670 1.9213719966 1.9236441220 1.6379472129 3.9172627587
3.8575346360 0.0350082763 2.6848740449 2.8249461120 8.2294031435 5.2715376441 1.8671161502 3.6841609957 2.3953445007 6.6901719321 1.5948159574 0.0137119763 7.4018433633 6.8159022249 2.8143458718 1.5800062317 6.9929633778 2.5102227550 3.1907451790 2.2833129626 5.1441519058 7.6821548413 3.5012961405 2.5913406888 6.0566183227 7.7651088812 0.2693411437 2.6051432158 7.8341978835 3.4053153041 2.6497117896 2.4001668468 1.2676606515 6.7739017468 2.9967449633 1.4157201422 6.3138158729 8.1602579092 3.9405570642 4.6376655951 7.2313636890 0.2719085888 0.1735232868 2.7148881984 2.4821221535 4.6577760652 2.0775196486 5.4810251588 9.1749142506 7.6524594176 2.8731703716 1.6759156067 7.9112995288 1.2960598213 2.5849827657 0.8068524537 4.9303340800 7.4670281902 5.0115004447 2.9827608005 7.0305011100 6.6867150278 0.8804444194 7.3257383708 2.6547879583 3.8786519435 6.4031908635 9.0316069219 0.9700906529 1.9498542700 5.5330528111 2.1662643688 2.7849788159 3.1572241419 3.8431792529
5.1238564502 0.3631382709 2.7617742632 2.6017794547 6.0897552911 4.8636500604 1.9432935137 2.2982760905 3.0598297245 6.9050045684 1.6193535235 -0.4079770602 7.1560567552 4.5530304825 2.7564263681 1.0245567799 5.2027118526 2.0622901990 3.6543139610 2.0076784148 5.1803707062 8.2384932150 1.5253105760 2.4605348982 5.8523186290 5.9098795926 0.2225852480 1.7396745641 5.9922267955 3.2016340904 3.3784279458 1.7931389193 1.2990630812 8.2700763340 1.5563419345 0.9302147306 6.0451289143 5.4339961131 4.0167953322 4.3495130165 5.9569459437 0.2869816391 0.3795882887 1.1319338303 2.9925120857 5.1246627796 2.2415084695 4.8477144920 8.7977616307 5.2914650835 2.3148696361 1.4033914544 6.0131597676 0.8320211389 3.2021160256 0.8022368498 4.3071088883 7.4559147093 2.8348636841 3.0436256080 6.1551105654 4.7358348566 1.1940733089 7.3258302956 0.4716122260 3.3110516773 6.2745034319 7.2913320161 0.6017389802 1.4264305355 3.7360446002 1.8497351759 2.7278318368 3.1313593831 4.4760182187
5.0543862214 0.1905642903 2.8829481434 2.7005234195 5.1968704115 5.1448576215 2.3641559969 1.6769342135 3.2478379179 7.5217994781 1.2983189669 -0.1881742552 7.7898532342 4.5601061030 3.0070044790 0.9711927444 4.4246156184 2.3216345560 4.2647011035 2.1372823977 5.4342719097 9.1102627742 1.4784575122 2.7971969851 5.9428168705 5.0291744584 0.4807334942 1.2522838979 5.0586627436 3.7293631240 4.3327410765 1.6739810544 1.6154367944 8.7583647231 1.5375062347 1.2980650022 6.0942546458 4.8920526240 4.2773170005 4.4673647413 5.2268663696 0.6783723444 0.4754377001 1.3716192147 3.1353835433 5.5833093844 2.0218850290 4.7292360431 9.5243789294 4.0645829120 2.2461878969 1.3906964863 5.4795492690 1.2437779221 3.3508465814 0.7832500626 4.8489963396 8.4973935529 2.5683921901 3.8257785114 6.5495223143 4.1073472390 1.6085716013 8.1778593059 0.1129139128 3.2212658070 6.6728142968 6.3266657780 0.7327336939 1.7957364670 3.1721643251 2.0960377656 3.3951820080 3.2691881519 4.8265187232
4.9721824345 0.6462395102 2.6402344493 2.7328669853 7.0989952239 4.8637597162 2.0059723742 2.7984402134 2.6787006395 6.6012986730 1.6033511605 0.0429939881 7.3166014683 5.1315482841 2.9905531377 1.1130198486 5.9520121104 2.2120618229 3.3890466807 2.1137055561 5.2520656398 8.1017737359 1.8721036095 2.9339031374 5.7395830801 6.4049236249 0.3601233546 2.3358897987 6.3786338286 3.1349321954 3.0864175016 1.8752594359 1.4962631739 7.9865747195 1.8929092089 1.3338867498 6.1323763206 5.9872190062 4.1536834211 4.1231261526 6.4723415516 0.5661258852 0.5060058667 1.6206426073 3.3295623548 4.9382027017 2.2390154460 5.2485007706 8.8120531554 6.4538955538 3.0049739861 1.2060188499 6.6872600250 0.8257696881 3.1789204359 0.7357053602 4.5685457780 7.5975579993 3.2775807151 3.4606242853 6.5861217374 5.4677054366 1.2816710483 7.1822777449 0.7877942709 3.5217776046 6.2531986511 7.9087847387 0.5539608971 1.3795558929 4.3935475946 2.0851128972 2.5692342900 3.2016051243 4.5217641957
3.8757644450 0.1175198459 2.6490174757 2.7999405663 8.2434227041 5.2047321285 1.8563383719 3.6796154268 2.3881648966 6.6628476048 1.5484303021 0.0263888342 7.3584614412 6.8384839479 2.8309554529 1.5686717849 7.0232798487 2.5273733872 3.1928459796 2.3105732851 5.1092195436 7.6360894592 3.4471722896 2.5376146631 5.9760633818 7.6865411083 0.2542815675 2.5791433367 7.8146425836 3.3415625897 2.6211764110 2.4275123653 1.3596471181 6.6973854503 3.1297097277 1.4534744103 6.2460914866 8.1577517926 3.8652620123 4.5259307571 7.2608054977 0.2322306659 0.1721461269 2.6348859295 2.5240654264 4.6587416835 2.2232764578 5.3988678937 9.0826371955 7.7553151629 2.9221807407 1.6905456013 7.9945912995 1.2793748733 2.6824317969 0.8434453569 4.8574725024 7.4537535527 4.9165356474 2.9606800590 6.9220194183 6.6573341462 0.9485375650 7.1836080548 2.6312854114 3.8021518617 6.3003091072 9.0518710848 0.9277556820 1.8970700213 5.5850234802 2.0996887931 2.8575435203 3.2047635489 3.8887990726
3.4586486848 0.0369133283 2.3082922127 3.8047009433 5.5741623686 5.0718291456 1.2124312584 2.1455044247 2.1551254860 5.6583234494 1.8325313975 0.2428678760 7.7918024270 5.5829028789 2.4583534161 2.0160271590 5.0172977428 2.4608067722 2.6423182189 0.7150827370 5.0868274761 6.8668284441 2.6331403364 2.7941822609 6.5654608157 6.8053693718 -0.0523099444 2.5936144572 4.5406746628 3.7419291695 1.3403729935 0.8115211899 0.7643945806 5.8510606167 1.6297442720 2.0785492702 7.6547899281 6.0553982882 4.1243277380 5.5856396680 5.6210042408 -0.0710984913 -0.7726333687 2.0123115585 2.5267280976 3.5881772679 1.7319169125 5.8011913792 9.8288166399 5.8511368421 2.6081377558 3.1157822644 5.9242291163 1.6844135481 3.3711443524 -0.6046827952 4.6813369735 6.7141625316 3.9798127804 2.0127971233 7.1693867406 6.9221755910 1.3686619328 6.2347542862 2.9818838564 4.1331489715 5.8484708812 8.0281556946 -0.5196680335 1.6449159417 3.8955204725 1.4925535625 2.1041268640 1.3356226832 3.8042782585
4.8361604905 -1.3235714754 3.3537535283 2.3538417453 7.5464652809 4.8084960935 1.1654850751 2.8874415367 2.2176323799 5.8472183992 1.6081948427 0.2315531575 6.9673916939 5.8106134109 2.4272106149 1.4931387827 6.1861590866 2.1865615956 2.6146513102 0.9526487971 4.8054744432 6.7959169575 2.4631829933 2.8631657152 5.8988966873 7.9224830606 -0.0648997874 2.4701629775 6.2739466294 3.4655751855 1.4829470333 1.4500814025 0.6557089774 5.4136301392 1.8585271960 2.3283374338 6.1319761486 7.0418712224 3.7394638327 4.3722408383 7.8387685404 0.2871736685 -0.6949914075 2.1411514572 2.1912130807 3.9503028192 1.1789144544 5.5097677282 8.7953540765 6.3648415198 2.7109132521 1.9931092137 6.7346946995 0.8336329753 2.5520762741 -0.5476311922 4.1920005374 6.7632714350 3.9650145539 2.3111399999 6.6880331968 7.0557249382 0.9666459309 6.8833012510 2.4667950576 4.3694050765 6.0618351490 9.4742148212 -0.3179086742 1.1551422554 4.7344017315 1.8794699012 2.5374490181 1.9473845376 3.6494218912
4.6540444329 -1.1938110267 3.0794520035 2.8476766501 7.4351327439 5.2218265575 1.5871870350 2.7023834084 2.3899003485 6.1824449564 1.6863667504 0.6646254200 7.2336862227 6.1079932138 2.6675627649 1.6633310961 6.1132038464 2.4640608109 3.1755799678 1.3844129772 5.0754027663 7.0095350982 2.9969925634 3.5714945007 6.0020647339 7.7715125217 -0.0343672340 2.8180968472 6.6574974108 3.5127012078 2.5213326479 2.4324826692 0.7884907297 6.2624351358 1.8632154410 2.6263864366 6.0576167586 6.7742792941 4.2106765452 4.5938588532 7.9586420214 0.5421451552 -0.3072198641 2.8385932681 2.8040404909 4.6915184936 1.7649815040 4.8825924112 9.0449886634 6.2407826884 3.2506383850 1.9010694606 6.7442501600 1.0937238447 2.6782410564 -0.1128342409 4.9562744237 6.4393193645 4.3798105650 3.0240005102 6.6954393301 7.0208031533 1.1264996919 7.0160728749 2.7216847843 5.0321678626 6.5843659535 9.2020408060 -0.2684656943 1.9004311330 4.5833495210 2.1536344304 2.3789444332 1.9716829856 3.8340373107
4.4735601116 -1.0762207046 2.9475366879 3.0140418214 7.2268196068 5.3180091798 1.5809427851 2.7671387162 2.3281149885 6.2278664075 1.6902246355 0.5180640339 7.2880855194 5.9722087225 2.7710837693 1.7061567793 5.9750699316 2.4626895242 3.1865287960 1.5316259223 5.0769841820 7.2107512447 3.0218814324 3.3900517783 6.0098909494 7.6716845777 -0.1191619524 2.6991966868 6.6657926064 3.3905348121 2.7230850469 2.2919870736 0.9360232404 6.5895020869 2.1187757863 2.3485433721 6.1789133980 6.8527470607 4.1095205746 4.4971533075 7.9731233278 0.3401883513 -0.1629106760 2.8245241778 3.0203970920 4.6965720693 1.5202594312 5.0282720484 9.1384118353 6.1294361413 3.2742805399 1.6555932473 6.8471174800 1.1228453352 2.8952284186 0.0321605928 5.0977721068 6.4251991724 4.3238044902 3.3063015899 6.6324085182 6.8222272219 1.0081535345 7.1704674729 2.7818293615 5.0227340910 6.7833382682 9.0241949061 -0.2692347857 2.2262407842 4.5412498597 2.4469756707 2.5284311202 2.0314272862 3.7863812652
4.8371600638 -1.3301653678 3.3601178571 2.3540154018 7.5517415786 4.8113510693 1.1708530814 2.8912780350 2.2193688836 5.8452670765 1.6121875272 0.2472420272 6.9686313899 5.8146357498 2.4355095750 1.4936566563 6.1959260945 2.1862188143 2.6277004751 0.9563083970 4.8101513909 6.8000592325 2.4712928164 2.8815399542 5.8964761364 7.9276821099 -0.0586880761 2.4732360431 6.2724458957 3.4723842524 1.4870000138 1.4657191490 0.6652299368 5.4196668834 1.8497878247 2.3368830001 6.1240429117 7.0299293282 3.7438975497 4.3820241533 7.8412342867 0.2899236261 -0.6892651720 2.1350121311 2.1822117403 3.9710336223 1.1789904495 5.5050762655 8.7961761472 6.3651674300 2.7089893267 1.9907353427 6.7334405100 0.8389858773 2.5576746219 -0.5488661484 4.2109620678 6.7499420120 3.9789866353 2.3139565714 6.6905551011 7.0585175151 0.9667352400 6.8788652688 2.4703996097 4.3799141006 6.0563555955 9.4726918581 -0.3103548563 1.1647641498 4.7359514245 1.8762699398 2.5392375595 1.9491374282 3.6509470904
4.7020951881 -1.2366068429 3.1129561007 2.7688209636 7.4790007497 5.1579685766 1.5725234129 2.7049312147 2.3919683248 6.1449823612 1.7063369348 0.7028033498 7.1978564262 6.1311013720 2.6137134881 1.6933330151 6.0943109560 2.4273261521 3.1753133235 1.3467636991 4.9976254497 6.9534371253 2.9568852960 3.4667124666 6.0048363370 7.7663770299 -0.0180861917 2.7667648277 6.6263158761 3.4713921506 2.4220158829 2.4129192956 0.7214107209 6.1533609291 1.8077936016 2.7175459094 6.0043261974 6.7801342975 4.2115175406 4.5242819648 7.9410459119 0.5776703685 -0.3633034585 2.8628139907 2.7019336818 4.6173946660 1.7579520769 4.8731453708 8.9829303088 6.3191901069 3.1981371896 1.9803605866 6.7638089336 1.0601313601 2.6211627916 -0.1096020922 4.8968132709 6.5194800091 4.3188737931 2.9274668569 6.7665007641 7.0628486160 1.1538345932 6.9425125849 2.6860980084 5.0116594517 6.5675790852 9.2345701155 -0.2778548094 1.7831516821 4.6248611994 2.0672991763 2.3325092266 1.9731444631 3.8316778962
4.2781221321 0.6808825456 2.4443671720 2.5975081017 8.1097073080 5.1194059235 1.7005119566 3.4996258571 2.7274238327 6.4213042374 1.3532108139 0.3189956333 7.3520722391 6.2400348422 2.9442740638 1.2774515427 6.7862252874 2.4848954723 3.3158166030 2.3111216976 5.1586486112 7.5950563478 2.9684105320 2.8079847339 5.6078998373 7.1350860271 0.3512458358 2.5555677759 7.2170835944 3.3548869528 2.8466276124 2.0338983689 1.3474356063 7.2597120343 2.7763802778 1.2419771205 5.9629907837 7.1949216787 4.0707713865 4.0815383686 6.9520358831 0.6083981067 0.4103634417 2.4094364771 2.7637004551 4.8230292239 2.5972038088 5.2096164275 8.8067166593 7.3768720924 3.3742184888 1.1698402403 7.6441361120 1.2117445972 3.2747115506 0.8890036983 4.4977961955 7.5398996697 4.4615703483 3.4055499878 6.6820810170 6.3756094771 1.2023620887 6.8858231834 1.8925308963 3.6313401962 5.9702351594 8.6284915878 0.6872314573 1.3064712796 5.2282730122 2.1773074931 2.5103227457 3.3200149778 4.2758168776
5.1267979261 0.4036407486 2.7620327045 2.6269627406 6.1908703428 4.8603956842 1.9185686617 2.3313723312 3.0192645726 6.8441545998 1.6354719611 -0.3727686071 7.1651694089 4.5886722933 2.8059108389 1.0260415469 5.3110986159 2.0705898329 3.6362501177 1.9750679460 5.2268945156 8.1967935793 1.5987249453 2.5105658016 5.8816114908 5.9766806110 0.1924823927 1.8288216962 6.0447040867 3.2013369218 3.3137249411 1.8258070954 1.2858478402 8.2853928703 1.4855304404 0.9769307386 6.0331955996 5.4966604631 4.0144448775 4.3217475657 5.9796895366 0.3113486122 0.4139686492 1.2229773273 3.0110673989 5.0963619380 2.2896010976 4.8974836131 8.7800411226 5.3956747016 2.3842141202 1.3665298108 6.1067276019 0.8190437003 3.1375652112 0.8048601567 4.3029635587 7.4601733038 2.8723249821 3.1352585466 6.1177746672 4.7950020761 1.2107610434 7.3018396371 0.5250007239 3.3229336273 6.3012805112 7.4056186245 0.5884977805 1.4022657313 3.7961421018 1.8699104697 2.7246586489 3.1305622757 4.5096637178
5.0722993646 0.2186470891 2.9366554227 2.5607440567 5.6377699600 5.0308474008 2.2067786864 1.9765766897 3.2609837158 7.3057375813 1.4667358611 -0.4050449099 7.4258463737 4.5354302654 2.8839640983 0.9701731100 4.7045394708 2.2767347892 4.0517103691 2.0574899465 5.3755676760 8.6540943537 1.3253230349 2.5904650974 5.8661860049 5.5138405119 0.3598269538 1.4974163733 5.2692449033 3.6106018409 3.9438795385 1.9092081410 1.5398107933 8.5578337756 1.7608877551 1.0980897027 6.3575807785 5.1057897706 4.3230118762 4.3179273693 5.5688150903 0.6806696337 0.3806774440 1.1529357312 3.0405937281 5.4799295603 2.2252352734 4.8426155590 9.1764980508 4.7231080205 2.1709100460 1.3011717787 5.5337928955 1.0134373611 3.3088612568 0.9125106223 4.4256533806 7.9066924110 2.5750870553 3.4445616632 6.3882890281 4.3371561729 1.2471304751 7.8216394745 0.0731221172 3.2425549866 6.4936436458 6.8274952760 0.8249178837 1.6880776484 3.3848595331 2.1856532572 3.2234221636 3.2433251522 4.8874718224
4.2055595796 -0.7955740790 2.7030554547 2.9787725151 7.1910908002 5.2623719544 1.7342448852 3.0569866712 2.2394998142 6.4324377921 1.8942511042 0.3118270713 7.5523320660 6.1581730649 2.8007454297 1.7186696258 6.1780725196 2.5507565154 3.1797918755 1.5270066555 4.9951008339 7.6963884849 3.2047743553 3.1167312949 6.5042502762 7.6582094620 -0.0181213130 2.5337757640 7.0542361651 3.4664539024 2.6793295407 2.4228251882 0.9366446107 7.1103122710 2.2801552992 2.0551645677 6.2457772596 7.2297227242 3.8767594092 4.9704671779 7.9330122681 0.4806579810 -0.0312739754 3.1822904479 2.8808567324 4.7649565612 1.6172897744 4.9047903249 9.4234437283 6.2846955298 2.9393639710 1.7635268856 6.8246915583 1.1144658486 2.4557619954 0.1793007867 4.8961780964 6.8838158915 4.4547737130 3.2464618489 6.9290899651 6.4938315671 0.9608906591 7.6440986603 2.5094285963 4.4840561806 7.4505441244 8.9229007184 0.1079373258 2.4999060800 4.8636261636 2.3454065772 2.8691813213 2.5364449589 3.8159957915
4.8389025244 -1.4049499824 3.3464456901 2.4407855157 7.5979227156 4.8655436675 1.3558632953 2.8521442244 2.2194527923 5.8931843091 1.7035253096 0.6654562794 7.0360778196 5.9746612156 2.5607537551 1.5505370754 6.1323985726 2.1805793634 2.8197438280 1.1776922095 4.8695814732 6.8306103873 2.6524586182 3.0616769612 5.8384604759 7.9060695612 -0.0624339269 2.5680511188 6.3021712258 3.3464646483 1.8572954199 1.9302716067 0.7204457124 5.7337437965 1.7138069550 2.4606599420 6.0257108258 6.7205991003 3.9420477754 4.3142114359 7.8117629432 0.4487410822 -0.4944538567 2.4217973210 2.1634376743 4.3014143443 1.2320697003 5.1486438520 8.7716801458 6.4782136430 2.7707141768 2.0739916055 6.8439483694 0.9040242108 2.7156049183 -0.3529202317 4.6216216518 6.5918425899 4.0315816008 2.5105837751 6.8540001448 7.1989610074 0.9036806413 6.7950164997 2.5992028498 4.6390927583 6.2585381471 9.4565270686 -0.1558382577 1.4284781133 4.6614070944 1.8838705984 2.4134412473 1.9731834707 3.6413808435
4.0375748926 -0.2408291853 2.9469508467 2.8884226508 6.3171215683 5.2860247521 0.6154938675 2.0300236952 2.3582535754 5.7670535418 2.0428921837 -0.0485263668 7.9579051852 5.9816105001 2.3664308865 1.8915667273 5.2978723353 2.4820704762 2.4712578759 1.2731937366 5.1339092029 7.0449084861 3.0123056994 2.6405260498 6.2491344328 6.9957950174 -0.2937814445 1.8621940652 5.6160491926 4.0599989729 1.5681835637 1.8091857824 0.6319469909 5.9958443710 3.2899050258 1.4012389261 7.0492514652 7.2567851387 3.8856441021 4.9083292092 6.2205429384 -0.7075602976 -1.2109282330 2.0051616463 3.0244625046 3.8318853409 2.2086041216 4.9202172701 9.9142039295 6.0738832328 1.5142668128 3.3313902564 5.5936343516 1.7816130904 2.8424747088 -0.0592351438 5.9213255352 8.0329542451 4.2115616093 2.6776119436 6.6974224463 6.3722020147 1.0953003147 6.1478975864 3.0112105252 3.8680995786 5.7810886435 8.5098104321 0.0038067285 1.8200932269 3.7554180729 2.3883283513 1.9510716966 0.8329736621 3.6822988811
4.0356990554 0.0667300139 2.7783946731 3.3638437042 5.8752512153 5.2613144973 1.0111461427 2.3130233198 2.4363027570 5.7985637796 1.8668425494 0.4243555001 7.8632732085 5.6227136565 2.9447927779 2.0265219325 5.1575641927 2.5557320058 2.6763506403 1.0033964678 5.2187431863 6.9341915373 2.9077889648 3.1289003736 6.4040529404 6.7272666208 0.4271906912 2.9415442555 4.8560761864 3.8654301176 1.7227432949 1.3821241511 0.9221660501 5.8709140528 1.8972645168 2.4020410284 7.1369451381 5.9362836539 4.7654374602 5.0939868750 6.0542037110 0.7546519470 -0.7008840155 2.6993890897 3.0826600334 3.9891876907 1.7576398741 5.3908058268 9.6996200957 5.2175526317 3.2151240704 2.5062526116 6.4119842119 1.6699315353 2.8057087644 -0.5303620724 4.7751508162 6.8130064121 4.1639509219 2.2784647727 7.2284855284 6.7998768545 1.7654202200 6.6069295596 3.1372026268 4.5890215783 6.0969324075 8.2489277760 0.1046342963 1.9382823657 3.9102095312 1.6825120399 2.2346396056 1.6535286949 3.8198028471
5.1192028823 0.3375517936 2.7654418104 2.5914016073 6.0310685844 4.8701168029 1.9626699372 2.2763012160 3.0845283799 6.9487706645 1.6076865285 -0.4247094375 7.1541721177 4.5422469747 2.7303545635 1.0206102892 5.1327295386 2.0717057177 3.6586761758 2.0318305640 5.1552722533 8.2666687268 1.4719559490 2.4409050738 5.8320387242 5.8599773510 0.2383659803 1.6847049120 5.9516120974 3.2110526198 3.4259099024 1.7801172501 1.3252058340 8.2568182062 1.6118295008 0.9028692467 6.0678066551 5.3969548687 4.0363300706 4.3297599084 5.9459992210 0.2772809168 0.3602439763 1.0845858190 2.9907509529 5.1603445166 2.2205066354 4.8202471610 8.8258096392 5.2339850709 2.2710306521 1.4182674192 5.9594268703 0.8352652134 3.2434217493 0.7850523109 4.3035854734 7.4729481224 2.7854027177 2.9930194592 6.1947041006 4.7022494168 1.1831341017 7.3587448691 0.4487488070 3.2960667184 6.2752719251 7.2339883191 0.6180138076 1.4484217920 3.6964676114 1.8456718123 2.7466224897 3.1447834214 4.4765702778
3.6136544495 0.1648179074 2.2983724276 3.5058558887 5.8806294700 5.4520128813 0.9232473327 1.9622264366 2.4725681942 5.2859690978 1.8483716473 -0.0282923533 8.0190685513 5.9487275034 2.4617181704 1.8972265217 5.2867796203 2.5504797411 2.3469293386 0.7276006200 5.2772360912 7.0253242015 2.5528328817 2.8667158996 6.6955648115 6.9585662216 -0.5128390547 2.0584643128 5.3436576847 4.0622029397 1.3300143039 1.0246292050 0.7788664333 6.0183105988 2.1344583792 1.8439568374 8.0089060010 6.3548599337 4.3698361389 5.5228427806 5.9654834678 -0.8829793747 -0.7282330934 1.8823980772 3.0825215735 3.2995320716 1.9534001693 5.7709448058 9.9336719331 6.2743664071 2.0984392042 3.1490555214 5.7386613449 1.7044967769 3.1498431194 -0.5320826314 5.2204562427 7.4481691675 4.0773114650 2.5769756958 6.9032604466 6.7595084230 1.0101804919 6.5556834652 2.2773733865 4.3065217106 6.1126062865 8.2909534016 -0.9387408504 1.5190439083 3.7850515511 2.2827824292 2.0748820952 1.2349290207 3.8991609693