-28925.065075396
-28924.693590944
-28924.4374610675
-28924.361482977
-28925.736265468
-28924.9026520895
-28922.6735608847
-28924.1488787751
-28925.3082908924
-28925.1800201681
-28924.6975263884
-28925.1292920521
-28923.1861409156
-28926.2061776627
-28924.4186962428
-28924.6162405842
-28923.8571803727
-28924.9298820992
-28924.3257826121
-28923.8705008825
-28924.8541400674
-28924.9888707708
-28925.3028793673
-28924.6194493489
-28924.7641067601
-28925.0343245071
-28923.8456911881
-28925.3670474511
-28925.1071585959
-28924.2125476663
-28924.8915597827
-28924.7788798129
-28924.9198737573
-28925.0497351222
-28925.6127231274
-28924.9965098187
-28923.2146422405
-28924.8282661363
-28924.2366651035
-28924.9602997848
-28925.1352876692
-28925.4023176042
-28924.900635727
-28924.2043518738
-28925.7020241767
-28924.9111150976
-28924.9072528519
-28924.3736057784
-28923.2755742121
-28925.7669046542
-28924.8317247014
-28924.9054671057
-28925.2391940132
-28925.1411208346
-28924.5858820833
-28924.6382793448
-28925.5864406176
-28925.8088569674
-28925.3840604077
-28925.5258787206
-28925.3723757094
-28923.866632106
-28924.6356837882
-28924.9596737873
-28926.1939216617
-28924.4439239039
-28925.6130249015
-28926.071312399
-28924.1890751386
-28923.1558479941
-28924.2099367354
-28924.9055935025
-28924.6300072244
-28924.8080600614
-28924.8454124286
-28924.0024953467
-28924.4753241921
-28924.9704735718
-28924.0825882044
-28924.4889437548
-28925.1519755861
-28925.2042294437
-28923.7342211718
-28924.3854560578
-28924.6106863354
-28924.7232321532
-28924.3934700784
-28924.4700310364
-28926.0845504584
-28924.879424056
-28926.0171665349
-28924.6976145532
-28925.0017299119
-28925.0562382315
-28924.6259189882
-28924.0451146106
-28925.1111299593
-28924.9581752571
-28924.6640837508
-28925.5660949485
-28923.1250886697
-28926.0428811434
-28924.8705648503
-28924.5809086612
-28925.1473380884
-28924.4160054465
-28925.1440452405
-28925.9222312354
-28923.6121867493
-28925.0425268303
-28924.9790138603
-28924.5735245838
-28924.8115967232
-28925.7382718984
-28924.7649889527
-28927.2884572472
-28924.9215645358
-28924.7874945244
-28925.9053582812
-28924.1722264026
-28924.9039277585
-28924.2668774793
-28925.0154188636
-28927.7877156798
-28924.9836105409
-28923.6978090935
-28926.0005490955
-28924.5517383447
-28924.5373367272
-28926.3421105645
-28924.3314168623
-28924.5100401857
-28922.8510535757
-28926.061456849
-28925.0101231229
-28923.9378257573
-28923.7927413997
-28924.9633894998
-28924.695883638
-28924.4657449735
-28924.9367290241
-28924.882602344
-28925.6814601363
-28925.4139618936
-28925.1144210384
-28925.0655077846
-28924.7502267846
-28924.9160528728
-28924.6323442729
-28924.5978164459
-28925.4472510591
-28925.6838397706
-28923.8216264049
-28924.9346547014
-28923.8481698718
-28924.1624889499
-28925.4540887321
-28925.1066221237
-28924.5774415245
-28924.7639421313
-28925.412153426
-28924.5161717237
-28924.5445629786
-28924.6394449438
-28923.751886521
-28924.6562744958
-28924.1804431479
-28924.921584128
-28925.1946830148
-28924.4382246185
-28924.3714355355
-28924.3629785139
-28925.0944281646
-28924.7759597607
-28924.300586108
-28924.6165743316
-28923.7241042566
-28925.0753682327
-28924.7138334821
-28925.2771742827
-28924.2674676939
-28925.1400272096
-28925.0004364194
-28924.4619642258
-28924.2996255467
-28925.3679032486
-28924.6135666589
-28925.9659479338
-28925.366370024
-28925.3017398911
-28925.0122437049
-28922.943973193
-28924.5330894405
-28924.413735338
-28925.311092575
-28925.2954861741
-28924.2760407721
-28923.0943966935
-28924.6464883348
-28927.0999484412
-28924.328740624
-28924.5742833729
-28923.8485806274
-28925.4292684253
-28924.5749869229
-28924.6687536301
-28924.443541312
-28922.8397215368
-28924.2018036651
-28925.622132411
-28925.7065978638
-28924.3526912555
-28925.0850825557
-28924.6742767218
-28924.9131223443
-28924.9564452943
-28924.9402237803
-28924.2909056632
-28924.3686826973
-28925.1690636461
-28924.8435221908
-28924.4612240765
-28925.3147194425
-28925.0770568342
-28924.7616117496
-28925.4585833702
-28924.9513154068
-28924.9180188943
-28924.5100486212
-28924.6618162273
-28925.367951957
-28924.8007094541
-28924.6941631991
-28925.0883215251
-28925.9602798055
-28924.1025051585
-28925.6514791932
-28924.6053839278
-28923.0507609488
-28924.6282625674
-28924.1950761981
-28925.3873796506
-28925.1821553083
-28924.4230623071
-28922.6297836409
-28924.1287728381
-28925.1362416999
-28924.6421753327
-28925.0997482596
-28924.8793892254
-28926.1146930371
-28924.484157547
-28924.5991613678
-28923.7490959951
-28925.5941964023
-28924.7386675307
-28924.3826943759
-28925.1022438143
-28925.0513091639
-28925.8327822923
-28924.6839002949
-28924.8081650973
-28924.7953954817
-28924.7543727089
-28924.817567442
-28922.9063548346
-28926.7054197685
-28924.695244715
-28925.3710141885
-28924.564442381
-28923.9726912774
-28924.6661022902
-28925.3308717035
-28924.4287946543
-28923.6982595777
-28924.2390723573
-28925.299559172
-28924.919107077
-28925.6958146782
-28923.5233552322
-28923.5880068621
-28924.9178416122
-28924.0727248992
-28924.3732280845
-28926.0859696674
-28923.5339909322
-28924.9010320606
-28924.6393139211
-28924.2809069814
-28924.7318910832
-28923.2830890401
-28924.1800756583
-28924.9380957151
-28924.4717811357
-28924.5787195065
-28922.9914264207
-28924.314428804
-28924.7461788212
-28926.2073546905
-28924.3640656081
-28925.1286829255
-28925.4018426298
-28924.2688901683
-28925.4414191183
-28924.2300007669
-28925.1357770657
-28923.0624132656
-28924.310108863
-28923.3708851646
-28923.6561750172
-28925.7048907585
-28925.33916328
-28923.2543825415
-28924.3141673028
-28924.551480381
-28925.117244082
-28925.7333686816
-28923.4062841636
-28923.1159607517
-28926.1769164603
-28924.2513599235
-28923.620344718
-28924.9109394483
-28923.1275655846
-28924.7086970639
-28924.9304845589
-28923.7005556731
-28925.4000400126
-28926.0323604114
-28925.3289131651
-28922.6347406001
-28924.658201469
-28924.9345020456
-28924.6780498504
-28925.454782486
-28926.0281769354
-28924.9830205984
-28925.6772713541
-28924.9216948783
-28924.2200706577
-28925.2146469085
-28924.1875187843
-28924.6702873989
-28923.0961775416
-28924.4096973067
-28923.6349622578
-28924.9316674372
-28925.1753943713
-28924.7925584243
-28924.7760067004
-28922.6440158677
-28924.609378557
-28924.9477866364
-28925.899446339
-28924.918556591
-28925.487867158
-28925.2269981493
-28924.7212371516
-28924.4654227909
-28926.0302596937
-28924.6278933091
-28923.6645958478
-28924.232344074
-28924.7335343779
-28924.3651667162
-28924.6708576132
-28925.3877076837
-28925.0046435693
-28925.3045064711
-28924.6821073377
-28925.6497592985
-28925.174989194
-28924.6116979181
-28924.9210113287
-28923.4727769147
-28924.6824642148
-28925.512876856
-28924.4742192744
-28924.7387690291
-28925.354075655
-28924.9248123489
-28924.6996343171
-28925.5269664952
-28924.2425359565
-28925.7109146755
-28926.0100294007
-28924.4807480984
-28924.7312369219
-28923.9782040289
-28924.2066022541
-28925.4570572205
-28924.8809325182
-28924.9400454098
-28922.7581098764
-28923.9731010807
-28925.0909931373
-28924.7015933997
-28926.0592798034
-28925.3689793223
-28924.9261544136
-28924.546986015
-28924.9623447193
-28924.9645073429
-28924.3057146349
-28925.329362833
-28925.5816688318
-28924.878598463
-28924.4320977064
-28924.4937800316
-28924.9432775763
-28922.7131863537
-28924.7161000531
-28924.9457717705
-28925.6567103069
-28924.4641109308
-28925.214195744
-28924.7350939975
-28924.704037525
-28924.5093196286
-28924.7980332159
-28923.8051423013
-28923.9246421207
-28924.8458520283
-28927.7045830399
-28923.6309453153
-28923.1877569989
-28925.0528308237
-28923.8643214525
-28924.9058631672
-28923.8289680326
-28924.4630948582
-28924.7639546486
-28924.4746301661
-28924.458310283
-28924.3123408756
-28924.7345439197
-28925.3675480042
-28925.7755980066
-28924.9402118073
-28923.3452807621
-28924.5103717562
-28924.961951515
-28923.5436085188
-28923.6034633283
-28924.397284024
-28923.5907221486
-28923.6619740323
-28924.8854949126
-28924.9052241082
-28924.418730257
-28924.9693104218
-28924.6935381539
-28925.7301132494
-28924.4562550083
-28923.5798088926
-28925.2729001928
-28923.1250497574
-28924.2288885021
-28924.7410658048
-28924.7013781578
-28925.5694394979
-28925.4899476033
-28924.8255724828
-28924.6389686088
-28925.0885537741
-28924.9601849528
-28924.6821478827
-28924.343238978
-28924.6353130333
-28923.6561155604
-28924.4381767265
-28924.3462142692
-28923.9505039428
-28923.8265628196
-28924.2092805332
-28924.5759759201
-28924.3697650296
-28924.793058025
-28926.0221234941
-28924.4745063544
-28924.7652501819
-28923.1926841616
-28925.1785990543
-28925.2477368867
-28925.6384697093
-28924.9235822589
-28925.6338101704
-28925.4029665954
-28924.5260396549
-28924.7837011234
-28922.7677991649
-28923.8989465602
-28924.7783427965
-28924.6197747969
-28925.4598470662
-28924.6449757908
-28924.9339665258
-28924.5638120296
-28924.8239134056
-28924.5941474008
-28925.2107916016
-28924.890540853
-28924.4438605014
-28924.6542321464
-28925.0137082209
-28924.3887037348
-28924.333646834
-28924.5876802106
-28924.649815605
-28924.6374277649
-28924.6406343528
-28924.1994448475
-28925.9168952218
-28924.9615721885
-28924.8730521055
-28924.5771352605
-28923.6405597726
-28925.9375504203
-28925.078348558
-28924.9224693139
-28923.6246367674
-28924.3210547726
-28924.1050348635
-28924.9700926126
-28923.5343593742
-28924.8636415975
-28925.2276468683
-28924.2636542926
-28924.1064845492
-28924.9204651965
-28925.0802451905
-28923.7707399187
-28924.2284509433
-28924.8313112246
-28925.7388414323
-28924.6275002409
-28924.5631442626
-28923.2757016974
-28923.7815182063
-28923.5829167032
-28924.2498140456
-28924.7983438336
-28924.8062237021
-28925.5857923068
-28925.4712045477
-28924.6743140014
-28924.7505267899
-28923.8317199184
-28924.9083221226
-28924.5540647808
-28926.0019872164
-28924.6482416994
-28924.5091711906
-28925.8641972747
-28923.6678837976
-28924.384697677
-28924.6645444393
-28923.2155800804
-28925.4879370912
-28924.8349202686
-28924.1658045193
-28924.0144044027
-28925.1516101374
-28924.3565347254
-28922.8833912956
-28925.4591801155
-28924.8556151957
-28925.3487988261
-28925.0915554603
-28926.0552186425
-28924.474249479
-28924.2188725411
-28924.9905184193
-28925.4062046124
-28924.8749011181
-28924.7386385506
-28924.2905738205
-28925.3528325035
-28925.1781608152
-28924.2680331462
-28924.3910609198
-28924.4632873786
-28924.8324195437
-28925.6436153794
-28924.6544611301
-28924.4595792853
-28923.2995252518
-28924.8999240136
-28924.9330976668
-28924.5823440609
-28925.1922690942
-28925.2915661042
-28924.8023376464
-28924.3723737836
-28924.814757868
-28925.3960781732
-28924.3705004168
-28924.2591086332
-28924.8580897977
-28924.2883462978
-28924.6294768748
-28925.680284197
-28923.7231314501
-28924.3651222256
-28923.5795880724
-28925.2565022132
-28924.9984384246
-28926.03444385
-28925.2963506793
-28924.6975121024
-28926.0180485914
-28923.8365402765
-28925.0115458693
-28924.4171111805
-28924.5975671897
-28924.9517484758
-28924.432168456
-28924.5378136065
-28924.945796941
-28924.1522416923
-28925.2702665404
-28924.8054590626
-28924.2000751989
-28924.8079452295
-28924.6792716409
-28924.9546727456
-28925.030112187
-28926.1724412784
-28924.9860701767
-28924.4113159751
-28923.7602851743
-28923.851130877
-28926.1489537845
-28923.0180878488
-28924.0206596164
-28926.1824426814
-28925.0405606728
-28922.8921551254
-28923.5546864035
-28924.9562111404
-28924.9378675478
-28924.9498673538
-28924.3086685652
-28925.5464028964
-28924.6417123312
-28924.4371358916
-28927.4579323802
-28924.5741221455
-28924.6237872494
-28924.4343748899
-28925.0652894134
-28924.9501487193
-28924.1648953874
-28924.1816584076
-28923.1447661637
-28924.595567154
-28924.4117284994
-28922.8047141094
-28922.8969737148
-28925.1857164603
-28923.3387073115
-28925.1077586066
-28926.0362512292
-28925.4715178867
-28923.9460253594
-28924.9603180164
-28926.0131649669
-28923.781338067
-28926.1169024642
-28924.2686905729
-28923.7227956618
-28925.3371739928
-28924.4022113228
-28925.3874791082
-28924.714158794
-28924.2866534785
-28924.6975970019
-28924.3736346224
-28924.6209125043
-28924.6156081919
-28924.6601526603
-28925.0567304851
-28924.2795808353
-28924.7997766483
-28924.1600400627
-28925.979319465
-28924.380641142
-28924.9431347166
-28924.9088658058
-28925.0307071636
-28925.3245956731
-28924.1165215991
-28927.7685381948
-28925.4966429609
-28924.1626239183
-28924.8907839866
-28922.9377039654
-28924.2211214248
-28925.2932387871
-28924.5612147043
-28924.6437715516
-28924.4482163614
-28925.3546866863
-28925.6989935104
-28924.9458769424
-28924.8331552031
-28925.0468278595
-28925.3064719484
-28925.3210683993
-28924.6011680703
-28925.4684223212
-28925.2899663477
-28924.9045258644
-28923.7824259776
-28924.5301696605
-28925.1087579441
-28923.0485830868
-28923.337782261
-28925.3042174864
-28926.1972256662
-28924.3573314744
-28924.5916704859
-28925.3536934713
-28924.2300611761
-28923.7689300905
-28924.4815906985
-28924.6601835452
-28924.4295447357
-28924.9315049853
-28923.769742758
-28924.7297415211
-28924.9039069418
-28924.7505454297
-28925.3625126763
-28924.9291739233
-28925.3097060197
-28922.7061371122
-28925.2253468273
-28924.4244885911
-28924.3603040444
-28924.677338273
-28925.2890513654
-28924.8413933093
-28923.5128481059
-28923.3923270438
-28924.6831273559
-28925.5426697686
-28925.0933697784
-28925.7960721134
-28924.9629693563
-28924.2822739445
-28924.8342878764
-28924.8909524249
-28922.9943773577
-28925.2425433246
-28924.5960900205
-28925.8383999436
-28924.9138728339
-28924.6378909025
-28924.7883062396
-28924.9251569809
-28924.0633367045
-28925.2867579912
-28923.8100376267
-28924.1821480762
-28925.3758526422
-28924.9734733532
-28925.1120714727
-28925.3516407816
-28924.8696232008
-28924.818733041
-28925.3972277175
-28925.2341218138
-28924.8127491247
-28924.9217604577
-28924.569272127
-28924.5572078301
-28925.4008071011
-28924.4504019787
-28925.0211978783
-28924.7013348917
-28925.3498440148
-28925.194843698
-28923.780670436
-28924.2391021538
-28925.0435529711
-28923.6907216201
-28924.3974403533
-28924.5192282408
-28923.2468165561
-28924.9083281091
-28924.1545849994
-28924.6073398811
-28925.2736310902
-28925.5144004206
-28924.2630725135
-28924.0776317895
-28924.5043515128
-28924.2676823916
-28924.6031324591
-28924.3499921597
-28925.725263503
-28925.5163125635
-28924.6775687533
-28925.8862821585
-28925.1146312462
-28924.2344009814
-28923.6556309259
-28924.88277949
-28925.3550173044
-28924.3466952301
-28925.8735628839
-28924.7777006081
-28925.1182668213
-28924.7302763605
-28924.9531768006
-28925.66521386
-28924.9465916491
-28923.5254616644
-28924.2550891057
-28923.1765268665
-28924.2402103368
-28924.254448414
-28925.0409638092
-28925.6175663431
-28924.5843938934
-28924.8715539835
-28922.9504338525
-28924.7078487494
-28923.1334462338
-28924.3246338841
-28923.6585081201
-28925.0403692408
-28924.348800982
-28925.1891378819
-28925.1657537911
-28924.848093837
-28924.9513524143
-28924.8441573042
-28924.9198771588
-28923.044160695
-28924.723174193
-28924.6232475119
-28925.0329065226
-28923.0810043456
-28923.2377897284
-28923.6706333705
-28925.9519676844
-28923.7991004248
-28924.3301810579
-28923.0799560276
-28924.336420625
-28924.5919353885
-28925.5386732347
-28924.9204495499
-28922.6605418769
-28924.737639213
-28926.9023929432
-28925.2051403443
-28924.308445568
-28924.9067333868
-28925.0216369338
-28924.7768318851
-28925.991608936
-28924.3751501597
-28925.3953777525
-28924.7776157087
-28924.937880065
-28924.0364593541
-28924.7028830826
-28924.9603748882
-28923.8149307753
-28926.5169671541
-28924.770496534
-28923.9502590404
-28924.2013685553
-28924.7530129567
-28925.2936582503
-28924.4661656613
-28924.7703770761
-28924.3817578966
-28926.0161929121
-28923.2368819571
-28925.3195040177
-28924.7845441316
-28925.2050293219
-28925.0999761548
-28923.0602691457
-28924.9903090278
-28924.4668258091
-28924.316953611
-28925.3527277398
-28924.6281031088
-28923.2981812822
-28927.5991787101
-28925.2269259031
-28925.1516928599
-28924.7203715579
-28924.3151882734
-28923.3883496939
-28924.6689771715
-28924.9178247412
-28924.7960307311
-28924.9313636222
-28924.5901014783
-28925.7635980646
-28924.1480621619
-28924.9649523849
-28924.889380152
-28924.9176047373
-28923.5814890587
-28925.3277886553
-28924.3606324856
-28924.8751118702
-28925.2386084245
-28924.5207666356
-28925.2946005801
-28924.3207256511
-28924.0664665562
-28925.3057168329
-28924.2953234291
-28924.2582241276
-28923.9054025937
-28926.073511758
-28924.7171195271
-28923.5216630932
-28923.819460516
-28924.940100921
-28924.6824074791
-28924.8438932179
-28925.0469697668
-28922.9156826201
-28925.1796977134
-28924.9640044768
-28924.5908473419
-28923.9026738376
-28924.8823499585
-28924.6441780895
-28925.2684485488
-28925.4555418193
-28924.9367375957
-28923.4277378797
-28923.9373847971
-28924.070972487
-28923.2451014235
-28924.9245543851
-28924.6802406378
-28924.2415186595
-28924.6184985836
-28923.0021660681
-28924.9171776548
-28924.7343145278
-28925.1921556228
-28925.1040407171
-28924.5548171752
-28924.0466315084
-28923.5082027169
-28926.0770567192
-28925.2968110957
-28924.3255038316
-28925.0349162183
-28924.4277513704
-28925.0751227861
-28924.3082335914
-28926.1447020079
-28924.6950298812
-28925.4747005285
-28924.4473734892
-28924.835146123
-28926.0589075518
-28924.7174732749
-28924.7358378203
-28925.05516243
-28924.6615492838
-28923.4869456029
-28926.0432788376
-28924.5190705509
-28924.1278577197
-28924.6728922073
-28924.3415335054
-28924.6136587694
-28924.9354809746
-28923.4545269292
-28924.585761809
-28924.970375883
-28924.5274904291
-28924.0030316828
-28924.114018017
-28924.5066044781
-28925.0067041503
-28925.2415714705
-28924.9650893941
-28924.5801302799
-28924.99392814
-28923.7086819406
-28924.5388932176
-28924.5816971106
-28924.9362030283
-28924.8772018394
-28925.0625958959