-0.598932258259598 0.177352547498604 -0.0806783472801067 -0.165778475491104 0.950714010473678 -1.64072729402617 -0.547961964208977 -1.63895554775365 -2.6120124331485 -0.717466480475199 -0.532181569604119 0.079723440059655 1.18803339444369 0.744395943954706 1.21121573411306 -0.886572733067624 1.61664661137665 0.598703173086356 0.523770981290868 -2.68965019540194 2.76653513903892 -1.01709985977918 0.67051147615581 0.287679555555874 0.0473013317361764 0.0683229174258239 -2.75379687212184 0.893283308849473 -0.955643841126597 0.918344095517391 0.260405564430862 1.32876291033531 -1.4490310836265 0.576704311590317 -0.454438906395934 0.838980866824417 0.320730555387491 -0.204913987808447 0.568090606232327 -1.25917706768954 -0.806708396627568 0.681272565763991 0.980155697553355 1.28083654374374 0.339533537306197 -0.703420808276476 0.783917121546868 0.144441415606655 0.2291563927632 0.210811066970612 -0.391527386996187 -1.30146397952253 -0.0761673491156411 0.0349754695529631 -1.00970691357108 -0.203286480348712 -0.575583825411876 0.832899182550706 -0.378367716488815 0.903516037031153 -0.348451146900743 -0.337595183634957 -0.774859129792288 0.327284551067764 -0.270296850289235 -0.804620147719516 1.07494502301872 0.782166458309374 -0.102473320400858 0.477356936796958 -1.09749847117995 0.51006418031362 0.824004198652282 1.03126663087419 1.30223351030088
0.133845647846279 0.226314039687784 0.194832183304314 -0.0253685475572234 1.63449545740546 -0.678743115781545 -2.73203712309619 -1.32344818573812 -3.07125929997051 0.862197659258334 0.04580983556336 -0.636133530668633 0.386569274223114 -1.78242020177428 -0.545256907971397 -2.9805415713665 0.827476728786752 -1.91512710861911 0.227449181146668 -1.47768807042701 2.54415565648484 0.698430813840686 0.495199869291548 0.961623709767756 0.196783135374531 -2.51393158311765 -1.72065230846946 2.24029975664196 0.974748156180028 2.09839961808618 -0.257725447881054 1.10544780382452 0.799985993777291 -0.970542347803035 -0.349934158437514 -1.30702655833633 -1.10498937636785 1.11376428981071 1.6187166054617 0.86883830107035 -0.622580995801312 -0.576433574567394 0.166193965547176 -0.812153990308012 0.253199023105595 1.36705201592952 0.315146122208113 0.0391110868499382 1.12816837360483 -0.0131972085941209 -0.521599171573271 -0.476217681575143 -0.179363149131326 0.495673466249026 0.86362590632608 -1.15414550096572 -0.474331778381278 0.852713378819987 -0.201525789814071 0.23947088198314 -1.12961256150394 1.31872121501976 0.812433726187347 -1.41715019223868 1.45038271185964 -0.35941998153696 -0.87940398693929 0.581689420932626 0.144595938826765 0.831479677229189 0.530517295388184 0.305417072875347 1.14994149236001 -0.189324626069716 1.29836811580646
-0.00206305211009811 0.227997082947094 0.20679654856993 2.45304377796997 0.306876173165078 -0.672634434938597 0.314896725330396 0.00642004127481927 -0.115887272879427 -1.71220726739166 0.328275196603682 0.503032988133304 -0.397775164448253 -2.00650612461434 -0.46285463691285 -1.08187979888033 0.98917717966192 0.862109470465492 -0.0220811367546667 -2.14781336708763 -2.06291121371771 -0.815949193722413 -1.15682895994791 0.221887630773595 -1.05964876688885 -0.131210525578533 0.5960881054129 -0.393293991065041 0.309942726320255 0.849955100774482 0.0914880307129151 -1.03941008170709 1.01641440403073 -0.249574540852847 -0.692525764262841 0.83590145816008 0.326768788040239 0.977601822103505 -0.389100781087026 1.1279943100108 -0.84504583893622 -1.24754540300101 -0.26802836714275 1.06981207532106 0.181754016725021 -0.610542068582564 0.124719521893147 0.966380248157189 -0.843466411080745 0.237376205320507 0.038596866483513 -0.67321653239339 0.798958067264807 1.00416978866541 1.15275813441711 0.748579640855942 -0.0847370886323012 1.31371168021004 -0.530517552498367 -0.793685765847849 0.759129385893522 0.684158884680736 0.00112562838210488 0.389275101791244 1.83750657274795 -1.17135825640126 0.860993612270349 -0.216419154286846 1.16284276713325 -0.53725718173092 -0.371940733239049 -1.26105140092516 -0.123076330712235 0.490816397777956 -0.185288767523828
0.246680508630606 0.21670274681893 -0.347171766629077 -0.187389357720675 1.90122721789427 -1.51975978103664 -1.3894622537187 0.282715529248588 0.797400750885088 -1.79540735134871 0.0365831795285917 1.62694310288377 0.106706896677637 -0.535859787885159 -0.0421578425210078 -2.50852532729524 1.01449533362323 -1.34150863344771 -0.959849906613772 -1.49422256919923 1.20545878000075 0.888062172358975 1.22988733272815 2.69249203425699 3.15744983246851 2.14502937802381 -1.31238653432576 1.5022071259389 -0.098067223191143 2.28827445994797 0.982593616310578 -0.455148273391418 -2.65724145680798 -1.08988338177356 -1.90635759449009 -3.28839604877871 0.169780138382625 -1.56017493073583 0.773586691495568 0.229972974705083 -0.993690491818034 1.04039635636989 1.23028276818993 0.0853454113257822 -0.424021229060781 1.29122225248443 0.251511866083354 -0.271474929148715 0.909560440328298 -0.73911258679987 -0.263954970510112 -2.33175821968381 -1.01679029911859 0.416119461800108 -0.0662670644008558 -0.788340702249042 -0.788379525886707 0.01317072624525 2.48250243432174 0.749523492338515 -0.674261428177966 0.00694326049765696 -0.529000088197046 0.625186293287806 -0.730655975763823 -0.0306904712395415 -0.260324317612967 0.426899320451664 -0.13281489312178 0.125596781838268 -0.309320005456515 0.355662830429674 -0.215344176610834 0.547897429552991 1.00310046741343
0.182975290095281 -0.463501011913447 0.523737042746684 0.505649341357676 -0.545474423186395 0.293243677030779 0.773477933888069 -1.84160927994147 -0.265484004769678 -0.793148662675118 -0.0596426205303825 -1.90541785677045 -1.43211580467294 -0.497343139778809 1.22765715899896 -2.09238323979901 1.81943198397828 -0.755557354118149 -0.711821112182399 0.889423056558719 1.01268424949268 -1.03348523464514 -0.147679718364218 3.01582814424115 1.54426469548845 0.673583685735017 -1.15073364883449 1.05314490769431 -0.250856492226345 0.952881192207977 0.558068451290699 0.139640911375892 -2.08603904602823 -1.07930098374271 0.126854050634178 -1.94357249373884 -0.34223165156883 0.315318386030865 1.05879747507223 0.117359485788502 -0.25222380418067 -0.493554364118987 1.91501577990978 -0.245491631143431 0.510955067098451 0.149652267689825 -1.26576911567693 0.533728087356143 0.576840837097603 0.205339762271848 -0.439755600942845 0.0415145528426098 -0.164115486826085 0.114084673384923 -0.166643651257615 0.954268815866776 1.34575532234383 -0.0685057227660881 1.60468944519617 -0.942312935237205 -0.567129271257296 -1.13676690946201 0.113467094724846 0.0137263413511725 -0.59920453794362 -0.26411720703572 -0.0904161383591016 1.30987791026816 -0.179792523137291 0.887742070180875 -0.582444553540722 -0.222150654491022 0.0577490040310215 0.0136944596884541 -0.0543322668063089
0.0397124675684726 -0.214371528787741 -0.0105006369925869 -0.547772731114133 0.190129123832989 -0.492510239664961 0.377850410800191 0.0776914982817256 -1.77039233029341 1.73388165583648 2.46445072835838 -0.725779366918829 -0.672036396652444 0.517917867970032 0.118075023428383 1.85932648555647 -0.963837171335033 -0.524934147759722 2.14389835032785 -2.63002968634731 3.78881576900984 -0.0817322419210952 -1.37743335379709 -2.49891120621437 -0.948426501173635 0.973460291272316 1.22086276529738 -0.550400911406932 1.1795024785647 0.0070193651118879 -0.303574364192262 0.997165593054336 0.439350138183918 -0.596783331348307 -0.252727740139767 1.05080443369652 0.26500398005762 -0.564275091113452 -1.14070917990121 2.49710372162638 0.340997779799593 0.361864585158946 2.47964234064368 -1.0271711227658 0.454158913406416 -2.40530921557508 1.17836245201234 -0.411561669582298 -1.19722148395098 0.164377224992595 0.102824790021309 1.02249300298225 -0.861391618833963 0.654621552612903 -1.17033958585537 -1.30471925155218 -0.781287912813336 -1.49711094499744 0.287874959295116 0.531328735126403 -0.601371205457553 0.391254335981615 -0.29098933494437 -0.460378665848513 -0.136277138848921 0.954852713092851 -0.542582190735436 -2.19548519459782 0.728425544924454 -0.166031471911385 0.583658113605486 -0.313123179286596 -0.677840659038469 2.18087619398768 -1.45230435336898
0.463372713932024 0.057783456795572 -0.161281618386715 -2.05112708269052 0.340257045361757 0.808816700129912 -1.33862231453096 1.80237503731378 -2.06900138262747 -0.601110238621592 1.23952382239495 -0.698050547879714 0.0362335096794225 -1.82413864299217 -1.08757761765051 1.41245793139505 0.49216365513799 -1.71201572030516 3.38467532775579 2.79244747463364 -2.45660244001581 -0.136918371645853 1.84848852000351 0.895156613644361 1.78131874174939 1.31293906410949 2.64840689380262 1.28832539205018 -1.65681853484253 -0.0367775548271004 -0.588409252681072 -0.748458541959649 2.4456703721358 0.579636396119674 -0.669079629545499 -0.251719096891024 -0.101797891949558 0.648061386288233 -0.127429463224208 2.7757003457399 0.320751381312331 -0.17866638053482 -0.951154183107338 -0.0464400126224141 -0.756084944214102 -1.19605677482103 -1.09935609225366 1.23839510869065 -0.523516442209487 1.38718837125836 0.432181392055584 0.512587459651668 -0.683414807810519 -0.117946982557143 -0.802627029579251 -1.81854983893968 -1.05390852493845 -1.05789707521062 -0.0118440376998728 0.818044641715596 0.0476700277389033 -1.79304836541774 0.230244225948372 -0.205852439977174 -1.58136106694274 0.362332782802576 -1.48014167290541 0.23738366151582 -0.720398565004556 -1.00440247338122 1.17124152837808 2.22596972058061 -0.242344345390725 -1.71809483347704 -0.677757612449291
0.155563230801883 -0.165890575530985 0.560810788504845 0.856150684859356 -1.37115703711469 -1.47212497739284 2.54365506295813 0.347376683445098 -0.391316042425586 2.21493557995785 -0.47217668082559 -0.607826727937656 -0.117472614269116 -0.1665320654381 0.122773712026594 -1.48031008007541 -0.217122093527749 1.26281723366347 -0.314651956435978 2.98332813153216 1.10527399734067 1.64213702916072 1.87253500699865 2.2673482621363 -0.340234933886001 -1.41721318423357 -0.436646881717621 1.33657186081984 -0.653967721416993 0.350203352799337 0.856043984133323 -0.941534148492254 -1.44925168416369 -0.498362324545063 -0.350080711241945 -0.323438439837086 -2.05718588415793 0.75801352769838 -0.503824630387416 -1.28344981164592 -0.326063277697504 0.305111368867507 -3.17504053987337 -0.0690695653978734 0.0321225749600358 0.760481014126671 -0.216578819710621 0.951066508534862 -0.384276108499041 -2.02130950052299 -0.681239398550357 0.190522502413304 -0.151421185750328 -0.306243425004192 -0.00474188310899046 0.0403927811132532 0.650243480413159 -0.629034204289766 -1.45736556732552 0.191559170672017 1.04024646113308 0.272135188099205 1.41640688669901 -0.499234699396704 1.89202987242038 -1.69149344259132 0.15044339572357 -0.0117013415481898 0.912706440530088 0.464306538117452 2.34499887989889 -0.501918158378894 -1.42706281824226 -0.501626081210764 -1.76311971165105
-0.28956237342754 -0.222959266017226 -0.108324633950411 -0.538108473547537 0.710484396339877 -0.16054731170346 -0.945537096934691 -1.61273159461688 1.57229767587431 -1.84484012650372 2.56550531476827 -1.39782039155457 0.453989220685496 -1.1171247199053 1.02657308447965 2.22184335925023 3.14887726473984 0.598553792069909 2.05555580559636 -0.49358496023079 -1.22406301574783 -0.529329703451925 -0.744372546928034 -0.220879758855402 -0.727610762753853 -1.34869152063612 0.37149747528319 -0.962663206238485 -0.520189436438716 -0.398911077237687 1.05034729179077 -0.832671897148746 -1.14260228218021 0.997169963927451 1.11430370697509 2.33212948678837 1.19297968014834 0.667373189259516 -0.103920336511978 -0.0887940302132132 1.40755201198917 0.492753723008463 0.098646492433921 -0.998133098673765 0.171070317281986 -0.665865752255341 -0.663660518213926 0.171296574243213 0.104907639615515 1.28563910485597 0.168171399966264 -0.681230142583761 -0.986301916483053 0.370936717973604 -1.4715603634305 0.496607290434454 -0.754666467333318 -0.0318158425114632 2.22315744939663 -0.691753919492837 -1.07124032238881 0.856294666561956 -1.58564477970524 0.068703954717345 -1.60522860525036 0.00611048061423127 0.583364236666074 -2.5961055403335 -0.721832211386149 0.985505132025277 -1.02522788400108 -0.10131221081347 0.0351459336044331 0.291189880887276 1.33088766888938
-0.175306207550414 -0.394776488381445 0.191332399490424 1.28902910262163 -0.603233197404379 0.710570014030887 1.43096292261141 -0.637072754167909 -0.389648939997635 0.684800631698035 0.338371913498442 -1.08799182215566 0.663049881528796 -1.82274639135008 -2.23648012776016 -0.577050896117288 -0.180822506531241 -0.345970804963291 -1.18792437972601 0.204180452455742 1.1327819587324 -0.697954902891559 1.25454111397604 -0.397210807596102 -1.06035453434177 -2.57992868182613 -1.11778575018634 0.773888024630294 -0.369272186647485 1.06995117193018 0.763749912996037 -0.0039546117279934 0.693205563587255 0.866447690586839 0.535969059713024 1.23628037743373 -0.494264759555204 0.273631055145136 2.08360986901724 0.5035736908486 -0.193503180767288 0.478469709669903 -2.55066980008672 0.588164483786653 0.484756053649451 -1.08566497499759 0.299499939118891 0.141018507737545 -1.90788817141076 1.03573983384173 0.664544205913628 0.0389223679754602 0.233439848415522 -0.698158791266847 -0.670438971084144 0.829430509068984 -0.862048021131704 1.12342597627548 -0.485817404485753 -1.00240755546968 0.426440892994996 0.29386639789452 0.129631869053607 0.960755191568864 -1.38176386061294 0.224448705308576 0.243076852302698 2.30074044718104 0.476802350131769 0.236220237936783 -0.344146351103214 -0.111236406775294 0.403174221185535 0.809462303799959 -1.46846424260426
0.347065323013227 0.275197627491451 -0.368753852518128 0.562528284528706 1.12931791323398 -1.30779068980084 -1.37996048978789 -0.697902452414184 -0.714602787254577 -1.37525974430821 -0.49154659069828 1.72140564130627 -0.0748625149358371 1.61409530702864 -0.39847193304476 -0.918066416519522 0.938371179018372 1.83315909666001 -1.38374669434588 -2.0985770241126 -0.996589409133757 0.221095474299117 -0.435088022676803 -0.482620239357504 3.32278505000376 -1.93963330862184 -2.66404613491689 -0.424900545887369 -1.51710203307277 0.525585150743616 -0.412013412174202 1.36096467523177 -0.202379138512154 1.17159428354945 0.466102452747192 1.23327630205307 0.156845439285565 -0.963533267098476 0.0273950900213053 -1.68981785552732 -0.09548198029894 0.90155582899434 -0.609885152064456 0.575343427390573 0.237226310083694 0.407322436881488 0.793356407703154 -1.27149804477928 0.505114552176593 -0.384127498813144 0.0583403574524105 -1.43590020945964 -0.0842663198868388 -1.20149079854323 0.665424036960582 0.0510656819285925 -1.05999355164454 -0.121649369195405 -1.55997952699659 0.170855630279004 -0.539455216687205 -0.00327429818321279 0.434937870329806 0.752113106103833 0.500423576883879 -1.42994322362479 0.149831216377341 3.20649899923017 1.07204019216878 0.367768349185874 0.51973358008388 0.0613819709198159 1.73603083985796 -1.15995850509798 3.82102087633868
-0.77763643399135 -0.0223608726340021 -0.104822021924505 0.901276350225188 0.823260378892248 -0.983688134360514 -0.0301248288364737 -1.04273734458804 -2.18445773883983 -0.0592410144242043 -0.613064062369697 0.730587584455089 -0.0476255476772075 2.56773111762434 -0.0928622846421866 -0.935655067042914 -0.120628641768051 1.86719637115443 -2.0284327381489 -0.550843655142425 0.508241269114642 -0.960119615195962 -0.996434885913646 1.34631145167012 -0.289878104732525 -1.78664915006776 -2.15460493257719 0.304159032748888 -0.980098876202866 0.400921421760226 0.211564399807425 0.733655423161182 0.863926468130256 -0.546700581650136 0.432685070904497 -0.20456843172221 0.861488549373034 -0.0893918113891825 0.889990755843252 -3.95687712581768 -0.0646624397474258 0.130789379098431 0.329922501547525 1.08345922673581 0.730763447820406 1.07772129877705 0.68153019016757 -0.0705042402201998 1.04506573440721 0.650894740507236 -0.563152548053546 -1.01384433063934 0.441019040383151 -0.882050164944914 -0.598383842238805 -1.66622902465829 -1.05213780710666 1.39476772234929 -2.60151719546976 0.357516337740454 0.902198604452371 0.136331646207762 -0.547173664387248 1.08572899543321 0.966791367340146 -1.22242573810113 1.53356274122241 1.57884164425744 0.0683159754508772 0.380884568072283 -0.37312446852256 0.515576365531515 1.21617873197961 0.811542839402516 1.65231113622063
0.597455931587591 -0.438713533370284 0.341193954869384 -0.396048926678164 0.0311463275943775 0.65380497067102 -0.0309624938133805 0.793378004958543 -0.170192028896132 0.0374537546089496 1.18240756652482 -0.384195118791329 0.0401644672705603 0.0938480450846238 0.289899187767549 -0.514906593504246 1.08738272813163 0.355240141288473 -1.79000135263648 -3.31103845706332 2.48365505927308 -2.244311961051 -1.63849094965258 0.503212451041186 0.127948568684114 -1.30478404331835 -1.65963594823017 0.806541532118663 -0.131789794821311 0.383252809969855 -1.39504025914349 1.94817605156926 -1.99055963683113 0.553338138139953 0.860101439934602 0.159043988462216 1.66885900472237 -1.17317988204932 0.3640569636912 -1.86116688024791 -0.409565980340201 1.50884056866578 0.131711119105248 -1.03044079296571 0.00468506175850047 2.15199063623429 0.204539378271507 -0.80907740985569 0.525395660538588 1.17726382019947 -0.0514577749579917 0.542736456845364 -0.0976969845273168 -0.625505367025173 -0.707516573495053 1.59494548347278 -2.03504972582406 -1.2716538535503 -1.0693060824805 -0.316140624396779 -0.0424013258645102 -0.419187557616384 -1.06247723601437 1.06552424879563 1.6036550909291 0.822526329319176 1.11519767908212 1.35811049508793 1.19528647271212 1.49782596841695 -0.895690888605077 0.0249813396213052 -0.608133203276045 -0.0150694849482752 0.0146118288221567
-0.196318794383649 -0.286174689653531 -0.0173942752248838 -0.903350200962981 -0.87509276338718 0.0497996713864535 -1.51632067522599 -0.297976304173173 1.47437263461448 0.384352727333638 -0.81279008090128 0.628223535882096 0.628745726664201 0.0196151929874744 0.094434770522715 2.33210223310895 -0.00546590538491721 -0.177124490766094 1.38411667589952 -1.16536630358149 -0.441607565592525 1.51970887322036 1.71060058585676 -1.64527608738756 -0.411418459210248 2.36843370176817 0.420751301750683 -0.734230064420662 0.545123210676127 0.0758729579558627 -0.738068719456027 0.434907274218004 0.854694927002006 0.110553522128681 -0.0261686744473811 1.40487652342266 -0.454557177080212 -0.550725898678513 -0.587074079499649 2.59510975259392 -0.734440894770896 0.141064273350157 -0.502745538948472 -0.450163678269475 -1.48028436905709 0.590458935061643 1.43097423545947 -0.793522757991692 -0.877786506776699 -0.72986741883191 0.35762406690722 0.476889767594061 -0.322198911643818 0.365692698676799 -0.519287236805823 -0.401904611100831 -1.22243293718626 -0.876262100500431 0.582769540812303 0.0119193709835541 -1.28835958770454 0.107240657417986 -0.48226696996577 -0.317879717676029 0.139360918386373 0.31759483959303 -0.829323294122585 -1.07959923155524 0.624058865134418 -0.760180452322496 0.795588895423989 -0.730661117967488 0.904049797771502 -0.396679103737218 0.75666421345688
0.252987164314628 0.223117645890085 -0.348711856626521 -0.0369094523510885 1.81380409917794 -1.58423504457069 -1.44610594107209 0.170873885102012 0.594819780879112 -1.7449867588698 -0.0510268582909274 1.69638059295382 0.0621270762307661 -0.354208101013057 -0.0613871131234801 -2.48637322813 1.13546078973129 -1.01809153375583 -1.36483701170114 -1.51277435446894 0.893223402176785 0.924645866107933 1.12546383158762 2.56424316087888 3.64543133336637 1.776769948388 -1.53378077065777 1.35037533522598 -0.233881049489915 2.21814071550178 0.896822173411212 -0.277674626996521 -2.55516357186891 -1.00028022581377 -1.78683966871352 -3.021717767208 0.167628897479685 -1.55326149501943 0.724076526175412 -0.373507562695547 -0.998491510269164 1.02154349507564 1.0698390718903 0.139902906652585 -0.362294987605644 1.40712289509339 0.343734203479524 -0.358224419185022 0.987715508270356 -0.717614833050913 -0.282968011448503 -2.32977307195922 -0.980188607656807 0.318881161839642 0.0285276603783569 -0.633501750833268 -0.827698871985047 -0.0161040963255228 2.16715730883182 0.691561601075794 -0.709949350048611 0.0227485947902867 -0.435388070260612 0.6720937322233 -0.55335227920003 -0.241931426436485 -0.244373458956639 0.799044199176183 0.0218291687751184 0.169325567578705 -0.285181215905597 0.301968196877733 0.118557876352456 0.219919452321103 1.5849256425228
0.347040383325456 0.425955726079273 0.562763797456528 -1.5328446324807 -0.298929668732526 -0.473654550158696 -0.702534549474942 -0.318451530723494 0.812544283566129 -1.09727787064275 1.69416301762361 -0.556591610398326 1.52067894994163 -1.41640637247865 -1.74121366693116 0.963968297528472 2.63830837713657 -3.0130950629936 -0.273335378434442 0.739365326109968 -0.595703725688997 -0.990872821320207 -0.524255376876041 -1.48277833783425 0.863259781425185 -2.08296092291481 0.260224815972064 1.40094633716207 -0.284657739572576 2.89462897497655 0.248994500279519 -0.21109183129068 0.986797367806104 0.262680989552294 0.25517697174505 0.347830225808285 0.525705735419543 0.942885005394853 2.41788987394985 -1.53172903139574 -0.326134240108071 0.36064125490722 0.863480124852199 0.900818694099069 0.518053622146769 1.21409253995303 -1.02640570575038 -0.114426629928596 -2.4616094037237 0.622410017529476 0.505413057099303 0.259430345505937 -0.970704841438826 -0.554814721922144 -0.174700198848582 -0.52528536026999 0.859569736075718 1.67127198379183 0.808471658264041 -0.256551739894688 -0.035021235165575 0.736324998193479 -0.80677575949557 0.172792184178961 -1.93266793664842 2.5588286775306 -0.410687237849192 1.83716590175519 -0.75979427282731 -0.558676259763814 -2.4988081050309 -0.193752320534821 -0.545054048036843 0.815714195014957 -2.53603354579716
-0.292520683195585 0.267024351877305 -0.645599299173789 1.1347668493468 1.14519883792047 -0.00658844844482354 0.967732647720888 -2.46160966083388 -0.392404132720942 -0.988852192390339 -0.0777817439560332 1.42943440257221 0.254155472987146 0.997313688519867 0.486869756465642 0.00423306205641267 0.623092130845539 1.31923132162325 -1.70338658833618 -0.22267310238331 0.439517259803006 -3.16181067828598 0.601834518007702 -2.00326010855128 -1.90255647754148 -0.404884518124266 -1.03704801045391 -0.330839356460862 -0.425256129270752 -2.84785883287889 0.462275881890439 0.795460597442566 -0.350037002510799 1.98472143590092 0.184256213028046 -0.36913334714855 0.428725059862657 -1.16662125838575 0.237272332806489 -0.201163007345558 -0.112380804200773 0.161445654683605 1.75519583291462 0.603288990314136 -0.494625228032068 2.28011583961427 -0.152799039222164 -0.00822315498968941 -0.279835895196607 -0.12692861258731 0.117831540084881 -0.147026915609041 -0.04215321453771 1.53106311602122 0.402143209350853 0.317444173025667 1.11236689596495 0.493394698695212 -0.316539916511308 0.39937387556747 -0.261754878672362 1.14369551467923 -1.01450458958983 -0.479853733786136 -0.297393949608197 2.52406455254824 1.12077362762546 0.114174661949048 0.589699174470249 0.13548472526426 -2.04456228838256 0.148553378766774 -1.67411793640981 1.05880056039443 -1.3274413639936
-0.142756572576062 0.0721579729186234 0.396927986394568 0.322824460719574 -1.05624899893623 1.58141608852194 -1.09723236214032 1.6323200481453 -0.159926133500818 -0.542932117694789 0.584808938785545 0.29425694826282 -0.372558311899126 -0.802706476625864 1.12079419644011 2.05533751905081 -2.37665762808841 0.372031493133723 -0.987898570720804 2.42214196215983 0.096508621260508 1.15295610925818 -0.709386792967742 -5.68818330894893 0.212726537835546 0.645758450377197 -0.0412217043439307 -1.84279558632682 -0.884126843894722 -1.63383417001423 0.616929713974299 -2.07616498655214 -1.74947718821961 0.23758369323836 0.910305802749432 -0.0161745445157231 0.473338818853711 0.0159665423775041 -0.5552273837662 -2.42176298174977 0.0781344991274009 -0.503712016127169 -0.0931181092744831 0.146797830435798 0.138859296418925 -1.56196364628044 -1.70994521199975 1.33147130900527 -0.28600576826316 0.864697798679894 0.216256917761239 0.0715640483954023 1.63620086925071 -0.864229858146447 0.907746785095916 1.18311281975737 0.521340518728959 0.778280752110481 -0.705201296295224 0.693582487115845 1.01286962593478 -0.242940583905595 -0.0665653122133824 -0.0972478130372443 -0.063185084634686 2.19718469290885 0.55897527890689 -0.124564741562853 0.218542370179816 0.15403676764415 0.854226472248193 1.04151967076035 0.891101471834731 -0.295501361549569 1.05785850868314
-0.131610331913429 0.0942841039553524 0.205056426849947 -3.78814291166037 -0.51459960394549 -1.24618143347906 0.239691225410154 0.259921940176239 0.376493383253195 -0.240637647994559 1.9638479456768 -0.650712449387338 0.367328176552214 0.164283379775723 -0.306393577351188 -2.13446060683267 1.38306663791128 -0.141997583315219 -1.09346826905809 -1.05125643339861 1.5681625727977 1.08581769844642 -0.360633798711907 3.42487604756218 0.937829447862343 0.731116974322324 2.70279135397612 1.15980886697135 1.25222969342896 1.79825844617036 -0.476535212651411 0.120152473708741 -1.78178925338467 -0.997424245898648 -1.89785367518033 -0.772946744249552 -0.876759351594764 -0.792737800602344 -2.10278926024417 4.188301487507 -0.556557414743959 1.10689404860509 0.268181604811945 0.493391613373014 -0.838419852404647 2.22303403650869 1.2133777736437 -0.101388058317517 0.553755685077491 0.0732334648150019 -1.13454496325869 0.737915224676649 -1.17896563250215 0.245607073615693 -2.21714235666037 -1.19827435015124 -0.607950655045964 0.43040038981647 1.85422670507245 -0.99719387517449 0.041086721497744 -0.280087606065972 0.631907153476984 -0.390550111189795 -1.10336315445903 -1.53003853194111 0.161467251938995 -0.724945815704854 0.495981998468881 -0.210350839742662 -0.598950513082606 -1.06273768862997 0.16246483944986 0.655093349799098 0.719055421407453
-0.281911288595499 0.26112727271514 -0.641763986570806 1.12104307909746 0.934737955019395 0.130346635362939 0.945233706918501 -2.40939598193724 -0.427532582832916 -0.83969254781155 -0.1764014969309 1.46350535850063 0.187173385166776 1.14658363336725 0.442104302466492 0.267930151052763 0.0242706870749055 1.48110429343135 -1.88344316363163 -0.0890346853447002 0.582145020177279 -3.06270550128521 0.359608957521622 -2.76286566250411 -1.62178187306596 -0.657943159069827 -1.23751039255022 -0.449896540789117 -0.337867206208796 -2.91251613042266 0.729694126568425 0.740522579044608 -0.558484455567137 2.06957448122585 0.327198419156388 -0.309352658449782 0.465252189371308 -1.0190140450932 0.398317666934832 -0.649002666668974 -0.160460922681901 0.290291023686765 1.43433209445223 0.977183503835418 -0.219672626545219 1.99382776436994 -0.143399348034094 -0.0464873208961252 -0.563154862045195 0.0924863895543297 0.298412620154085 0.0609122306150864 0.238203328779902 1.11860053235694 0.389223165534235 0.435922345221328 1.0208135592655 0.533611873553331 -0.746220912035149 0.539531321301435 -0.215275271081733 1.11281761011612 -0.956694650445387 -0.378494471809139 -0.235975469042365 2.75963815837424 1.21588125549764 0.328062823592349 0.497018152507228 0.137076494408529 -1.92753241784893 0.23281301378885 -1.60540755393788 0.924519882118159 -1.18176170574459
-0.213873763473041 0.134857376417221 0.436457905732959 0.61661372555913 -0.512704701895213 1.53156936597196 -1.0984181543053 1.45644048488632 -1.07736263007147 -0.302671393228819 -0.138264857675338 -0.196503913715562 0.354725149591498 -1.58923146676106 2.30586336758155 -0.716578936122749 0.265049745670232 -0.196398241430262 -3.60480303932529 2.34275225111798 1.44388708019096 1.36465214947941 -1.92391102091838 -0.488236811309784 -1.68121263480537 2.92397064619496 1.63191998470022 -0.815654545452452 -0.586140512424404 -0.815428031381041 0.532193910892913 -1.73678494402532 -0.486935319562361 -0.153829793946664 0.3258948705275 -1.46444972420357 0.71690238073323 -1.11119010265639 -1.90617376070909 0.257728533203252 -0.118931971669031 -1.15274862134033 1.3603316699607 -0.555082116512685 -0.0858850856003455 0.810367845865234 -1.35187223071264 0.943820886461747 1.09283449245647 0.306606721693072 -0.215097607945133 -0.230012569673298 1.28331714279138 -0.367255928590732 1.1655928176529 -0.375685028837174 0.490086719077999 -0.665130931351719 1.36354374747958 0.143397805372995 -0.093986113253009 0.702842310364248 -1.69201383360214 0.219026765764989 0.572106410183925 -0.35520311742209 -0.10466312783128 -0.516100870305269 0.711899273678096 0.505652426679874 -1.21061178229269 0.949057449563239 0.684212877819211 0.0491298993591846 -0.0882674685579937
0.147883092519139 -0.430163334227548 0.249368081375727 -0.230687483904231 0.279840008959538 -0.839699489786497 2.53794850244172 1.6769055250162 -2.46900800635582 -0.169740800524594 0.26450621474292 -0.752143445105452 -1.38529115521644 0.770233974706476 0.721749679017338 1.74654716057172 -0.407090266386047 1.69883188144057 1.03934786104275 -0.858063070402092 -2.04897764155887 1.00243249515745 1.16157572815038 -1.69285766922344 1.45497032885871 1.28690717227958 -0.172047850198561 -1.13761203063423 0.164569029189272 -0.386827155736877 -2.0099328891362 0.897350791947897 3.33172528529443 -0.245724830079604 0.183578470585097 2.10441111127988 0.0697025706689429 -0.970391938345856 -0.939615849415305 1.24239831424327 -0.635685387619293 0.481074235825846 -3.12483412017708 -3.0672468384513 0.598804217388358 0.363938435896739 0.986527402113731 -0.210090130016884 -0.503885308390654 0.298142140241346 -0.10265921106332 0.545816636840251 0.0552663481019203 -0.72001238550937 -1.4022966798443 -1.19084926517024 -0.295566410425922 -0.952245615835075 -2.17888076185576 -0.599586346565691 -1.1049549236033 -0.756039435711673 -0.121082955461788 0.313652826264014 0.0733535352705622 -0.207759169095878 -0.126569686771545 1.2959001151578 0.807547347155391 0.313409085810328 1.11899108272524 -0.515824733968498 1.61572795669204 -0.0192367267977855 2.080247124931