-1.9673e-05 -7.672e-07 2.4734663485 3.1186181843 4.8088582001 4.2168525967 2.3668096562 2.1086846364 2.5211792511 7.2877423071 1.409872365 0.7300739798 8.039551429 4.1100458771 2.4257511354 0.9760847764 4.0633498443 1.3216059358 4.1395564357 1.5635490464 4.6790518649 9.4302795361 2.1553827516 3.625343804 6.266804027 4.6551809788 0.2678677676 1.8365590586 4.2686162718 2.6444234996 3.7356334697 1.5599381997 1.2131685692 8.569800822 1.9501140641 2.3024914614 6.6707270874 4.6587923979 3.7337659204 4.7481272553 4.8290778843 0.4318107019 0.5167277424 1.8259915529 3.3994761889 5.6582349876 1.3896526682 4.5151184987 9.8896310417 4.392739555 1.5474509432 1.5393113249 5.1151418931 0.3206819583 3.3368370329 0.5115206293 3.8016281995 9.1496042157 3.6155152136 4.0198112296 6.7811654684 3.3500687286 1.0301203043 8.8670514336 1.1035916157 4.6262448107 7.0695259085 5.7072116721 1.1453015468 1.256759546 2.6032125272 0.9271150284 3.6251969265 2.868660194 3.9168092426