0 0 0 -0.0060541734841077 -0.000164036296889655 -0.00527872917153842 0.0105086074082664 0.00519799657400966 0.00938195058542872 0.0060541734841077 0.000164036296889655 0.00527872917153842 -0.0105086074082664 -0.00519799657400966 -0.00938195058542872 0.0215653737271422 0.00156322991393277 -0.0221122470868355 0.00776498464320451 -0.0122137621433326 -0.0201882915858554 -0.0215653737271422 -0.00156322991393277 0.0221122470868355 -0.00776498464320451 0.0122137621433326 0.0201882915858554 0.0313059930181525 -0.0319569960020469 -0.0567403607822783 -0.020994332010227 0.0194413865036227 0.0245977312279519 -0.0313059930181525 0.0319569960020469 0.0567403607822783 0.020994332010227 -0.0194413865036227 -0.0245977312279519 0.0134846577789526 0.0159593432923741 -0.0197943987851736 0.0152468909746919 0.00247699950507044 -0.0213445160797626 -0.0134846577789526 -0.0159593432923741 0.0197943987851736 -0.0152468909746919 -0.00247699950507044 0.0213445160797626 -0.0327195848054556 -0.0316479495618253 -0.0462109274491717 -0.0123186630980833 0.0296851704231801 0.00736286431665997 0.00918706106655355 0.0292087452536871 0.00476065215236498 0.00777064106723519 -0.0053149817073714 0.015170786360461 0.0327195848054556 0.0316479495618253 0.0462109274491717 0.0123186630980833 -0.0296851704231801 -0.00736286431665997 -0.00918706106655355 -0.0292087452536871 -0.00476065215236498 -0.00777064106723519 0.0053149817073714 -0.015170786360461