-5.90040932051236 2.92522832550968 -1.21285081528988 2.92522832550968 10.5819735053957 1.17089057291576 -1.21285081528988 1.17089057291576 6.15416888153676