4.7022966894 0.1999665980 2.3877216368 2.5680315450 4.4943009291 -0.5606448726 1.8633172128 1.6779429999 1.8291022861 7.1710404609 1.3692706843 0.6342663468 7.5454650316 4.4968236258 2.8360384343 0.6338955472 4.4980142615 1.4330669580 3.5165673447 1.9476632343 3.9879131992 8.8328463104 1.7161149715 3.2076162253 5.8489770275 4.2861224910 0.6355460892 0.8006821703 4.4900217648 2.9673840518 3.4680662290 1.4972787413 0.8778982368 8.5726094847 1.6597450872 1.6927158224 5.9729455360 4.7117497427 3.8039739748 4.3788899067 4.4995677555 0.5546927179 0.5961809333 1.6694176826 3.3672424685 5.0073740783 1.7801808980 4.1215008116 8.7723158075 4.4806492789 1.2990446704 1.4436791807 5.6561687271 0.9644175257 2.9483027714 0.6636446271 3.3004604068 8.0979312552 2.9293044002 3.7133790247 6.4173658043 3.2429518558 1.5027735536 8.0515178038 0.5458518671 3.7320611262 6.4323671300 5.5804241705 1.3010376814 1.3489588771 3.3495432740 0.9399416737 2.9847834827 3.0233284964 3.1464316912
4.7142227253 0.1462877131 2.3563708559 2.8724921427 4.3561991151 -0.5121999789 1.6626623875 1.6496103665 1.6689196657 6.8371173316 1.5201637054 0.5896709431 7.8089461713 4.5891189368 2.9737688380 0.6064703811 4.5198297283 1.4157490713 3.7054544028 1.9117264520 3.9474271502 8.7608350822 1.6664218980 3.2104868061 5.7105901595 4.3093356357 0.7236493547 0.8714382921 4.6994189757 2.9611059597 3.7301227115 1.6981536212 0.8424485773 8.4304474037 1.5475381161 1.6679348709 5.7334957208 4.5064943599 3.8468753399 4.2383662322 4.5804876947 0.9306347863 0.5559527750 1.8528130252 3.3105613601 5.1991036998 1.7069667986 3.6583633040 8.9229151604 4.3363434208 1.3543385868 1.2732960919 5.7392022716 0.8359529584 2.8379666048 0.7890666333 3.4094573995 7.9397515511 2.8175896025 3.8555864191 6.1350998939 2.9900765425 1.3895994443 8.0698497139 0.4579730443 3.7875731384 6.6007066740 5.3916583592 1.3669456109 1.5132876391 3.3550840192 0.8323325932 3.2033163941 3.1987900382 3.2810105322
4.6944682353 0.1269221950 2.3619863792 2.7345449625 4.3129932207 -0.2688077858 1.7042566589 1.5626676433 1.6792043437 7.0168252424 1.5488934050 0.3274810932 7.7692706977 4.6771443080 3.0033675380 0.7563784480 4.5857392962 1.6126466337 3.5847144361 1.9576873801 4.0301971033 8.6595703262 1.6501838272 3.0410808095 5.8501597795 4.2211628325 0.6140067898 0.8540915389 4.9237716249 3.1610026647 3.3728576068 1.6742020440 0.9666652640 8.5017201281 1.3140269518 1.5104148008 5.9849897594 4.4294254239 3.7284066757 4.3921891290 4.5929321828 0.6290794906 0.4383502840 2.1045931191 2.9795569111 5.0458709039 1.5401272755 4.0420896886 8.8855831615 4.1254329164 1.5821940045 1.0789791747 5.8779199885 0.7433818238 2.7984293812 0.7829848151 3.2832086375 7.8032447762 2.7858049291 3.6095323105 6.1945475181 2.9138712673 1.3258966819 8.2367491750 0.4454937286 3.9341066553 6.5062831250 5.4683667164 1.4009337123 1.6196222062 3.4133905555 1.0265581645 3.2869101669 3.3354476695 3.3248275986
4.7111205577 0.1868904068 2.3148751220 2.7003071024 4.3491214062 0.0944704823 1.8464849139 1.6361295851 2.2213010362 7.0900175894 1.5082687321 0.0169859475 7.4983125207 4.5948768292 2.4685571420 0.6966798547 4.6153346699 1.8709294294 3.5416074313 1.8945234165 4.2807862970 8.7513261011 1.5991929830 2.7751425506 5.8152136996 4.3296797517 0.3740044112 0.5274647081 4.6459185741 3.4155974987 3.8582552943 1.7965664487 1.2087863571 8.8844035075 1.5498308676 1.2200708993 5.5638900474 4.3879820782 3.4647748692 4.4230544053 4.3881320351 0.9125498782 0.3331756080 1.6554544702 3.5637193436 5.0390301320 1.7961373640 3.6785327662 9.0563058671 4.5503028371 0.9712452145 1.7020509748 5.7386975380 1.3265766826 2.7775311914 0.5965663336 3.7664197950 7.9009648412 2.8363976714 3.3052786270 6.5753277177 3.0902182792 1.1754937559 7.7815869310 0.4611622225 3.3422321253 6.5827703737 5.6312344202 0.8876660760 1.6021353768 3.3901767465 1.3703906141 2.7709441401 3.1268940134 3.4908716241
4.7217103168 0.1644349194 2.3640041703 2.8392207685 4.4080138577 -0.5415212802 1.7264568876 1.6523998903 1.7114099278 6.8610871311 1.4559533170 0.6164488920 7.7306951185 4.5713535291 2.9368562901 0.7078133804 4.4907600677 1.4257483423 3.6797457075 1.9182230480 3.9381563989 8.7471173147 1.6746453783 3.2051645352 5.7300890534 4.3128400873 0.7058093689 0.7685288915 4.6010066904 2.9907256505 3.6667661655 1.6754095425 0.9055935829 8.5801755219 1.6454802176 1.6587476487 5.7428320005 4.5125757506 3.8280689503 4.2554087005 4.5918099202 0.8515749212 0.5679162873 1.8055577916 3.3224364479 5.1787320934 1.7120527849 3.7106018878 8.8336078952 4.3642981125 1.2834574083 1.2936305665 5.7344825965 0.7544707714 2.8257832494 0.7158912524 3.2640476278 7.9983358741 2.8000277671 3.9225818454 6.2085100536 3.1271731371 1.4319544200 8.0912070369 0.4903907659 3.9291980732 6.5708669820 5.4878376010 1.4919389638 1.4523737990 3.4077516928 0.7591274792 3.1349940199 3.0863691376 3.2480657178
4.6678053989 0.2488763115 2.3093131736 2.4935159875 4.3716921406 -0.1085623547 1.7405714842 1.6694781541 2.0909852446 7.3021151677 1.5320962509 0.1596373629 7.6139901473 4.5218329172 2.5587024002 0.4669975332 4.5694776573 1.6582782181 3.6921836982 2.0260078041 4.2321027437 8.9143615468 1.6295455915 3.0204163157 5.7354080074 4.1647205047 0.4403266283 0.3039986082 4.6279407004 3.2349220613 3.7644375566 1.7506003037 1.1918312896 9.1458181653 1.5881534531 1.4670987187 5.6508521239 4.4848863645 3.5197360046 4.2562440630 4.2955689975 0.9143569458 0.6105201328 1.6140470477 3.6558427192 5.2362433193 1.8650012101 3.7801969361 8.7716458118 4.6254795598 1.0646624242 1.5073972164 5.7267604539 1.1332636168 3.0355919850 0.6921964153 3.5122865960 8.1483400336 2.9218678644 3.5606974677 6.5780672608 2.9072043257 1.2786577916 7.8846937718 0.4913149013 3.5052927664 6.3986246442 5.4940554160 1.1309489433 1.2055581244 3.2253447711 1.0230326265 2.8825119894 3.3136060963 3.3890398378
4.7174619578 0.1943357412 2.3772876815 2.5297239565 4.4922789950 -0.5431597461 1.8638979238 1.6872336929 1.8392416748 7.2187541327 1.3767249785 0.6148556500 7.5337543792 4.4930435487 2.8186797564 0.5992839716 4.4837151769 1.4723989747 3.5444860645 1.9374964088 4.0529969560 8.8644317051 1.7281749194 3.1682012404 5.8448967044 4.2891210266 0.5989811403 0.8071247260 4.5163039240 2.9454472450 3.4252492499 1.4996696531 0.8432744892 8.5620534785 1.6322587574 1.7202044977 6.0264082004 4.7190235194 3.8008725086 4.3114183569 4.4482158391 0.5287756959 0.6168842770 1.6525458441 3.3868279864 5.0318840753 1.8173623618 4.1559036099 8.7305085462 4.5100037720 1.2997331160 1.4910533983 5.6994299140 0.9963266777 2.8873154389 0.6222943503 3.3541134878 8.1001556366 2.9515074992 3.6967677714 6.4472392843 3.1802818397 1.4962893181 7.9988355137 0.5143571409 3.6854216355 6.4883312737 5.6056918068 1.2749658963 1.3575569111 3.2849957986 0.9678848775 2.9558868710 3.1139937145 3.1240090698
4.7008306958 0.1813012102 2.3419056190 2.7379653265 4.3415235504 0.0582578328 1.9246771618 1.6684879453 2.2789755149 7.0123952453 1.5123619853 0.0130874278 7.4861925051 4.5599793580 2.4055431586 0.9293248473 4.5586172714 2.0281231704 3.4867454734 1.8226697580 4.3962429115 8.4952130147 1.6645303681 2.6489639573 5.9307962641 4.3799313528 0.2585823024 0.8054189327 4.6600115217 3.5803746640 3.6417188943 1.5871940739 1.3268928698 8.5943622181 1.5712491321 1.0639166850 5.7580510892 4.6332763514 3.3399193247 4.4665773240 4.4563154981 0.7291987707 0.2480694361 1.6852279464 3.0658778961 4.9934385649 1.7531189806 3.9000849911 9.1213440647 4.5024402626 1.5263363595 1.7231785789 5.7940829932 1.2902842291 2.8599143712 0.5361322831 3.6503097505 7.7607324633 2.8842806876 3.3103316339 6.5817283064 3.1271416908 1.0918623189 7.6542654852 0.4565074193 3.3482289380 6.5665249774 5.6639553911 1.0037118341 1.6409284691 3.3052905892 1.3645757647 2.8141763487 3.0797059314 3.5679925495
4.6636569099 0.2159987709 2.3249547244 2.7427659240 4.3403965557 0.0196976385 1.9334760565 1.6813381562 2.2986854642 7.0060086715 1.5240422299 0.0442652692 7.5181235833 4.5265940410 2.3802843103 0.9170886211 4.5537150329 2.0654951851 3.5177565106 1.8045193574 4.3888241559 8.4566263027 1.6883305792 2.5892385703 5.9249279579 4.3776299575 0.2822460751 1.0045779219 4.6692725725 3.5270554866 3.5630302255 1.5339822147 1.2347398637 8.3449392110 1.5724708818 1.1307755668 5.8963255029 4.6494790214 3.4327812255 4.4473200583 4.4692592458 0.5997209776 0.2044124788 1.6711775921 2.8785825170 4.9509624619 1.7687078118 4.0413464295 9.1825677314 4.5071005063 1.7720966826 1.6607146021 5.6602373097 1.3950830915 2.8951982433 0.6140782448 3.6788048878 7.7205292629 2.8749499328 3.2310193405 6.5893432906 3.2246136087 0.9503874172 7.6797970848 0.5833182108 3.2506930787 6.5651514675 5.5653628986 0.9859246004 1.6236895322 3.3593329339 1.4167559193 2.8683712492 2.9605795399 3.7154496490
4.7070522350 0.1425509976 2.3592836626 2.8773633082 4.3331213837 -0.4958055647 1.6356538463 1.6437471303 1.6485463721 6.8350789629 1.5493048380 0.5729563870 7.8424889535 4.5957438466 2.9932539003 0.6034837439 4.5374092072 1.4560961518 3.7220383938 1.9023186418 3.9941663019 8.7742427686 1.6749351721 3.1731822037 5.7230468193 4.2996572628 0.7044220159 0.9373587095 4.7416874848 2.9486912120 3.7570676220 1.6968281544 0.8220060694 8.3634680875 1.5000616996 1.6911025089 5.7396346672 4.5203334754 3.8331552342 4.1859014063 4.5779195749 0.9598082084 0.5476176329 1.8796535080 3.3023047714 5.2196599995 1.7000909473 3.6512398556 8.8487867991 4.2992024262 1.3667247251 1.2892345549 5.7977214177 0.8452772163 2.8410602939 0.7873575052 3.4488699317 7.9019260871 2.8628783387 3.8204265282 6.1065294224 2.8924867313 1.4107309109 8.0406611546 0.3859712315 3.7512015236 6.6117187928 5.3700816006 1.3138394483 1.5490797614 3.3094658161 0.8627103581 3.2166246387 3.3138991674 3.2435136334
4.7134066338 0.2143996578 2.3276186904 2.4360596360 4.4093981067 -0.2410154453 1.7715366292 1.6852942819 2.0179257027 7.3512363071 1.4869662768 0.2748455842 7.5890641831 4.5147413957 2.6239433600 0.5181093132 4.5080108809 1.6775084714 3.6651401789 2.0160725610 4.2120291165 8.8666922983 1.6341913188 3.0386657383 5.8047481345 4.2029652927 0.4945413646 0.3464163872 4.6046029776 3.1488958955 3.6202422609 1.6703894324 1.0619780171 9.1141120576 1.6122036087 1.5631797585 5.7552757921 4.6023980884 3.5850762996 4.2426273426 4.2128161579 0.7561726983 0.5950236531 1.6429645409 3.5795503184 5.1495019262 1.9313583865 3.9293164251 8.8118455830 4.6122649141 1.0915444208 1.4757293540 5.6802624681 0.9801054362 3.0497824655 0.7272745706 3.4416207451 8.2275201875 2.8990576070 3.7599108274 6.4267712205 2.9995044110 1.2808451202 7.8779574689 0.5271398911 3.6416917954 6.4073906299 5.4767609111 1.2480439268 1.1073888546 3.2967377751 0.8701391335 3.0269008204 3.2284888322 3.3463220065
4.7140458561 0.1702994060 2.3451280129 2.7335373488 4.3427718365 0.0740837977 1.9160417845 1.6614358053 2.2708356264 7.0281544523 1.5085079473 0.0091324254 7.4748736288 4.5736144818 2.4176485198 0.8850537451 4.5823363559 2.0122793144 3.4811528199 1.8548834710 4.3747181596 8.5145022055 1.6309854848 2.6505879167 5.9618420198 4.3564440020 0.2686734602 0.7084939042 4.6537899250 3.5100202951 3.7048608664 1.6231073785 1.2827444408 8.6940725523 1.5711158447 1.1163013746 5.6848461153 4.6044340724 3.3712820194 4.4697117366 4.4472971713 0.7894718689 0.2451464201 1.6887769873 3.1669284437 4.9024886200 1.7530374994 3.8440992082 9.2202297041 4.5061734161 1.4284145078 1.7042693755 5.7670872639 1.2822060704 2.8720573855 0.5606980340 3.6701469019 7.7907223786 2.8702403648 3.3379534481 6.5310295285 3.1757284602 1.0954051706 7.6871881497 0.4690926777 3.3598735979 6.5469776996 5.6535624271 0.9831770401 1.6282095639 3.3279125381 1.3478919439 2.8503224525 3.0279314763 3.5637391938
4.6972260881 0.1318714958 2.3677402165 2.7659590607 4.3102578320 -0.2656676963 1.6792147365 1.5675257104 1.6584323407 6.9856642824 1.5601658657 0.3330181646 7.7993155296 4.6506145891 3.0158904202 0.7667634108 4.6265766752 1.6413204552 3.6295214133 1.9404818410 4.0681421837 8.6416276921 1.6412101477 3.0076914746 5.8269642313 4.2260105087 0.5956184503 0.8709073056 4.9138824523 3.1554884860 3.4296937188 1.6919962154 0.9729661981 8.4982236747 1.3296208997 1.5139799070 5.9463576390 4.4339313833 3.7156662035 4.3071372638 4.5473508584 0.6284272657 0.4215473414 2.0961026704 2.9934112183 5.0889757767 1.5922443724 4.0211848597 8.8832700665 4.1009704375 1.5469821879 1.0720116882 5.8734527244 0.6978283327 2.8522810924 0.8098955545 3.3064341951 7.7825560846 2.8466537913 3.6488735380 6.1167274813 2.9018517526 1.4040148301 8.2344094742 0.4548016035 4.0148842664 6.4694753354 5.4357531687 1.3721230231 1.6307254197 3.3630173650 0.9755025577 3.3466028086 3.3372377578 3.2415945759
4.6785493328 0.2410930074 2.3172219925 2.4704629254 4.3826029065 -0.1508505511 1.7471860104 1.6752848933 2.0684351964 7.3235771698 1.5205032331 0.1932685110 7.6105425757 4.5187670239 2.5772958047 0.4528715214 4.5461162329 1.6793552314 3.6888811802 2.0225119838 4.2428472840 8.8957292864 1.6354096968 3.0079137860 5.7638680904 4.1752675954 0.4414433677 0.2947913560 4.6179876007 3.2125050297 3.7213429286 1.7239700964 1.1789240765 9.1641502089 1.6020027858 1.5070022150 5.6756580976 4.5286531943 3.5244240995 4.2202475113 4.2647856308 0.8725786773 0.6236629565 1.6245599608 3.6412202435 5.2356809860 1.8838376207 3.8194298450 8.8097353893 4.6203572304 1.0854138673 1.5177906879 5.7489773605 1.0524247240 3.0525205963 0.6771940719 3.4601886830 8.1791612450 2.9239586125 3.6451588683 6.5403734649 2.8975944074 1.2956841694 7.8614633317 0.4785553924 3.5727442572 6.3952776026 5.5088370169 1.1901470550 1.1649820990 3.2173893104 0.9436534070 2.9174821167 3.3295889729 3.3534683473
4.6936294489 0.2094572091 2.2967031487 2.6658320651 4.3467781305 0.0715196813 1.7987506170 1.6381157218 2.1915598645 7.1317885303 1.5252553887 0.0353386514 7.5387082423 4.5765002422 2.4895960131 0.5302806802 4.5828727131 1.7663935503 3.6309273127 1.9402297997 4.2188803085 8.8775111378 1.6346134104 2.8607006777 5.7586718328 4.2587779682 0.4200457357 0.5101989111 4.6515728057 3.3184892862 3.8616774284 1.8427470043 1.1647802098 8.9086498050 1.5337142347 1.2970572792 5.5828378966 4.3246310535 3.5123513681 4.2918777353 4.3779467027 0.9593108556 0.4617589429 1.6172540487 3.6783992322 5.1219627678 1.8285274205 3.6888698241 8.9544679548 4.5903178846 0.9435051781 1.7117186385 5.7858385847 1.3631492999 2.7511299886 0.6299773283 3.7853942480 7.9486344400 2.8452053654 3.2617002093 6.6164080561 3.0638502419 1.1706132450 7.8110485556 0.4365802492 3.3136673943 6.5916065976 5.5898747846 0.8796423183 1.5486069288 3.3759843475 1.3941326316 2.7459844742 3.1643705233 3.5091319757
4.7017299936 0.1955786400 2.3901654185 2.7403195744 4.4737636158 -0.5747198029 1.8154277469 1.6474489210 1.7703857910 6.9596762704 1.3807922030 0.6470954189 7.6274945396 4.5393380467 2.8912868451 0.6620752421 4.5339579793 1.5118884494 3.5888698927 1.8586201621 4.0567836863 8.7758587827 1.6884861475 3.1675542526 5.8263817247 4.3521098071 0.6378950922 0.7376166277 4.4742557499 3.0169133817 3.5989952035 1.5841843042 0.8714676675 8.6782590637 1.7294878697 1.6422163720 5.8159720553 4.5995959920 3.7463069625 4.2220737276 4.6118474479 0.7165154481 0.5980748631 1.7504171192 3.3347750093 5.1411828733 1.7101774463 3.8740799118 8.8147328256 4.3939226470 1.2355389092 1.3913739416 5.8055015338 0.7009966763 2.9289170172 0.6451510236 3.1177986531 8.0199286779 2.9350711244 3.9295669396 6.3666036091 3.1127613122 1.6103769675 8.0717198917 0.4206483638 4.0324121265 6.4408549095 5.6003505909 1.5189585289 1.4759756062 3.2683186592 0.6747362601 2.9692732407 3.1624924197 3.0623259122
4.7184646080 0.1760357606 2.3261130725 2.7098489207 4.3482485409 0.0972669135 1.8688288194 1.6396447804 2.2355959319 7.0751945202 1.5043673913 0.0121602504 7.4833117113 4.5968622006 2.4556651655 0.7646206728 4.6295506529 1.9173218007 3.5039183996 1.8938364130 4.3078772416 8.6720556528 1.5817793278 2.7182489365 5.8795197525 4.3373969139 0.3495161592 0.5452507041 4.6444925125 3.4192235995 3.8431010123 1.7558911336 1.1947750747 8.8634076926 1.5591322628 1.2293541654 5.5647578304 4.4431182412 3.4557169395 4.4719215401 4.4007991565 0.8941446747 0.2859170531 1.6719905550 3.4817322149 4.9436556558 1.7803912962 3.7018713506 9.1504245053 4.5329033537 1.0614638100 1.6736908640 5.6971623866 1.3152143527 2.8223940631 0.6086786930 3.7495034768 7.8800310284 2.8343404002 3.3313260918 6.5249622262 3.1540454190 1.1442352583 7.7788468794 0.4929341730 3.3491450739 6.5527442339 5.6196974229 0.9016205244 1.6054656946 3.3981853923 1.3524457591 2.8249752471 3.0535519435 3.5197630758
4.7480534438 0.1835784131 2.3462582382 2.4486540315 4.4660728103 -0.4398948620 1.8452984928 1.6964195788 1.8975381443 7.3226259307 1.4158880322 0.4913201185 7.5365032663 4.5026919916 2.7424858257 0.5049898690 4.5120337559 1.5377921992 3.5935661592 1.9506293383 4.1073442886 8.8791394922 1.6870532533 3.1402116423 5.7978625805 4.2996142034 0.5469443804 0.6820463901 4.5824896915 3.0787527537 3.3393635030 1.5553418464 0.9516553686 8.7115020354 1.5921175106 1.5901548701 6.0235764352 4.6962885729 3.7348431884 4.2615495048 4.2770758440 0.5469572176 0.6585081127 1.6380625518 3.4676467988 5.1588129373 1.9262855189 4.1363266077 8.7999197882 4.5777302901 1.2330676778 1.4887112039 5.6726145638 1.0267605641 2.8569426569 0.6796671122 3.4529426358 8.1548669731 2.9512002031 3.7573551151 6.4351902799 3.0588910686 1.3983796628 7.9190542807 0.5228166374 3.6306323338 6.5313991215 5.5415523526 1.2499599482 1.3004173395 3.1932409779 0.9116703441 2.9979369904 3.1861003411 3.2106390611
4.6958549484 0.1366997741 2.3747917946 2.7950235464 4.3088842758 -0.2699827009 1.6545062064 1.5725492712 1.6430260471 6.9596632003 1.5688464304 0.3451694946 7.8272505867 4.6266375852 3.0252180929 0.7493020207 4.6508222105 1.6650000227 3.6485801323 1.9423511733 4.1060590007 8.6361136176 1.6380427746 2.9774528544 5.8083647162 4.2277569866 0.5798813482 0.8962502568 4.8993864414 3.1247200339 3.5180639750 1.7011699996 0.9427433116 8.4757079770 1.3436905444 1.5327829255 5.8993750891 4.4512264333 3.7194510470 4.2410974293 4.5089732773 0.6453517680 0.3985066287 2.0820376941 3.0317602393 5.1333628034 1.6335858154 3.9844621231 8.9250763913 4.0969337058 1.5024197642 1.0718265681 5.8378366595 0.6736262643 2.9035372864 0.8380847306 3.3353319023 7.7803133854 2.8784947582 3.6794376918 6.0369916119 2.9076737999 1.4742690302 8.2280743372 0.4785492878 4.0613812592 6.4462181962 5.3953013630 1.3343527084 1.6136854520 3.3592331711 0.9416690393 3.4064203109 3.3024928561 3.1790943040
4.6904777883 0.2043150378 2.3955790750 2.6101692105 4.4943365741 -0.5720638263 1.8593081579 1.6674591768 1.8183614243 7.1189007523 1.3646896109 0.6455812029 7.5616854184 4.5047387186 2.8510255414 0.6241641279 4.5294923855 1.4228459438 3.5016141252 1.9391466890 3.9516791785 8.8015470039 1.6992452267 3.2309520696 5.8483989607 4.3014823909 0.6578724991 0.7834874522 4.4678143671 3.0051500216 3.5037580423 1.5069677292 0.9144399497 8.6003379345 1.6892837708 1.6502418609 5.9216795030 4.6944864600 3.7850472296 4.4032372232 4.5428243597 0.5901229334 0.5965927080 1.6899060821 3.3543232730 5.0161300697 1.7494336963 4.0701825857 8.8464578875 4.4538975339 1.2929499830 1.4118423376 5.6530718799 0.9074370034 2.9957109365 0.6971940148 3.2404255399 8.0854109783 2.9260349930 3.7572646410 6.3984106291 3.2538575132 1.5306642606 8.0850706674 0.5491705845 3.8021641747 6.3872130910 5.5624095125 1.3436272519 1.3777645569 3.3387858531 0.8687520244 2.9996380333 2.9817441386 3.1479490757
4.6836368400 0.1482916054 2.3890294004 2.8490048165 4.2988778738 -0.3790797086 1.5947511000 1.6046501113 1.6159574773 6.8890864581 1.5916452550 0.4541284667 7.8953777993 4.5838075855 3.0354954668 0.6783558367 4.5703855241 1.5765537145 3.7223747595 2.0231611509 4.0310161382 8.6630987225 1.6853288612 3.0703780728 5.7119314511 4.1571242085 0.6274437903 1.0496976534 4.8611871269 3.0479743210 3.7517052173 1.7047676805 1.0254853563 8.2844271582 1.3646336336 1.6086261468 5.7744789737 4.5491315713 3.7196572204 4.2417440244 4.4870610423 0.8914148499 0.4518285219 1.9945891666 3.2425220896 5.2196094210 1.6876532313 3.7480089504 8.8855793442 4.1614138510 1.3610783904 1.2014458497 5.7729955840 0.7547856674 2.9008837169 0.7801282337 3.4042958575 7.8886961234 2.8009274066 3.6955119116 5.8895294048 2.9671736959 1.5143377036 8.1295218754 0.5201437928 3.8557220681 6.5586765425 5.3856327254 1.2642692783 1.4723146893 3.4927904127 0.9593456114 3.4495613205 3.2050581651 3.1529796658
4.7417806313 0.1912762349 2.3340047302 2.4284223762 4.4384027185 -0.3391233935 1.8079952462 1.6919986479 1.9602495718 7.3511458223 1.4494610371 0.3767601318 7.5603192590 4.5106841918 2.6805752794 0.5839254232 4.5175771510 1.5788148400 3.6107102374 2.0059690431 4.1207940422 8.8566257030 1.6369590881 3.1276830354 5.7933644393 4.2475472769 0.5489569984 0.4898887409 4.5985678988 3.1447558940 3.4749281026 1.6119402892 0.9868687122 8.9444422845 1.6022946348 1.5435773599 5.8818148180 4.6556069573 3.6788027522 4.3208000511 4.2101895487 0.6336815046 0.5884352387 1.6472164646 3.5144496304 5.1245697812 1.9558902742 4.0435764719 8.7806280960 4.6021787530 1.1315608467 1.4080675714 5.5675506614 1.0221214215 2.9767174220 0.7773108773 3.4729323253 8.2213618816 2.8955974046 3.7877721474 6.3731020935 3.0959844926 1.2878015588 7.9319604698 0.5877191355 3.6301115086 6.4593515827 5.4543967273 1.2471426166 1.1508876961 3.3259419339 0.8814683624 3.0862916750 3.0988702339 3.3489642493
4.7226363193 0.1679866169 2.3362575546 2.7179487835 4.3462684493 0.0943120014 1.8880787096 1.6458985582 2.2489415212 7.0609684687 1.5038962030 0.0092941982 7.4739277454 4.5933178476 2.4422545025 0.8063960239 4.6278811690 1.9563130077 3.4824146289 1.8992137444 4.3250858774 8.6013797740 1.5796116670 2.6709736976 5.9421934570 4.3302736999 0.3260695099 0.5786019742 4.6453302741 3.4176511165 3.8130268089 1.7104901449 1.1930305101 8.8272856330 1.5660682143 1.2309050563 5.5829917875 4.5034767889 3.4407678193 4.4894138006 4.4170703417 0.8729297116 0.2570807942 1.6833591361 3.3844480975 4.8572861931 1.7683744649 3.7446939401 9.2434584428 4.5210945453 1.1903107944 1.6618992667 5.6876954177 1.3035516898 2.8614477101 0.6132860407 3.7270947056 7.8546480268 2.8398917211 3.3491866662 6.4840547311 3.2190396649 1.1036964176 7.7635242172 0.5074715035 3.3541463214 6.5312507509 5.6143624592 0.9238585888 1.6066318955 3.3897667003 1.3404394081 2.8761437262 2.9820101803 3.5589064292
4.6948826101 0.2286121334 2.3234681061 2.4506741726 4.3954192098 -0.1950356694 1.7576188124 1.6806194570 2.0440805583 7.3404826912 1.5050162568 0.2316141966 7.6017407201 4.5165587690 2.5991348000 0.4717234968 4.5245928813 1.6931222004 3.6805574376 2.0186076903 4.2386852306 8.8796197452 1.6365112190 3.0086264673 5.7895848603 4.1887386554 0.4605689384 0.3089862090 4.6097843351 3.1725784839 3.6740289881 1.6975165898 1.1273721916 9.1536585589 1.6102709335 1.5491027294 5.7097844823 4.5683585206 3.5469616716 4.2146888883 4.2352896783 0.8183553261 0.6162349656 1.6347561926 3.6149310845 5.2005534446 1.9074275160 3.8707885663 8.8247778781 4.6156774232 1.0921191228 1.5067726615 5.7315571935 0.9988950716 3.0583894908 0.6910278395 3.4374661369 8.2070881461 2.9142812294 3.7138760958 6.4860673092 2.9318102886 1.2948898772 7.8590121300 0.4920342067 3.6201549313 6.3974986606 5.5011508265 1.2299275509 1.1296830351 3.2461115697 0.8908795641 2.9690163398 3.2985531701 3.3398569585
4.6636932800 0.2503558635 2.3013523605 2.5187364202 4.3628722091 -0.0688231431 1.7381503926 1.6635744617 2.1117304742 7.2775216534 1.5394319652 0.1306563929 7.6117029207 4.5262384729 2.5430815416 0.4957290402 4.5913637107 1.6432479288 3.6906234917 2.0292086337 4.2137216400 8.9306365326 1.6205007334 3.0252695694 5.7171186505 4.1579744408 0.4525959968 0.3342486653 4.6382248378 3.2226484308 3.8013199508 1.7769845050 1.1601977479 9.1041572099 1.5710786170 1.4518435069 5.6327665650 4.4400456941 3.5316573056 4.3013074240 4.3230804148 0.9437576575 0.5844998239 1.6043218517 3.6643492211 5.2006680860 1.8533404647 3.7550694361 8.7464389621 4.6286696600 1.0396636192 1.4839985351 5.6739246470 1.2270033371 3.0103716489 0.7301223656 3.5858008226 8.1171601465 2.9070732244 3.4714467703 6.5926008981 2.9579579765 1.2435920756 7.9193028696 0.5228193471 3.4292592937 6.4071268253 5.4629941327 1.0607819395 1.2469399729 3.2707754297 1.1180064375 2.8690897600 3.2529021064 3.4443247558
4.6651718231 0.2461473502 2.2949495094 2.5458914780 4.3556280693 -0.0327292178 1.7402664084 1.6581060046 2.1304541967 7.2505832261 1.5430915462 0.1060255324 7.6043988945 4.5323416745 2.5297186135 0.5110963973 4.6002810686 1.6454624468 3.6842682383 2.0340348620 4.1944417788 8.9385952516 1.6150138284 3.0078959320 5.7227161408 4.1527190399 0.4678253746 0.3793907222 4.6470233683 3.1826986094 3.8292288819 1.8011390042 1.0999753238 9.0504063650 1.5541744271 1.4605538881 5.6190679128 4.3977998756 3.5535585400 4.3218622203 4.3456076846 0.9663595691 0.5631548097 1.5963968793 3.6762583385 5.1436785474 1.8490028182 3.7427030991 8.7593226322 4.6288820398 1.0196539893 1.4787805543 5.6319730194 1.3097864018 2.9746939932 0.7699786784 3.6638756055 8.0861833302 2.8841856740 3.3889440635 6.5839988902 3.0354421963 1.1941318040 7.9446379355 0.5500348198 3.3605869683 6.4247150247 5.4338991480 0.9922223903 1.2903817799 3.3355364252 1.2146059274 2.8740307900 3.1637723729 3.5111539572
4.7299711433 0.2013065065 2.3306258662 2.4284517511 4.4238337033 -0.2890086193 1.7885675443 1.6891299582 1.9900353276 7.3548344606 1.4680150702 0.3232836636 7.5746128464 4.5129329157 2.6512273314 0.5664566064 4.5041548814 1.6287981140 3.6391410892 2.0153196081 4.1645237188 8.8578563627 1.6316882939 3.0875674975 5.8052184696 4.2198874758 0.5303240057 0.4068547096 4.6018492194 3.1486486223 3.5540203111 1.6417433620 1.0121777190 9.0439137774 1.6088223483 1.5524270178 5.8130091957 4.6309532824 3.6326152635 4.2891045608 4.2029968420 0.6924370925 0.5789885116 1.6473951375 3.5437121659 5.1170128252 1.9494941856 3.9879687673 8.7915032792 4.6084015669 1.1014648642 1.4340538541 5.6119705049 0.9943240029 3.0235473853 0.7663368492 3.4597391495 8.2339729695 2.8891085407 3.7829828179 6.3814340680 3.0697839160 1.2694101422 7.9092834096 0.5683124802 3.6402585784 6.4274578306 5.4533847737 1.2500561651 1.1098043470 3.3384707821 0.8741334691 3.0746456753 3.1437082901 3.3606035591
4.7024393005 0.1984002230 2.3046031704 2.6864335680 4.3484478558 0.0858372264 1.8224740130 1.6356937656 2.2064251862 7.1082815056 1.5157160856 0.0245116266 7.5174611774 4.5876561709 2.4799497637 0.6127959116 4.5972835009 1.8188668252 3.5874212638 1.9103012981 4.2485088392 8.8233036038 1.6197629790 2.8245082557 5.7740700938 4.3020878499 0.3973867643 0.5185881879 4.6487356210 3.3836221456 3.8627725269 1.8266280112 1.2030045025 8.8968044958 1.5404635092 1.2393446523 5.5722803634 4.3468284440 3.4821245227 4.3523554398 4.3807570063 0.9351438691 0.3957047329 1.6361411508 3.6298684591 5.1035097493 1.8131658187 3.6762009694 8.9886991506 4.5707603702 0.9333297950 1.7202647835 5.7764459946 1.3437292821 2.7487054943 0.5995535326 3.7789080860 7.9220907937 2.8417288294 3.2792888937 6.6097752735 3.0577002792 1.1841449502 7.7885991835 0.4366796280 3.3296762209 6.6001551163 5.6248922271 0.8803790781 1.5858565236 3.3787213826 1.3870031372 2.7408593576 3.1670072673 3.4876627638
4.6992702406 0.1425262062 2.3662656094 2.8747798274 4.3162076022 -0.4745966672 1.6143034802 1.6347056783 1.6318120502 6.8405769786 1.5708712571 0.5501563776 7.8687480083 4.5979742569 3.0109080014 0.6293226578 4.5524619112 1.5065984452 3.7386299503 1.9164784963 4.0236599955 8.7660465905 1.6824771776 3.1286995720 5.7287508511 4.2681110920 0.6791047666 0.9947917093 4.7780948584 2.9446672207 3.7716003567 1.6970395063 0.8570886637 8.3158350693 1.4574447574 1.7135534746 5.7484293764 4.5368658623 3.8054124510 4.1539001324 4.5672608297 0.9737885458 0.5395309922 1.9086813537 3.2943699002 5.2341779767 1.6935227698 3.6562828769 8.7638542142 4.2536322033 1.3639934117 1.2974245068 5.8459857848 0.8376937005 2.8405200493 0.7683680607 3.4576105498 7.8785605514 2.8903367707 3.7823543783 6.0604666008 2.8451730832 1.4432191487 8.0283519693 0.3452292243 3.7387960653 6.6230586570 5.3708651555 1.2821118396 1.5605570415 3.3016605248 0.8923093465 3.2518280626 3.3729646461 3.2009223745
4.7126482928 0.1863997612 2.3814895274 2.7787416561 4.4561520050 -0.5666711484 1.7894636734 1.6477541000 1.7513816077 6.9175827573 1.4002544981 0.6393299607 7.6575363697 4.5509304163 2.9052447550 0.6989910436 4.5175247031 1.5132021450 3.6299200786 1.8637551836 4.0406063982 8.7687048443 1.6865621042 3.1554390584 5.7983083229 4.3473270880 0.6450732957 0.7344337521 4.5066785499 2.9965661151 3.6201002712 1.6171731281 0.8806195989 8.6713253470 1.7148428954 1.6669018123 5.7864051861 4.5652176607 3.7702732512 4.1997313281 4.6116544708 0.7619289690 0.5859609289 1.7679152564 3.3300037469 5.1688540760 1.7090913563 3.8109601670 8.7806680445 4.3812017553 1.2306704033 1.3652160648 5.8094159631 0.6855203488 2.8776909363 0.6458191963 3.1394611056 8.0099811797 2.8985193291 3.9533584411 6.3267813800 3.1013961875 1.5721868711 8.0725669541 0.4215193687 4.0407142320 6.4919626787 5.5834338318 1.5417354688 1.4775367217 3.3003490339 0.6721514999 3.0024932236 3.1700139566 3.0993580555