-28922.8251848148
-28923.1637172502
-28923.327321258
-28923.3157462215
-28923.3214923104
-28922.660343506
-28922.9734631069
-28922.9215383709
-28922.0337939584
-28922.6001489625
-28923.3057067226
-28923.8984718578
-28922.8404623663
-28922.0071898102
-28922.4247667853
-28921.7802035829
-28923.768656208
-28923.5291328863
-28922.2990948829
-28922.4292067285
-28922.4270943098
-28922.9348130295
-28922.6216439039
-28922.3469999554
-28923.3706127788
-28923.0157246774
-28923.2678489042
-28922.4138114878
-28921.5325850147
-28921.9430000933
-28922.6215946513
-28922.4814875253
-28922.1551255112
-28922.1439893941
-28921.9550286073
-28924.315934001
-28921.8891753234
-28922.2354726592
-28918.9970117424
-28923.349255663
-28922.9030145029
-28923.3016020235
-28922.7137479963
-28922.342159597
-28921.8013485861
-28921.6405820439
-28922.7010012383
-28923.2824973289
-28921.9767504915
-28922.1519670875