0.340687704918638 -0.130560551035371 -0.262310750888468 0.947196486057146 -0.491218775214684 1.50019369609416 -0.847846025941589 -0.295066845339939 -0.148747239844917 -1.09458027060049 0.710561272284657 -2.00214039370339 1.11527892590002 1.02260921678506 -0.586500723791084 -6.08229131085402 2.35635697935249 3.99300033522851 1.77840825447543 -2.56269792867777 3.95716380367197 0.0392411846026438 -0.659734188606086 -2.20548960893681 -0.63896637066727 2.51812839263823 -1.95302412118392 -0.76181181643498 0.288704910966526 1.12152747468263 -0.504831988085243 0.855884832929915 0.135891730684285 1.21670143698209 0.145413292099198 -1.06173701579691 0.155635735873549 -0.707776254780098 -1.5607421158 -3.05543699640579 -0.573568852906039 0.674028486351975 1.49604779438986 0.256240379462818 0.472322205189289 2.35696093117286 0.455880266083024 -1.19849135114587 2.29098568682995 0.184409964917607 -0.383043008060353 1.10085375907087 2.84572276147676 -1.77635600099302 -0.962110676454761 -0.552708475301266 -0.452162195723587 -0.729484581769107 1.34148935018397 1.93244245101774 0.773583349063187 -3.66760682955827 1.51669065677963 -1.35535761635627 -1.99632584691004 1.66243947766792 0.765917351840519 0.513887922958358 1.1703177314898 2.65012696092831 -5.33550038554269 -3.06409595315603 -0.994907651425363 3.477475905954 -1.48117731272339
-0.188270731428728 0.396196765033511 0.47641514219585 -1.98111855090356 0.598873380027642 0.397950513593204 0.960768818408574 -0.742287383342179 0.262266785047138 1.62627050264449 -0.756287804148656 -0.710864405190665 -1.18747032314246 -0.462835353649109 0.112823033715899 7.10156375168134 -0.0246121293982118 3.61535432702397 -0.108252128878745 1.78022345236891 2.36892349666719 -0.243157584900226 1.01447527902894 -3.23422730404892 1.51582599523349 -1.81306824983359 -2.19035353245108 0.444171468339521 -0.36315502116849 0.287398019905256 -0.32531148752179 -0.51756871234123 1.20698112939555 0.690629576661648 0.174838009906784 0.785981202097699 0.450703352544038 0.706324096465313 -1.10665673590598 -1.35373962197332 -0.0231774545758854 -0.605860863476812 -0.103446225334134 0.144830937534222 -0.0885400053521991 0.386853123865381 -0.176551649277896 0.859178671487052 -7.07067787670256 -1.33502354329654 -1.31514789769347 0.935893151072569 2.09059709535623 -1.51367938231384 -0.429890540323159 -2.04987778431029 -1.95962516802772 -0.03080719926272 1.06018895538378 -0.149887266397281 -0.118104848209636 0.0752618070503663 1.52572936527047 -0.481916014565685 -1.81596459604748 1.68819291916941 0.00901068348086968 1.45559330683263 0.83706591017985 -0.517894728053543 0.291512554167208 -0.0228285560572658 0.0183676943785268 0.291494556454383 -1.5265896559435
-0.430241238613061 0.0512572290150859 0.216672150707127 -0.017105540489136 1.31698932082564 -0.996036365129666 -0.811068985334854 -0.163596381366178 1.33354644529398 0.755032592234212 -1.21756275609585 1.25034559000637 -0.412144795477824 -0.0680429244363054 -0.912405878725913 -4.34305559256232 0.290761792432227 1.97023739083982 -2.52396042292404 0.284169487334655 1.52450937745113 2.84234870454246 -0.339215234899379 -3.09251948391018 2.12896050579338 1.34911241000604 -0.627037229496753 0.683161554280054 -0.777697369104772 -2.34372464183089 3.11986135212356 -0.35016915714497 -3.28125712743162 -0.946464236255356 0.322906221757836 1.82580805941177 -0.756851132560075 0.926751855618627 1.03087633761608 -1.71782923865778 0.228466051921274 0.564846389940551 -0.731064523844948 -0.314304086358091 2.03483889547382 -0.222581571158086 -0.0222816826975726 -0.907198111964941 2.90523991223774 0.879590906042485 -1.35762070018891 0.265545454103466 -2.37514659154167 0.835490853197489 0.596460143848009 0.92541154023354 0.834021211390246 0.00333780439846631 0.416620055326823 0.235853855925705 -0.368027002030186 0.299846523645862 1.08149387649533 -0.249038466120849 0.40807808370995 -0.551331650270162 0.685666578795095 -1.38361582526262 -0.983279843389572 -0.945925590421526 1.44883208034469 0.394570543124691 0.489743991203776 -2.13716129219713 -0.0807009729762294
-0.136138556460169 0.0667015806104851 0.0983467019602951 -1.0712542063387 -0.382435970917788 -1.44347467545709 -0.412255867076972 0.761544421844439 -0.143672913269032 0.850938033004904 0.876946013587777 0.667718488235571 1.02578247066627 -1.29471149478081 -0.370797621364486 -2.18683317982253 -0.52605206283633 -0.777755476006178 1.1144353473889 2.06993494970271 -0.711406393456877 -1.00033421895225 0.432938324434962 -1.03256298041795 3.17706888210874 -2.72611176181387 -0.151690123001968 0.631253836501441 0.0985539327679645 -2.00860054416679 -0.753656024313292 -0.752005376937067 -1.40238281175568 -0.60896032673544 -0.0046734918002559 2.02332113059645 0.655954668912861 0.99068975886976 0.587484941572422 -1.54682834112527 0.374955093027034 0.296783827143433 1.08194998996035 -0.19677259385702 -1.12215456641949 -2.18896179502935 0.0908596534251434 1.48837228409041 1.87842205886367 0.216668808274746 3.70578332089223 -0.718885471576349 -0.268294733292558 0.410251950309013 1.13626554460475 1.06983341546627 -0.313734587302275 0.0136134699807421 0.231961464862049 0.00409036590472966 -1.12781716109457 2.21831426487545 -1.60177201594725 0.302693761814759 0.516465195434881 -0.399814562421496 -0.895668005798771 -1.26677595915439 0.472401909346085 -0.917429297485521 -0.244206851557917 -0.0943982608766988 1.6966443880018 -2.35432709445603 1.81966235470244
-0.432455728621072 0.0848409611463191 0.253128060695029 -1.67983503844372 -0.177490872777172 0.201789070641681 -0.0404899687625075 -0.545393690588867 -0.180164818682583 2.03341939015231 0.510389424695384 -0.171983315542574 0.374853277394481 -0.127825155796172 0.335755817384253 -5.09874227310262 2.79834738200782 3.58648805253432 -1.02008208079426 -2.37335890443779 4.39162730571375 1.31687413546356 -0.188284101158255 -1.89962824966487 1.71482979126043 1.66238034232578 -1.89380881777803 1.29688330449841 0.0333855001799763 -0.754363591537493 0.341926204671173 -0.658136505927603 -1.92048091396414 -1.08872869994075 -0.522340677341656 0.564732490129387 0.640668954300504 0.874125257767751 -0.724544723819042 -1.53082271799991 0.196813988596517 -0.191934037319141 0.138219092062726 0.191117198267075 -0.0875295623321735 0.309440590132441 -0.160457837359702 0.867272757164768 1.27333535414851 -0.132099098371716 0.355211859168319 0.939628447814282 1.51819140891904 0.217701362770527 1.28480581075218 0.119610742552712 0.422908713298021 -1.00574895941071 2.40740954866174 -0.533533969167818 1.09733880575617 -3.62559168318895 2.20600717173561 -0.689015696041622 -1.83977274190278 -0.571788879107658 -0.987659972470782 0.0316854876485744 -1.42606703050268 2.13608477186002 -3.85809307943575 -0.771002477044098 -1.32472756600979 3.78054659129735 -2.27579278899373
0.675173397997821 -0.641773756757768 -0.00529338445198154 0.536001198485926 0.517073261018179 -0.630376062335953 1.03705649508996 -0.0239770672456766 -0.44634019273492 -0.774437983312185 -1.05285154497526 1.15001142632985 -1.41824316762752 0.33130498300266 0.735124807858242 2.00335755331072 -0.202368854104826 0.829396827634983 -0.666993951739278 -0.0404622008627206 -1.04746662929805 -0.323334824433252 -0.436286927461123 -1.0492103505606 1.39506417039053 0.521366486857463 1.83610069426614 1.49092435976898 0.0234546193533886 -2.45790187488177 -0.44014897952316 -0.0174300135403503 -3.15580047064321 -1.65289940431982 -0.228533157679092 1.74637952473226 0.476154689580256 -0.076083788306097 1.176808478065 0.64240136271499 -0.231824168024214 -0.87697429570793 -0.912395337208401 0.0558114216903311 -0.433328874803262 -2.56041787557304 0.50840993339483 0.999396023893706 0.91276660431296 -0.136902173704311 -0.300933842610668 -0.921444844326936 -2.16940959403676 0.914049069906824 -0.587484941572422 1.6241827679568 1.5173879395965 -0.0254127705087359 -0.900095700263875 -0.339331191592008 -1.64094300946988 2.9151144859342 -1.27812274575993 0.80620034690554 1.32811576400416 -0.608050413797051 0.365251754712589 -1.15344770392848 -0.777167722127354 0.0570941443943789 2.65519177442741 1.10490761532959 1.52671101194998 -3.16857910385906 1.39673512947123
-0.0856344031717132 0.0292552821968486 -0.0780247130791691 1.22943456169551 -0.807280209675033 1.92119619449384 -0.638333108286017 -0.614726279704166 0.663674916384186 -1.31536592712883 0.77300176582876 -2.57097070593282 1.49963473855586 1.09666414863542 -0.885802688068902 -2.78556874879197 2.47768701770035 -0.407361260519153 -0.72408758191329 0.599896164336462 -2.94563475023246 -1.91031631998102 -1.85239145258468 1.47722758608887 -1.03234675075387 0.933325134562641 0.864764647327529 -1.38885161703357 0.0235908877504913 2.93681150007515 -0.614147781791938 0.681445600917293 3.2668882677326 1.73219604147534 0.395306906689412 -3.14369186656481 -1.17552755513223 -0.593846361725469 -1.32436041266816 0.643110729710474 -0.47478969161758 1.04770985553137 0.910045350133837 0.377849896579825 0.472680616784687 1.9692007225811 0.153132768239974 -1.47988944781567 3.51821527159423 -0.147871265450711 -0.61118998624426 -1.06592302668979 -0.8205578937565 -1.07866077938651 1.0421943278811 1.73570739524747 -0.73462447144171 0.18776988079183 -0.1445938819453 1.79311752805702 -0.849013049063191 -0.426811902989371 -0.476672509489246 0.34825317205967 0.530432706137907 1.24178870599887 -0.986792482712623 -1.30410552954485 0.84713305940354 0.263421981100313 -1.08674560909763 -2.30893172050801 1.22843131776061 -1.53357559673157 1.51282217696301
-0.234188039048671 0.292763138098354 -0.312320738404789 -0.795286790958714 0.061112519447809 -0.276306286601464 -0.853880144831406 -0.317378867039131 -0.199488191612111 1.539303240283 0.128260957556718 0.837545163561358 1.08195667482511 -0.0449202343294443 0.00132848831665964 -3.20825583311206 1.29479428425981 -0.587115217128963 0.606690300927856 1.42635910767081 -1.79513198634249 0.978300647581476 -1.45199067894546 -1.56059761987703 0.338649335386128 -1.40026756627839 2.11000042955274 0.0975833418263368 -0.0702088206196885 -2.49245876905646 0.977406932584629 0.624974948717205 -2.74852174249286 -0.295030592804106 0.0215879994232649 3.0543923577314 -0.375867577067255 -1.05402319608016 2.23633588894737 0.718031094437534 -0.24180132868378 0.0708621375952318 -0.470833537228487 -0.108861737123142 1.20290207633888 -3.02548571694299 0.336003414490687 0.177723557492979 2.59982669601514 0.234466232266907 0.0264448107841514 -1.44239532690796 -2.81773477537297 1.18586904092141 0.669982600508941 1.91861737935622 1.11326626738583 0.570072668634714 -0.648437538486273 -0.342971871786299 -1.41267210417767 2.82029405013667 -1.80476590490747 1.53156653775995 2.14433672319023 -0.973365931835076 -0.626799916797648 -1.87022692888395 -1.02267786520398 -0.658952316538937 1.69793071024841 0.209172503772998 1.69027859697564 -2.97565005013088 1.88987914573781
0.574746674655336 -0.553611960485075 0.290804729832824 -0.218144363616203 -0.0258639988802741 1.37411560399292 -0.210527217328346 -0.434026671840501 -0.809095407568515 -0.426401040916598 -0.494945587320351 -1.85082308046708 -0.941021727897111 1.25925342941396 0.73938949446719 -0.16328836336669 -0.549230031632582 -1.00716435096929 -0.655007474997905 0.23037612347236 0.242359514891534 0.860504845812062 0.0166969924080111 1.51881747221517 -0.899127937534263 0.126243413949048 -0.309916758191751 -1.87001764119482 -0.0830206210491737 1.6242439601804 0.403125884471091 0.455096337134409 2.10466359347979 2.83078363139138 0.00262740896224982 -1.13638870038251 -1.21824589785264 0.000107472056582878 -1.91469156396875 0.700838136486105 -0.127798159226935 1.22769829662827 0.90866338289907 0.168024075831283 1.86916249272545 1.54556670145624 -0.180013895005038 -1.40342282244677 -1.06127318902639 -0.0221202175025151 -2.30985088941299 1.25100867716888 2.53604383020448 -1.57877428138943 -0.812428583983683 -1.54816659962889 -0.707036548782995 0.298845336592432 0.273682477181779 0.885121088973205 0.227662582598734 -1.53301175409979 1.90824066947194 -0.746544613755814 -2.1340052646982 1.33814100426799 0.269966977924173 1.61618149905522 0.514693963382729 0.445562434430702 -1.1321019022978 -0.614028225556744 -1.09524721441574 2.13358386110791 -1.9962589982624
-0.0622561455427388 0.377904403938666 0.414271868023542 -1.84356974508847 1.52437439460494 1.19064486257459 1.39929389001456 -0.785987886962463 0.899935263509551 1.86378400480283 -1.87326314303751 -1.50496180444184 -1.80130083096831 -1.08678083319273 -0.452805485401985 3.95384656808816 -0.346584269860436 1.39293632651426 0.00103769669944616 3.23265044729528 -2.36546716447427 -2.96328639275074 -0.133223698313088 -0.984571822060216 -0.926221951531026 -2.99948879209799 -0.835320389146019 -0.601350379532713 -0.415273055076972 0.594501735582478 -0.879427126855779 0.108886676810913 3.93406296793068 1.37072329223561 0.344303445425157 -0.0507777185233943 0.18816608758416 0.190823578437846 -0.993534425936825 1.44988314677366 -0.573236666549328 -1.07645991621821 0.0176069053464006 0.154979076465624 0.0227943604028986 -0.427826973992695 0.0217993439938657 0.862018453460635 -0.765500576233531 -0.597227360634715 -1.07110122577969 -0.548997346916775 -0.726571266283124 -1.19794910576947 -0.25747142302004 -1.22434455139845 -2.17316571670331 1.02451440324266 -1.26331217076615 -0.206339406664178 -1.23936749940356 3.56216542920241 0.804649715390585 1.19593696147565 2.21481885193468 1.69804949515305 0.0232214204172147 1.58427232554725 1.51471270814018 -1.72275444132741 2.67911947651791 -0.0551779021988952 1.55131671359361 -3.97080324178121 -0.360945416253961
-0.199494619366692 0.1139563754035 -0.116408435220799 1.7327786531505 0.112944132612192 -0.497922923241953 0.769884047747123 -0.207525455939338 -0.429202256362699 -1.76958011922464 -0.222877762089147 1.28763993630173 -0.438916393304839 0.0021993205072008 0.612181146000545 0.269045237917356 1.74555754347653 -4.53968729003893 -1.45145306155236 0.244451620452335 -2.85978463161703 0.561210594839741 -0.0251181222387743 2.58726660645502 -2.01535174335759 0.369733699426352 0.24829747457283 1.63017240678492 0.172000284814666 1.66043838911198 -0.881060033629362 -0.107618095166942 1.10485696462349 -2.17173901229667 -0.376502896329974 -1.75923811921509 0.867376372568603 -0.388578590304921 0.667732886405831 1.31350804894494 0.896575347635328 -0.110031588456759 0.36674196533449 -0.267661213801122 -0.0324066817124858 1.31518389311912 -0.410592364191586 0.00881990772492592 -0.525013851916518 -0.0319428549419702 0.743601730598762 -0.75331175377797 -1.2042879002264 2.3386963379778 -1.24898239181498 0.199487163171379 0.989362556104016 -0.990458102594685 0.37371273662175 -1.62695544417256 0.989018285568695 0.183179435580751 0.18490798734249 0.877190011151646 0.429852230905861 -1.6274755780732 0.72093515395692 0.0718281005535616 -1.14100999881557 1.75072905770167 -0.630100697329732 1.75250697461859 -0.718412388839238 -1.04267203860151 0.55381482041963
-0.576915913271101 0.634898630458663 -0.527035252176935 -0.726349637305195 0.060149898921861 -0.881245152961275 -0.891955077642997 -0.186144173103376 -0.445446991958439 0.334199272335084 0.236396615522467 0.722924415444437 1.82260678052059 -0.520687458863599 -0.0560744454077576 -0.455481745299045 0.315456711309433 -1.23587002958132 0.407394170622604 -0.0204052925804868 -1.03347597867854 2.00665884806317 0.119556749414237 -0.144589768182368 -2.89444025610208 0.0687350650495138 2.52338603877474 1.4311637256645 0.0644418392102293 0.357593727905601 -0.152008168298602 0.439053175922308 -0.826984619896083 -1.4987993875706 -0.0759218088906731 1.28785822284728 0.834150280702219 -1.11881007715626 0.583863030421506 0.730041482425945 -0.322950187599165 -0.753874310858839 0.220043122319228 -0.255424311741301 0.606919643211281 1.81651635450065 0.445648823452261 0.456229421711827 -2.67891455970189 0.229938007720166 -0.543602661052607 -0.566386222827811 -1.38656385062334 1.06655166108774 -0.452691842701005 0.658413670705106 0.628406084112177 0.223057739217396 -0.211258181579219 -0.949601494710917 0.432750376891033 0.20237322497794 -0.838897563125056 0.648726787442387 0.904831412728469 -0.841076057707417 0.235962613533204 -0.959295062838399 -0.643186320104338 -0.0994319640436356 0.834392992715171 0.539099376193638 -0.149897293694427 -0.156826927352373 0.948129024691658
-0.420365379365681 -0.0123209770897322 0.132120695627106 -0.581070556721634 0.336787600549486 -1.84368055957743 0.0824495793322584 0.0409273131841522 1.32696571015465 1.27606252186185 -0.640988285148054 1.63573781381074 -0.521757294335947 0.63129857367332 -0.790190610017257 -3.81953529370008 -2.27581438624912 -0.685035116185125 -3.53175083718946 2.61639796154356 -0.00387670734247997 1.70475904249417 0.796419875536132 0.432166736775141 0.630413343312518 -0.425374657065213 0.363656128915572 0.604167792920357 -0.326403691580077 -1.78931512555749 2.23425638178555 -0.61077141086599 -2.58778468347419 -1.34755097986339 -0.107999903789013 1.07963625542162 -0.591644470116436 0.906132390255524 1.17085123511996 1.34703984481916 0.510399451992529 1.24534582538362 -0.441958263882427 -0.394966235696656 1.73549887888889 0.0908431983734178 -0.763476347761098 -1.12072991889431 3.12594792149075 1.44720457288495 -0.662508921703317 0.480544074628062 -2.20695410854038 1.5127902953003 -0.183897544322464 0.0905796604356249 0.401883013845442 1.30693502711111 -2.05526655664025 -0.621872914356745 -0.135740549896556 1.26410998366466 -0.557176278954952 -0.283084482361498 1.02308898438693 -2.42884945261948 0.960090304635076 -0.555355938857806 -0.634807099233439 -1.9940000281927 3.30092219979464 1.22021896139862 0.00884664718398003 -2.58857606861812 1.46895635149492
0.569041142579665 -0.478251166014172 -0.169276973754078 0.807279438344484 0.471248513064193 -0.46911784097591 0.944278028367499 -0.116771217689312 -0.446283628494613 -1.12683962817799 -0.962994621264646 1.16592783222162 -1.32414006924115 0.212098160547775 0.80265016949574 4.52341401521286 0.252118646115736 -1.00267957804351 -0.688734417501188 -0.0560281655747794 -2.04465767626053 0.346027883423964 -0.653258097311327 1.81265970175246 -0.376285638225159 0.401065146352642 2.47017502947742 1.65808531671522 0.123979301675678 -1.24058363057016 -0.298946638004618 0.0125194661511724 -2.73805118739171 -2.04221564374038 -0.395438032882851 0.15566298955297 0.660369507868805 -0.287765430357067 1.26467074097425 2.15658725208976 0.0912157510288929 -0.881758601997151 -1.45748280956906 -0.0224374914685994 -0.82660743925731 -2.44901306162774 0.336793771193883 0.859137790967921 -1.63293171327116 0.0313535584020469 -0.995199985703676 -1.51704675438338 -2.80836490896615 1.9349135369886 -0.783602675792799 2.04309547478733 2.08130281934327 -0.205067482587825 -0.833795211539202 -1.11550569708161 -1.17701853708468 3.10514436523647 -1.26262954322972 1.47224993294188 1.85903697949017 -1.41993135309049 0.394510893562186 -1.59188741495364 -1.37577627866629 0.37388320067322 2.59868872634424 1.88504341741195 1.17359897164795 -3.33136610236848 1.55591641477128
0.0411813380451663 -0.0814959576627228 0.299314562676795 -1.70225941729298 0.0984891410017949 -1.34821175303424 0.5455003913149 0.52423532228175 0.0707202127740984 1.1894377302644 -0.0971148870725234 0.812912208238306 -0.0643492795442728 -0.465863340276804 -0.236675065850886 3.36953925127006 0.929435057490634 1.18062733561626 -1.74220097003469 1.24995581096862 1.02011781910973 -2.62748326709277 -1.4346388269008 -1.10293609444471 2.27162529003404 -0.990840168326939 0.230160922249011 -0.507446541538332 -0.0771471960238645 -1.40084143620732 -0.117510923686415 -0.986296517169206 -1.61941465960912 0.430075145434706 0.313274360074325 1.71984241139234 -0.0903618881104438 1.36604234424004 0.337369698004279 2.52439879578642 0.110781064640824 -0.305449211648248 -0.949246168437717 0.271074608593453 -1.55754160823937 -2.59145441711919 -0.253092579489745 0.50372410030578 0.965681679789401 -0.267776399163202 1.70847994106562 -2.21314043665866 -2.46608594912361 -0.389928418766787 2.50503865610069 1.71405871782097 -0.661243939601911 0.484300454404798 -0.185962396203845 1.11850283048732 -1.91791726832733 2.11582268965159 -0.935006635160852 1.18874893208358 1.94353187032989 0.179789694925276 -1.86521893673534 -1.63299599081696 0.5267907403927 -1.58049563406604 0.823386877102388 -1.16679172243722 2.45355748411603 -2.52077817018642 1.01568806776316
0.0104376449976998 -0.232925628049097 -0.210489422131413 -0.895913546023739 -1.42021700250404 0.993937060483736 -1.34379305742555 0.860243878976101 -0.216008806434439 1.89581170610526 1.84150077944416 -0.939961405501543 1.18974214872133 -0.13316147764875 0.148514812239292 -0.84244002722936 -0.862404890066004 -4.11412211432796 0.5619004214613 2.24190412418521 -6.55999508928813 -0.369528525500148 -0.0938544728392041 2.31381347155667 -1.55583825327559 -1.60506456895347 2.04115943510774 0.582986798917117 1.02696723439051 -0.0299659347432483 -0.67811525271414 0.19856927981731 2.63758872573376 -1.54815528678083 -1.06834474750547 0.146618367527916 0.109232747117518 0.0628012191311496 1.31066183921677 2.71818068399231 -0.76163415329838 0.0876331777360082 -0.333182401560478 -0.0754626101034553 0.0327599511042199 -1.20377033742759 0.323845188146929 0.306257823174452 1.78818204098007 0.351867112794906 1.2343571932633 -0.90066674198079 -2.44877677736937 2.5080663856182 -0.104325542160721 1.56639648294921 2.57542539696716 0.569355588333734 -1.68497338545523 -1.74318133116328 -1.31708830824617 2.00469349782269 -2.64942170769576 0.520486398700327 2.29097694508372 -3.19577647614947 0.505422055955716 -1.83609298096065 -1.96929971000164 -1.25287169755644 2.24573429458453 2.63208991024539 1.89395099970935 -2.79258734257331 2.65933844746227
-0.322970242193456 0.28562318831054 -0.111324081347769 -0.356602568149316 -0.273822345121447 -1.42233481908316 -0.765164790334256 0.677264732228073 -0.234768079621998 0.147645265599667 0.848293140550195 0.484629555439311 1.38907247468094 -1.36752741265828 -0.128273555955695 -3.58897713621801 -2.17892447058691 -1.01517796115966 2.2200456448492 0.831812377806266 -1.35550339783015 1.17887101595473 2.09121133158392 1.3193009984829 -0.223900546397967 -2.03557500192836 0.142870986607592 1.10283042215941 0.160396388025914 -0.368329877826011 -1.05710594717688 -0.334823278749741 0.869121122271884 -1.07172420375362 -0.167596244486417 -0.547853977932028 1.23042777833326 0.370016263517702 -0.417402441614339 -2.22297181584435 0.255355149102016 -0.199077072429154 1.30525609761473 -0.366127729106795 -1.08382175209414 0.638023033405062 0.26422365065157 1.38048010946816 -0.0768530619742692 0.396110376011952 2.73689753399964 1.17391187474092 2.27209400189804 -0.0212792100932266 -0.411595093906115 -0.531744996513024 -0.389151174682936 -0.315233796780588 0.539083692472462 -0.580057285489593 0.670117583355128 0.0826917771248447 -0.657530497225771 -0.891502820830726 -1.22110676286125 -0.135447701397877 0.604555515076641 0.439426242798149 0.586910557423125 -0.153332028631964 -1.16390926017322 0.420754644183065 -0.202822910688379 0.127555190103799 0.726367377907837
-0.587114702908596 0.337751249516167 0.202546774351609 1.73328001800776 -0.381042690834959 1.48185376961542 -1.50058553201338 -0.374583311702108 1.15177674484778 -2.08742949789905 0.257213027285911 -1.32356131421873 0.912035382951903 -0.116793329165068 -0.378413996321793 5.82935556857603 -0.457260690656693 0.44147026875469 -0.614974905251333 1.58412448719191 0.0370976570052001 -0.817569759207203 -0.548333745533903 -0.47931303107084 1.05675139223423 -2.07696022834881 1.00978353240568 -1.60779250799736 -0.447450394506032 -1.0905045599762 3.52085502184527 0.211765459970698 -1.63154434672254 1.93301272140411 0.540507825777277 1.51690174424005 -1.90876337447441 -0.3479035022105 -0.155210218520332 1.27340477389798 0.860574779781896 1.01745312917091 -1.72005632706477 0.23577183777726 -0.210171376834779 -2.32816613331415 -0.728105699856537 -1.09994898833615 -2.35881341004291 -0.256350165511049 -1.04196575692822 -1.31607760811596 -1.48514966505402 -0.088475727806396 2.07749321775861 0.623668571876302 -0.502170640578809 0.36464677445149 -0.716579450343115 -0.465808061587414 -0.734862298361182 1.9707629240543 -0.599319466195516 1.04506547729703 0.870054175126762 0.360888594903471 -1.38562385579351 -0.37090046543777 0.0823757887096764 -1.66628507467823 3.00492050182854 0.531599986369692 0.888215152917986 -2.1897007296959 1.23265923761336
-0.275719561163373 -0.0402835092853878 0.0105356039775038 -1.70218819777223 -0.292828958305257 -2.73836589025596 0.76995423882714 0.30267704965285 1.06897235346269 1.42226051424021 -0.224827685718632 1.8169459856168 -0.702122144741069 1.13119764578344 -0.755538070854408 -3.0928424143003 -3.6444782259172 -3.64698890685627 -1.49790258725155 3.12457135356983 -2.72408213402759 0.95330079602698 1.28620423303867 3.96989564283447 -0.839523883531362 -1.89924772659371 1.38990268346254 0.736958517684914 0.234375215262049 0.393327415388858 0.219756444464946 -0.462476427833344 0.307751890449101 -1.53494342290626 -0.559009474561258 -0.733695532349763 -0.0172356382418416 0.650064531725643 0.3643402991131 3.50512013574284 0.792253919237538 1.89984422221877 0.407898106581701 -0.340106893014761 1.15686161294118 -0.59778554684247 -0.946699749183179 -1.17421269365528 2.10888097181503 1.58656960503426 0.0945512414357103 0.77442872734559 -1.10818731282665 1.78647251537189 -1.19310000771408 -1.02326459064207 -0.311858454295373 1.53265077140255 -2.79405826993147 -0.951829097338271 0.455327479189117 1.34369201312355 -1.75629395050713 -0.379079654586131 0.870314627742357 -3.48959325177863 1.45155436296454 0.821049488426802 0.230540673989616 -1.79098042821416 2.99352589272892 1.49609330289228 -0.714667321910563 -1.80102675151301 2.29642253876416
0.760586172191605 -0.313649740941815 -0.455302796611529 0.493996079413747 -0.570297897155208 1.34486494977937 -1.18386152461089 0.157989065380494 -0.68346057342313 -0.71639973032505 0.938752216309894 -1.51971118721201 0.700341913832505 0.662406848960582 -0.325813366599421 -1.92264732436789 -2.2653479449109 4.2958085110748 4.55376278701891 -4.25119192387173 8.36180268442755 2.15482476178384 1.26912208957621 -4.18663618485034 0.0585187919195601 1.36569550260289 -3.1476112541977 -0.0976067388530091 0.650771070509111 -0.681724308355896 -0.269789571897756 0.75312689155624 -1.95879675901741 0.443418906833258 -0.31076984977965 0.952055354299498 0.728666457166124 -0.669071916240002 -0.619089439513285 -4.88071129507722 -0.581040217720015 0.309643707177179 0.50031559060693 0.0768412349058414 0.323594762828479 1.72161107234266 0.675846769567655 -0.74461551605117 -1.33987546956394 0.359855011966956 -0.431361981901685 1.92250488532639 3.94684468646873 -1.61785760033959 -2.59566896724241 -2.59655342627266 -0.0705204381617422 -0.757058877588111 1.18159586967642 1.24107882478302 1.06213913612345 -3.91142261652752 1.37354379094545 -2.18897413631814 -3.30131403571386 1.50290286609467 2.31134058581453 1.81578256203776 1.21826672377748 1.04556195706082 -2.21347133746446 -0.952427392734607 -2.50499571870009 7.12950134418923 -3.52863363332819
0.325435928850465 -0.196545822675426 -0.409630772106371 0.173401021092809 0.726176602151893 0.00243997563868782 1.59258161244832 0.0408990310639988 0.779976650878952 -0.218819020736953 -0.983912077330092 0.214960053997114 -1.92866395976525 1.35407437943186 -0.727788683000636 -2.55405259876725 2.02309795895742 1.37970517937596 -0.739330616235234 -3.55347021991634 2.4466198800424 2.31017073448091 -1.1251776679537 -2.15994202576032 2.01638789739593 4.04788436048799 -0.891583553428255 -1.67150389717708 -0.604701553660706 -1.01448710609737 -0.969605952515775 -0.0526754487856867 -3.37113461995689 1.82308371991045 0.804330898763401 0.952816143331624 0.393195260754687 -0.793015736710397 1.23376198318916 -1.75374187482856 0.795836749640606 -1.11368767097612 0.0353323384872623 -0.171736232656507 -1.02399529778276 -0.190230939465541 -0.126067036363364 0.843991944295231 1.18983727948911 0.912779716932304 1.1966866947699 -0.160331339149561 1.19943648817936 0.0863229442423566 -0.0851230110173033 0.756775799276394 0.32977877695511 -1.64193854009928 2.81013356991647 1.22915945379947 2.45735114486933 -2.57519091248007 -0.0093775797123141 -0.528939153083625 -2.84349001664574 1.10196653194382 -0.583740645974297 -0.647447150060538 0.253684961351867 2.69822019202878 -4.3332553237088 -1.54653883505897 -1.98897558099235 2.53525964414569 0.216295227178538
-0.583401260532456 0.420698337052942 0.168450621625233 1.70400570965736 -0.0694140930433783 -0.291280126561584 0.146658476716497 -0.129507941945299 -0.438291615559632 -1.73469720933763 0.288582012298951 0.905251016547472 0.331831801768062 -0.272910375301591 0.343661698407858 -6.91069775006327 -1.21245371964523 3.17067249497077 2.20293830458879 -2.6619293467785 3.99167236113222 1.49240377176318 2.1552986158515 -3.3590136745897 0.825404934930424 0.558413750266754 -2.49627325573461 1.03276275503031 -0.182438958253099 -1.34513722946339 -0.0656368873418016 0.0370310654677481 0.859772338900089 -1.29752196619351 -0.022364472176567 1.3702808056103 0.404741050642033 -0.18636940162387 -0.84656561722919 -3.31359078985208 1.28432321493829 0.672899001317122 1.7720450345511 -0.27602912182396 0.40224219677139 1.25860962551519 -1.02368136624905 -0.302759324911478 1.24389315284847 -0.267649129622511 1.29614848359479 3.77512002377047 5.51084515962058 -1.34682104405325 -1.11545504637552 -3.31093124211693 -1.17481021772107 -1.20778331316717 1.28278698159359 -1.00407671477909 2.46301708197679 -3.13323108165062 2.28569255948815 -1.76379385455144 -2.95839924238823 0.473439091825164 0.504579505885328 2.35821382909565 0.20586092461322 2.27416990951729 -3.8207036023726 0.0932458930355398 -3.43960357596678 5.63182012880542 -3.6342611814567