9.296094559 0.185534849 0.084525276 0.110873756 7.954876919 0.003880769 0.040181245 0.003087104 5.252750760
8.301724887 0.301213075 0.559409920 0.180001898 8.387133825 -0.295362122 0.265929767 -0.234956965 5.409445395
9.209431492 0.394805584 0.300718685 0.235931838 9.189221479 0.229556745 0.142954293 0.182609591 5.299783962
8.918558879 0.394104557 0.527969823 0.235512911 9.138804703 0.029440708 0.250983915 0.023419724 5.222155340
9.209141018 0.348142904 0.028554827 0.208046691 8.600301983 0.126263094 0.013574265 0.100440751 5.173138905
8.207071651 0.351820991 0.054493149 0.210244678 9.401374002 -0.132386073 0.025904708 -0.105311507 5.337403160
9.276557898 0.428980250 0.089611089 0.256354274 9.237138422 0.267092512 0.042598915 0.212468836 5.299897492
8.222590570 0.363552012 -0.067567499 0.217255018 9.413739330 -0.109351814 -0.032119933 -0.086988034 5.299379270
9.247797875 0.407054009 0.220779998 0.243251374 9.210873397 0.252719045 0.104953400 0.201034918 5.305309086
8.233506770 0.357359232 -0.099023005 0.213554275 9.418878738 -0.096163402 -0.047073110 -0.076496813 5.294906541
9.308190494 0.156717162 0.090118560 0.093652597 7.730434536 -0.048206079 0.042840155 -0.038347348 5.260250377
8.416293230 0.528581580 0.811307878 0.315875025 7.810335818 -0.074107650 0.385675883 -0.058951732 5.553921358
8.797269262 0.086514555 -0.153522870 0.051700226 8.924821776 -0.009342021 -0.072981010 -0.007431464 5.292225363
8.358637942 0.175299898 0.566547769 0.104757452 8.567750412 -0.262339437 0.269322925 -0.208687822 5.327669753
9.740915501 -0.024604053 -0.027603232 -0.014703134 6.601054415 -0.021878394 -0.013121900 -0.017403996 5.273384081
8.255874494 0.386671507 0.645481169 0.231070995 8.151048351 -0.313778958 0.306845929 -0.249607334 5.403200223
8.887678658 -0.051907414 0.140537412 -0.031019347 8.875492360 -0.026282640 0.066808042 -0.020907519 5.345796481
8.398269694 0.116614544 0.578190703 0.069687676 8.636809446 -0.254311190 0.274857691 -0.202301450 5.257807228
8.813734364 0.080348861 -0.139438678 0.048015670 8.915538253 -0.010311311 -0.066285730 -0.008202522 5.292893565
8.787419848 -0.048892335 0.282883263 -0.029217566 8.909202508 -0.139932175 0.134475771 -0.111314338 5.304979010
8.264999103 0.374690260 0.615648804 0.223911123 8.205214142 -0.318119520 0.292664354 -0.253060198 5.416670287
8.934067003 0.395658927 0.525264659 0.236441787 9.134003701 0.039946835 0.249697946 0.031777220 5.224089041
8.278892476 0.344769696 -0.173790777 0.206030895 9.426425845 -0.061129480 -0.082615876 -0.048627756 5.308500597
8.601483413 0.165411116 -0.350842486 0.098848016 9.088904732 -0.002337901 -0.166781920 -0.001859772 5.345335515
8.981836102 0.397394193 0.510771574 0.237478765 9.124626701 0.074109410 0.242808289 0.058953132 5.231976611
8.212581656 0.339945804 0.091277850 0.203148186 9.403371469 -0.133311214 0.043391253 -0.106047445 5.334210323
8.436320948 0.289712064 -0.368163959 0.173129010 9.374030378 -0.008908608 -0.175016124 -0.007086689 5.439805615
9.187242467 0.429060768 0.049690352 0.256402391 8.825054880 0.145615784 0.023621575 0.115835580 5.172566904
8.487828394 0.048978037 0.558536689 0.029268781 8.734386188 -0.267536404 0.265514654 -0.212821946 5.181798416
8.778050605 -0.047440805 0.294300612 -0.028350147 8.908665306 -0.148864294 0.139903299 -0.118419730 5.298621027
10.356404398 0.005396279 -0.001049614 0.003224762 6.183499941 0.039215423 -0.000498961 0.031195391 4.984676313
9.271792859 0.421086061 0.129696402 0.251636786 9.233094476 0.265277657 0.061654491 0.211025141 5.304701046
8.949886940 0.396742936 0.521407939 0.237089580 9.130003376 0.050988726 0.247864557 0.040560910 5.226426581
8.288996734 0.288044779 0.230631344 0.172132657 9.395644447 -0.065553647 0.109636489 -0.052147127 5.198885114
8.373054550 0.323715521 -0.297456250 0.193449133 9.424805114 -0.029763333 -0.141403412 -0.023676368 5.403512104
9.237132955 0.403099470 0.246248404 0.240888181 9.204093332 0.246495851 0.117060457 0.196084443 5.304398879
9.278423859 0.231422443 0.054467624 0.138295720 8.224308910 0.069472636 0.025892574 0.055264635 5.236226461
9.189786338 0.415708517 0.041250302 0.248423220 8.773725986 0.141377557 0.019609383 0.112464122 5.173290465
8.533402585 0.214632381 -0.406056607 0.128262148 9.207595035 -0.003339489 -0.193029360 -0.002656523 5.402865291
9.349991627 0.117973697 0.011123134 0.070499892 7.385452889 -0.101843849 0.005287665 -0.081015540 5.292441145
9.263654599 0.259378778 0.033512278 0.155002144 8.334880370 0.093838432 0.015930916 0.074647328 5.222610088
8.902152550 -0.049436051 0.121082161 -0.029542486 8.866294749 -0.013379199 0.057559492 -0.010642989 5.356218786
8.957883942 0.397098042 0.519083746 0.237301788 9.128317792 0.056682810 0.246759692 0.045090484 5.227720127
9.676655915 -0.010973399 -0.052669868 -0.006557593 6.701338889 -0.051194648 -0.025037964 -0.040724718 5.262284556
8.729199401 0.342158166 0.448797755 0.204470271 9.270682155 -0.067205101 0.213347454 -0.053460838 5.277335001
8.821910901 0.077329788 -0.132410490 0.046211502 8.911089149 -0.010827052 -0.062944702 -0.008612788 5.293378940
9.385857474 0.095800375 -0.019865750 0.057249339 7.268005675 -0.116364355 -0.009443691 -0.092566425 5.291770336
8.295692892 0.316094092 0.560321832 0.188894644 8.362803431 -0.301433827 0.266363267 -0.239786933 5.416213269
9.035675580 0.394214217 0.485360303 0.235578443 9.124175510 0.114259190 0.230728394 0.090891792 5.243636971
8.803976864 0.368485240 0.499403525 0.220203065 9.207229044 -0.039434224 0.237404197 -0.031369444 5.237353367
8.308630793 0.486695768 0.854332430 0.290844486 7.820138516 -0.200783126 0.406128701 -0.159720528 5.403563587
8.403011117 0.309398398 -0.335248973 0.184893365 9.407790929 -0.019770676 -0.159369146 -0.015727332 5.428586784
8.982221909 -0.002336646 0.040735988 -0.001396356 8.828869067 -0.026543749 0.019364890 -0.021115229 5.369414265
8.764082874 0.099288498 -0.182059038 0.059333806 8.945010056 -0.007532176 -0.086546405 -0.005991754 5.292111292
9.298796540 0.180411173 0.086541089 0.107811899 7.912104226 -0.006704964 0.041139513 -0.005333717 5.253347455
8.651317843 -0.014207648 0.449786114 -0.008490347 8.853028053 -0.229833934 0.213817296 -0.182830091 5.195271134
9.279840083 0.443876343 0.041228377 0.265256029 9.227809992 0.267232413 0.019598960 0.212580125 5.278084489
8.858800468 0.383761628 0.525144790 0.229332081 9.166550213 -0.008152656 0.249640964 -0.006485338 5.221106359
10.389546082 0.003804048 -0.005857032 0.002273261 6.207766051 0.015030667 -0.002784289 0.011956712 4.952607660
9.314370897 0.141337306 0.074332897 0.084461750 7.603209414 -0.071083866 0.035336038 -0.056546348 5.273738240
8.499347511 0.244691900 -0.402816388 0.146225413 9.275770088 -0.001675804 -0.191489039 -0.001333082 5.422732077
8.980674130 0.004203915 0.028281139 0.002512217 8.831777242 -0.029453923 0.013444160 -0.023430236 5.361810131
8.564658173 0.188165820 -0.388959018 0.112445998 9.145731444 -0.003697476 -0.184901585 -0.002941297 5.376793130
9.233009978 0.300795322 0.020087538 0.179752253 8.478406518 0.115338762 0.009549123 0.091750579 5.196223437
8.478154842 0.293395508 0.323495914 0.175330199 9.376037017 -0.050801176 0.153782030 -0.040411716 5.250226879
8.584816381 0.174631660 -0.369431809 0.104358120 9.112398694 -0.002980877 -0.175618829 -0.002371251 5.358965600
8.743695075 0.347218243 0.457951697 0.207494122 9.259375446 -0.063909092 0.217699014 -0.050838903 5.270330333
9.201214958 0.374085646 0.032351450 0.223549812 8.659617250 0.131950632 0.015379086 0.104965119 5.169527261
8.595774551 0.168403504 -0.357356302 0.100636237 9.096587468 -0.002539105 -0.169878429 -0.002019827 5.349842722
8.279993521 0.350483938 0.577146553 0.209445669 8.288875141 -0.315200992 0.274361328 -0.250738544 5.425651472
10.404021234 0.000116861 -0.000663992 0.000069835 6.217006259 0.000940602 -0.000315646 0.000748237 4.947009333
8.660139321 0.140041113 -0.283191997 0.083687157 9.024819301 -0.002521758 -0.134622535 -0.002006028 5.310802462
10.106928458 -0.048095611 0.069885931 -0.028741452 6.230770386 0.091609078 0.033222059 0.072873905 5.221259856
10.347896047 0.004869162 0.001610551 0.002909762 6.177771713 0.044043252 0.000765617 0.035035870 4.994692579
10.4063 0 0 0 6.2187 0 0 0 4.9469
8.800994448 -0.050730594 0.267154870 -0.030316092 8.908617759 -0.126456569 0.126998878 -0.100594658 5.312700807
9.210670024 0.477125094 0.029928920 0.285125147 9.053830588 0.206518163 0.014227475 0.164282680 5.164736703
8.664362432 0.322766047 0.414294858 0.192881737 9.311589313 -0.071285184 0.196945623 -0.056706495 5.294365298
8.335415240 0.285042747 0.252802542 0.170338673 9.396163402 -0.056364322 0.120176133 -0.044837131 5.200665260
8.210537699 0.365332816 -0.016620000 0.218319209 9.404291736 -0.121787934 -0.007900741 -0.096880816 5.311729423
10.061346917 -0.052038299 0.077190622 -0.031097563 6.259012260 0.085579453 0.036694530 0.068077411 5.243278404
9.684550969 -0.012853461 -0.049653225 -0.007681099 6.688524915 -0.047613990 -0.023603926 -0.037876348 5.263660430
8.755765473 0.102545207 -0.189346872 0.061279982 8.950409070 -0.007092640 -0.090010863 -0.005642108 5.292377696
8.924943184 0.038609066 -0.039241503 0.023072389 8.861095604 -0.022416742 -0.018654449 -0.017832245 5.315184578
8.229372669 0.359647309 -0.088400238 0.214921607 9.417344189 -0.101052774 -0.042023307 -0.080386249 5.296050540
9.190668066 0.446897359 0.058903932 0.267061358 8.898337429 0.157283781 0.028001486 0.125117329 5.163328075
9.279631039 0.447452928 0.033262910 0.267393360 9.223212240 0.266766888 0.015812372 0.212209806 5.270717321
8.942490497 -0.037566222 0.099181050 -0.022449195 8.841002157 -0.000206971 0.047148240 -0.000164643 5.376147406
9.306440455 0.162340555 0.090919916 0.097013080 7.772165870 -0.039487477 0.043221100 -0.031411806 5.257399865
9.598059055 0.010522237 -0.080405104 0.006287983 6.830046918 -0.086648016 -0.038222616 -0.068927439 5.257362595
8.784357891 0.361808016 0.486025914 0.216212824 9.224446488 -0.049118504 0.231044809 -0.039073171 5.247622476
8.646019975 0.145650494 -0.299044385 0.087039267 9.038382509 -0.002120500 -0.142158372 -0.001686832 5.317137561
8.528688292 0.298923220 0.350118189 0.178633504 9.362627644 -0.055361343 0.166437607 -0.044039273 5.269448859
9.138479423 0.385524396 0.401869160 0.230385493 9.155509335 0.185507887 0.191038750 0.147569261 5.277136513
9.606003286 0.008203504 -0.078020326 0.004902332 6.817152218 -0.083111635 -0.037088951 -0.066114292 5.256893565
8.796541811 -0.050161557 0.272237444 -0.029976041 8.908985060 -0.130942279 0.129415009 -0.104162986 5.310371733
8.245126680 0.446382804 0.771221129 0.266753865 7.937728677 -0.282335694 0.366619625 -0.224594601 5.339904774
8.463742097 0.271462524 -0.386879817 0.162223268 9.336019911 -0.003151185 -0.183913184 -0.002506729 5.436433132
8.851710641 -0.054431562 0.202852950 -0.032527753 8.894071671 -0.069758443 0.096431321 -0.055491991 5.328526660
8.341524196 0.505358345 0.844649567 0.301997054 7.813734103 -0.170119478 0.401525705 -0.135327970 5.464773173
8.773285121 -0.046644111 0.300331798 -0.027874050 8.908095031 -0.153277448 0.142770377 -0.121930341 5.295097444
8.404716569 0.525585088 0.818069524 0.314084351 7.809985516 -0.093506462 0.388890204 -0.074383250 5.546287520
8.328801326 0.233932009 0.564908779 0.139795411 8.484337509 -0.275106760 0.268543790 -0.218844072 5.375571012
8.361677290 0.285230095 0.264832074 0.170450630 9.394943264 -0.053184851 0.125894678 -0.042307900 5.206672647
9.334603253 0.126243702 0.031123574 0.075441964 7.449980042 -0.093299784 0.014795384 -0.074218840 5.289642461
10.175533974 -0.039772807 0.053399595 -0.023767829 6.190907524 0.094525499 0.025384859 0.075193882 5.172970033
9.307624925 0.158580309 0.090576760 0.094765994 7.744356193 -0.045365182 0.043057972 -0.036087449 5.259197199
9.275907539 0.427536212 0.096033021 0.255491332 9.236986167 0.266900943 0.045651745 0.212316444 5.301153698
8.873440372 0.386908482 0.528106056 0.231212610 9.158251723 0.000697953 0.251048677 0.000555213 5.220018177
8.430271780 0.533061328 0.800212278 0.318552077 7.812542150 -0.048389848 0.380401306 -0.038493533 5.558644671
9.273649913 0.423528843 0.115962873 0.253096568 9.235226321 0.266078039 0.055125908 0.211661835 5.303745046
8.208873365 0.347780660 0.068220448 0.207830217 9.402325945 -0.133816251 0.032430329 -0.106449195 5.339228389
9.517442007 0.034139705 -0.089189056 0.020401544 6.960926488 -0.118427983 -0.042398292 -0.094208016 5.271395005
9.273656806 0.241835569 0.046283435 0.144518499 8.267311894 0.079394830 0.022002011 0.063157619 5.231464902
9.050020383 0.392668579 0.476935142 0.234654785 9.126071760 0.124872017 0.226723278 0.099334166 5.247339205
9.310462795 0.149537429 0.085926397 0.089362060 7.674652259 -0.058895900 0.040847303 -0.046850970 5.265445659
8.378849977 0.518967955 0.829386212 0.310130020 7.811071977 -0.129799072 0.394269880 -0.103253579 5.520101638
10.402584518 0.000370954 -0.001235544 0.000221678 6.216016787 0.001882859 -0.000587347 0.001497792 4.947133562
8.971671422 -0.019164508 0.075748090 -0.011452517 8.828221687 -0.012263204 0.036008786 -0.009755229 5.378415655
8.231365447 0.358519088 -0.093687909 0.214247394 9.418134976 -0.098665672 -0.044536936 -0.078487339 5.295425076
9.228646980 0.476220023 0.018127204 0.284584286 9.114776513 0.228335124 0.008617228 0.181637806 5.180904921
8.758689885 -0.043962557 0.319733582 -0.026271581 8.905128697 -0.166171534 0.151993510 -0.132187429 5.283285190
9.381487067 0.098628242 -0.016615857 0.058939244 7.281248990 -0.114854699 -0.007898771 -0.091365512 5.292083666
9.286378131 0.209450251 0.071049794 0.125165359 8.119466152 0.044407026 0.033775331 0.035325248 5.245585397
9.813575839 -0.038403981 0.004947128 -0.022949832 6.502014018 0.011839671 0.002351743 0.009418314 5.278222271
9.285440686 0.212291806 0.069044833 0.126863444 8.134653973 0.048080399 0.032822221 0.038247371 5.244434470
8.254434589 0.456140602 0.802682327 0.272585026 7.897145168 -0.267458478 0.381575507 -0.212759957 5.335075661
9.233100687 0.401728324 0.255029490 0.240068798 9.201745468 0.244079521 0.121234770 0.194162282 5.303920296
10.115764529 -0.047248426 0.068035716 -0.028235183 6.225507862 0.092471340 0.032342512 0.073559823 5.216016001
9.191502540 0.448967438 0.058992031 0.268298416 8.906442263 0.159184827 0.028043366 0.126629588 5.162093454
9.732769739 -0.023048996 -0.030882606 -0.013773848 6.613148234 -0.025625510 -0.014680834 -0.020384781 5.272167068
9.613925503 0.005907134 -0.075492979 0.003530044 6.804248733 -0.079562977 -0.035887512 -0.063291378 5.256652405
9.466209398 0.051431630 -0.072963148 0.030735024 7.057120840 -0.128667594 -0.034684893 -0.102353501 5.281956502
8.287841265 0.334220366 0.565624365 0.199726722 8.328023587 -0.309053031 0.268883962 -0.245847917 5.422892192
9.394787852 0.090023196 -0.026356090 0.053796954 7.241460374 -0.119244211 -0.012529039 -0.094857316 5.291039405
9.279378497 0.438577081 0.055293183 0.262089243 9.233073446 0.267520845 0.026285024 0.212809569 5.287553277
9.319576109 0.135504995 0.060187514 0.080976419 7.545178809 -0.080003014 0.028611669 -0.063641422 5.280729004
9.189895105 0.444849209 0.058574327 0.265837404 8.890254477 0.155516636 0.027844800 0.123711587 5.164591330
8.979634727 0.005950051 0.025147825 0.003555691 8.832759175 -0.029856220 0.011954660 -0.023750259 5.359458245
9.226105447 0.476686882 0.019046453 0.284863277 9.108752679 0.226003757 0.009054217 0.179783232 5.178916741
8.771105808 0.357085078 0.476667646 0.213390444 9.236167414 -0.054810089 0.226596117 -0.043600757 5.255156997
8.242678070 0.441733282 0.758926379 0.263975357 7.954847184 -0.286865246 0.360775002 -0.228197805 5.343743720
9.084960250 0.388606986 0.452698067 0.232227618 9.134426163 0.149949973 0.215201567 0.119283375 5.257727593
8.311187594 0.285947945 0.241620342 0.170879610 9.396260879 -0.060455927 0.114860389 -0.048091952 5.197957499
8.259667493 0.293893522 0.212141246 0.175627807 9.394461183 -0.076052371 0.100846750 -0.060498733 5.209279789
8.681651822 0.327348097 0.422679637 0.195619924 9.302153661 -0.071604718 0.200931541 -0.056960679 5.292220879
8.337064186 0.335369578 -0.248816214 0.200413480 9.431135608 -0.040463946 -0.118281131 -0.032188575 5.363490824
10.088912192 -0.049720941 0.073265212 -0.029712733 6.241667523 0.089508552 0.034828486 0.071202961 5.230953284
9.275212796 0.426152334 0.102555320 0.254664340 9.236610746 0.266671301 0.048752286 0.212133767 5.302198033
8.206254966 0.360729966 0.015418641 0.215568592 9.400943226 -0.126449139 0.007329644 -0.100588748 5.322976536
8.419934659 0.529625767 0.808781511 0.316499021 7.810675658 -0.067623339 0.384474910 -0.053793541 5.555671098
9.288155151 0.204128972 0.074623431 0.121985416 8.089053136 0.037015022 0.035474150 0.029444999 5.247652876
8.962255673 -0.026832241 0.087907221 -0.016034677 8.831320650 -0.006065102 0.041788939 -0.004824715 5.378969120
9.265846341 0.255895273 0.035858487 0.152920436 8.321818707 0.091204652 0.017046246 0.072552188 5.224479984
9.443457107 0.061590124 -0.060027004 0.036805638 7.109125704 -0.128796310 -0.028535367 -0.102455894 5.285586801
8.538814469 0.300172806 0.355283812 0.179380244 9.359677307 -0.056601755 0.168893218 -0.045026006 5.272933004
9.215684987 0.331114412 0.025157105 0.197870636 8.560477588 0.122703119 0.011959071 0.097608835 5.179099978
10.403333928 0.000224421 -0.000925197 0.000134112 6.216525421 0.001361379 -0.000439816 0.001082961 4.947060094
9.005531820 0.396598398 0.500717968 0.237003206 9.123033965 0.091724491 0.238029051 0.072965714 5.236726666
9.278361678 0.452655661 0.023693880 0.270502461 9.214911435 0.265493652 0.011263490 0.211196962 5.258528809
9.217321638 0.477784569 0.023581128 0.285519243 9.082768534 0.216478547 0.011209890 0.172206044 5.171407333
9.271704002 0.461726029 0.013012591 0.275922821 9.194210952 0.260165478 0.006185867 0.206958465 5.232427256
8.907936864 -0.048212536 0.115546441 -0.028811326 8.862487379 -0.009389359 0.054927946 -0.007469121 5.360246302
10.276812618 -0.011830568 0.026423235 -0.007069828 6.153323863 0.075998433 0.012560958 0.060455826 5.077037977
9.206304740 0.356829963 0.030009731 0.213237989 8.620046781 0.128125388 0.014265891 0.101922183 5.171215803
10.374667310 0.005386258 -0.005314115 0.003218773 6.196845718 0.027393743 -0.002526200 0.021791388 4.965000846
8.481370772 0.052137433 0.562099146 0.031156804 8.728138686 -0.267067233 0.267208159 -0.212448726 5.184343800
10.270873076 -0.013905165 0.028188943 -0.008309586 6.153521243 0.078045964 0.013400333 0.062084612 5.083438395
8.569067769 0.304279140 0.370222056 0.181834147 9.350303235 -0.060684314 0.175994493 -0.048273632 5.282280082
10.406204226 -0.000006692 -0.000019424 -0.000003999 6.218625590 0.000019594 -0.000009234 0.000015587 4.946905363
9.207888316 0.475902700 0.033928899 0.284394657 9.037923887 0.201119816 0.016128967 0.159988360 5.161825396
8.205737338 0.358642900 0.026044800 0.214321382 9.400551418 -0.128025298 0.012381060 -0.101842563 5.327284132
10.226628297 -0.028509079 0.040025135 -0.017036738 6.164943035 0.089364140 0.019026968 0.071088084 5.128068239
8.242995028 0.410723384 0.698090235 0.245444155 8.056349632 -0.302563441 0.331854990 -0.240685527 5.373705597
9.970735083 -0.057531725 0.073836742 -0.034380379 6.328061469 0.068283933 0.035100178 0.054319036 5.265910872
9.304464596 0.167958350 0.090332577 0.100370217 7.813817394 -0.030211811 0.042941893 -0.024033127 5.255444157
8.974695588 0.011504927 0.015341032 0.006875229 8.836349828 -0.030256974 0.007292751 -0.024069054 5.351442094
9.284454788 0.215247488 0.066899960 0.128629729 8.149805119 0.051733043 0.031802602 0.041153005 5.243212524
8.913803350 -0.046830049 0.111148426 -0.027985165 8.858625046 -0.006059301 0.052837238 -0.004820100 5.364027423
9.878203750 -0.050749099 0.038404406 -0.030327150 6.423995160 0.039889845 0.018256514 0.031731885 5.274525978
9.315473631 0.139792949 0.071100601 0.083538857 7.588462006 -0.073423768 0.033799484 -0.058407712 5.275543620
8.855013253 -0.054421638 0.197571073 -0.032521823 8.892616851 -0.065620384 0.093920446 -0.052200215 5.329469826
8.676810624 -0.022796445 0.425783059 -0.013622926 8.866958921 -0.218690199 0.202406832 -0.173965386 5.211702294
8.282494847 0.471288946 0.847268994 0.281637524 7.838696293 -0.228254115 0.402770916 -0.181573365 5.358649367
8.241031850 0.436660439 0.747092002 0.260943877 7.972373514 -0.290674040 0.355149229 -0.231227653 5.348303357
9.223705418 0.477085385 0.020036146 0.285101418 9.102563028 0.223660445 0.009524693 0.177919156 5.176982221
10.183384397 -0.038428474 0.051335277 -0.022964469 6.186541940 0.094205104 0.024403533 0.074939011 5.166496266
9.327199104 0.130279073 0.043789845 0.077853461 7.489832955 -0.087883435 0.020816619 -0.069910200 5.286512394
8.893432498 -0.051022448 0.131892592 -0.030490500 8.871919804 -0.020678405 0.062698506 -0.016449419 5.349893533
9.187666013 0.436888750 0.055187816 0.261080314 8.857888344 0.149705536 0.026234935 0.119088928 5.169361624
8.373614706 0.150264977 0.570147018 0.089796836 8.598776290 -0.257312230 0.271033920 -0.204688741 5.299440951
8.683017640 -0.024767881 0.419228320 -0.014801036 8.870347599 -0.215723745 0.199290870 -0.171605608 5.216345336
9.225869059 0.311515842 0.021242545 0.186158728 8.509803349 0.118321964 0.010098185 0.094123679 5.189377724
9.192904201 0.404207422 0.037119549 0.241550282 8.737091764 0.138710922 0.017645724 0.110342846 5.171837024
9.574892786 0.017323062 -0.086230038 0.010352088 6.867421056 -0.096747687 -0.040991647 -0.076961605 5.259935021
9.484613270 0.044571392 -0.080975706 0.026635415 7.019838072 -0.126407510 -0.038493866 -0.100555632 5.278472531
9.372961909 0.104097005 -0.010032098 0.062207321 7.307669868 -0.111720500 -0.004769014 -0.088872295 5.292575339
8.864459041 -0.054148985 0.181496371 -0.032358888 8.888193259 -0.053638178 0.086278927 -0.042668516 5.332765291
8.608606731 0.310737881 0.388713304 0.185693826 9.336387636 -0.066122150 0.184784779 -0.052599364 5.291271575
8.919707323 -0.045291867 0.107731613 -0.027065963 8.854785242 -0.003437049 0.051212969 -0.002734131 5.367427163
8.428300258 0.288940849 0.297272940 0.172668139 9.386597117 -0.049584001 0.141316271 -0.039443468 5.230033400
9.781277021 -0.032140158 -0.010383979 -0.019206635 6.544200505 -0.003160081 -0.004936289 -0.002513806 5.277498498
9.427967359 0.069757523 -0.049791263 0.041686393 7.148519762 -0.127102148 -0.023669546 -0.101108208 5.287618607
10.397990523 0.001667040 -0.003386986 0.000996206 6.213161007 0.006174399 -0.001610090 0.004911659 4.948172754
9.368819924 0.106712653 -0.006665608 0.063770406 7.320851753 -0.110104483 -0.003168667 -0.087586773 5.292739584
8.810536116 0.370596445 0.503561517 0.221464700 9.201656948 -0.035936156 0.239380805 -0.028586774 5.234339669
9.300548751 0.176951817 0.087786174 0.105744623 7.883708763 -0.013656382 0.041731396 -0.010863486 5.253731904
8.930836942 0.036078139 -0.033532593 0.021559932 8.858382231 -0.023424258 -0.015940573 -0.018633711 5.317896399
10.334421930 0.003355444 0.006306712 0.002005180 6.169671231 0.051120766 0.002998056 0.040665946 5.010895533
8.973877763 0.397422145 0.513748194 0.237495468 9.125625286 0.068265084 0.244223301 0.054304041 5.230501556
8.315975877 0.264566968 0.562216704 0.158102553 8.440342565 -0.282780619 0.267264043 -0.224948533 5.391744752
8.215727373 0.332872823 0.110357090 0.198921444 9.403004871 -0.129464683 0.052461056 -0.102987576 5.322169579
9.207691402 0.352486640 0.029308930 0.210642464 8.610190723 0.127188502 0.013932747 0.101176902 5.172083476
9.240684779 0.290544699 0.020506805 0.173626584 8.445598022 0.111685709 0.009748432 0.088844620 5.203148323
10.329725584 0.002628609 0.008025189 0.001570830 6.167172996 0.053456742 0.003814978 0.042524186 5.016541074
9.303743891 0.169801260 0.089932031 0.101471521 7.827713137 -0.027005913 0.042751484 -0.021482874 5.254969405
8.453271194 0.543701016 0.771154692 0.324910248 7.823949726 -0.002088509 0.366588043 -0.001661384 5.552345045
8.221123442 0.364308217 -0.062401378 0.217706919 9.412750930 -0.111109044 -0.029664086 -0.088385889 5.300378502
8.722589060 0.115609950 -0.219495160 0.069087341 8.973454166 -0.005372417 -0.104342620 -0.004273692 5.295046392
8.739144681 0.109085395 -0.204202316 0.065188333 8.961640906 -0.006224188 -0.097072777 -0.004951266 5.293357094
10.288386018 -0.007918419 0.022786172 -0.004731967 6.153970275 0.071688732 0.010831988 0.057027512 5.064332506
8.206601348 0.353064854 0.049873351 0.210987998 9.401089382 -0.131734830 0.023708569 -0.104793450 5.336171540
8.550739048 0.199271345 -0.399023286 0.119082547 9.172106708 -0.003819626 -0.189685892 -0.003038466 5.389056471
8.706167280 0.122062002 -0.235259599 0.072943022 8.985841600 -0.004546042 -0.111836648 -0.003616321 5.297584939
8.246435900 0.402087186 0.681294779 0.240283250 8.086939885 -0.306200873 0.323870842 -0.243579059 5.383468145
9.204195163 0.393525488 0.309806697 0.235166866 9.186620361 0.226314068 0.147274512 0.180030081 5.298589238
9.837721464 -0.043226428 0.017273045 -0.025831678 6.471986851 0.022807810 0.008211182 0.018143335 5.277415655
8.274330614 0.360729192 0.589516995 0.215568130 8.258207949 -0.317907057 0.280241932 -0.252891186 5.424490572
10.395662869 0.002366909 -0.004352517 0.001414441 6.211755372 0.008693945 -0.002069080 0.006915927 4.949115085
8.283878225 0.342695166 0.570615315 0.204791177 8.308803574 -0.312426609 0.271256537 -0.248531557 5.424860804
8.300709515 0.481767326 0.854283778 0.287899299 7.823734893 -0.208438638 0.406105573 -0.165810394 5.388901040
8.926267749 0.394937847 0.526768534 0.236010877 9.136306899 0.034622030 0.250412852 0.027541402 5.223065213
9.773189194 -0.030621384 -0.013992321 -0.018299031 6.555194968 -0.006926101 -0.006651607 -0.005509629 5.276956147
10.233294737 -0.026546816 0.038310015 -0.015864110 6.162279516 0.088104739 0.018211642 0.070086245 5.121709477
8.618250132 0.312547140 0.393107750 0.186775021 9.332607211 -0.067321786 0.186873791 -0.053553660 5.292734828
8.968190412 -0.022271509 0.081121769 -0.013309229 8.829190741 -0.009631660 0.038563301 -0.007661868 5.378851204
9.329509088 0.128972727 0.039555647 0.077072802 7.476404152 -0.089726592 0.018803785 -0.071376410 5.287679905
8.246715320 0.351674091 -0.126203599 0.210156892 9.421968626 -0.082582536 -0.059994098 -0.065693400 5.294613692
9.312540088 0.144521411 0.079897667 0.086364539 7.632252637 -0.066313373 0.037981393 -0.052751479 5.270230660
10.320083604 0.000811869 0.011599587 0.000485165 6.162633611 0.058075805 0.005514159 0.046198595 5.028027355
8.217329942 0.329177559 0.120139857 0.196713191 9.402351050 -0.126351002 0.057111544 -0.100510681 5.313666944
9.210659313 0.343817245 0.027752301 0.205461720 8.590385169 0.125351761 0.013192764 0.099715797 5.174378034
8.555302075 0.195480832 -0.396111518 0.116817375 9.163186885 -0.003827617 -0.188301708 -0.003044823 5.385101680
8.541732052 0.026149813 0.524914339 0.015626864 8.782425710 -0.264069763 0.249531413 -0.210064276 5.170722612
8.973262791 -0.017608649 0.072839927 -0.010522751 8.827867089 -0.013632206 0.034626316 -0.010844254 5.378088063
8.764416146 0.354670181 0.471973784 0.211947325 9.242003871 -0.057376124 0.224364771 -0.045642007 5.258987550
8.250506154 0.296969170 0.204012716 0.177465783 9.394336510 -0.081096443 0.096982646 -0.064511231 5.216734634
8.207285250 0.362602779 0.004624909 0.216687766 9.401726767 -0.124912968 0.002198568 -0.099366742 5.318843072
9.163794729 0.386858257 0.370705288 0.231182596 9.167241391 0.201345647 0.176224209 0.160168006 5.286474392
9.251281952 0.276856303 0.024157185 0.165446536 8.398441836 0.105139628 0.011483734 0.083637291 5.212223413
8.805517819 0.083410678 -0.146474346 0.049845381 8.920114809 -0.009818138 -0.069630314 -0.007810209 5.292510275
9.953225771 -0.057598987 0.069480601 -0.034420574 6.344334600 0.064035188 0.033029375 0.050939211 5.267995557
9.275753080 0.457490076 0.016973731 0.273391458 9.205109116 0.263322316 0.008068896 0.209469690 5.245461682
9.264022121 0.466375654 0.011236579 0.278701390 9.178339441 0.254511266 0.005341594 0.202460608 5.216327014
8.307808609 0.285642780 0.560138700 0.170697246 8.410375859 -0.289542897 0.266276211 -0.230327843 5.401974010
9.302211093 0.173410898 0.088942596 0.103628605 7.855517195 -0.020452459 0.042281130 -0.016269682 5.254241188
9.188584115 0.440825807 0.057252713 0.263433060 8.874102036 0.152369699 0.027216537 0.121208237 5.167087635
9.215476518 0.477812894 0.024981674 0.285536170 9.075807465 0.214042395 0.011875676 0.170268114 5.169644943
8.569452267 0.015654114 0.507225962 0.009354741 8.803491138 -0.257835733 0.241122792 -0.205105180 5.170909351
8.205926913 0.355415927 0.040513853 0.212392976 9.400660141 -0.130293607 0.019259293 -0.103646975 5.333029809
8.245163833 0.404919460 0.687009607 0.241975788 8.076558661 -0.304955887 0.326587531 -0.242588688 5.380147669
9.291607739 0.194918532 0.080090581 0.116481350 8.028472904 0.022141414 0.038073099 0.017613225 5.250751270
8.456742445 0.065742960 0.573582765 0.039287331 8.703448095 -0.263727299 0.272667190 -0.209791850 5.197259181
8.315866653 0.339566699 -0.221115664 0.202921637 9.430436185 -0.046825287 -0.105112968 -0.037248944 5.340408902
8.276147477 0.290045883 0.223418568 0.173328496 9.395101675 -0.069415935 0.106207712 -0.055219530 5.201669179
8.714356575 0.118848168 -0.227318478 0.071022467 8.979577125 -0.004955219 -0.108061634 -0.003941816 5.296201303
8.916754293 -0.046080141 0.109330010 -0.027537028 8.856697288 -0.004657208 0.051972808 -0.003704752 5.365781969
8.218408853 0.365464924 -0.052177616 0.218398155 9.410742742 -0.114227000 -0.024803960 -0.090866185 5.302525245
8.350581618 0.509352976 0.840871319 0.304384205 7.812971926 -0.161178806 0.399729618 -0.128215775 5.479968694
9.829679763 -0.041621473 0.013104373 -0.024872573 6.481862730 0.019196746 0.006229498 0.015270777 5.277792203
9.209235833 0.476592490 0.031875174 0.284806868 9.045949909 0.203844838 0.015152677 0.162156082 5.163226045
8.440952246 0.286743004 -0.371820396 0.171354730 9.368184490 -0.007654608 -0.176754304 -0.006089147 5.439916736