4.9980310796 0.3240804609 2.5459953864 2.7331686405 6.9459414604 5.1257030620 1.9629722619 2.9441377921 2.5761361597 6.7234595667 1.5095544794 0.1017604340 7.4834061637 5.1708576211 2.9107363799 1.0725380082 6.0279662201 2.3909152325 3.5889108241 2.0808533717 5.0660834772 8.3286724678 2.1032569034 2.9625082551 5.9084105898 6.2397070295 0.3133608541 1.6653976714 6.1349899365 3.8066096045 3.1132642342 1.9325606215 1.3281235492 7.9469546131 2.2435031492 1.4608637328 6.0478247103 5.8802530681 4.0081155961 4.3974307443 6.1918515673 0.7399737297 0.5051724237 1.5964233043 3.1551967532 5.0970516276 2.2336318323 4.9236253716 8.8237899626 6.4383658100 2.5660834175 1.6478914442 7.0533898369 1.3875275194 3.3611883419 0.6833093056 4.3488348730 7.8813991519 3.5115409356 3.4878685994 6.7404443288 5.2412266009 1.1449809476 7.3860828559 1.0108842053 3.6329457225 6.3225252682 7.6990448142 0.5975915950 1.4352525094 4.6161151514 1.7968081219 2.7442969225 3.0763310726 4.2811997539
3.5341785155 -0.2709973068 3.1059180227 3.4340685035 5.9795033872 4.9555469861 1.0614858267 2.3456178062 3.6644006001 5.0695040663 2.5451542828 0.4977191421 7.8531561025 6.5741515502 2.2680263173 2.5494771477 5.0971034105 2.3387669615 2.2871656097 0.8632348645 5.9676590283 6.7036600338 3.4835986216 3.2763480349 6.1517013470 7.5141012686 -0.2225016466 3.7331512927 5.9557210107 2.9899359220 1.9856577641 1.0834044717 2.0931112928 5.6675383794 3.2199757380 2.1747184703 6.9881240046 7.3961559984 3.7903481328 5.0050782566 6.5107932372 -0.1147360578 -0.5335414004 2.0795626121 2.7679666126 3.4577192920 1.7549991009 5.3322123629 9.7725029919 6.4446070324 2.4545312408 2.9072611967 4.6362226686 0.8146050381 2.5909894319 -0.6282974662 5.4890753866 7.4616945797 4.8037495169 2.8752406965 7.3540095742 7.0351146668 0.6477647924 6.0328303096 3.6449681197 4.6656084680 5.4808568872 8.8465741652 0.3632493962 2.1197661999 4.0121101292 3.2930429015 0.9883725134 1.4389106735 5.3101564394
4.9721828870 0.3143038921 3.0082205176 2.9639069561 7.9836094743 5.7255910310 1.8300078814 3.3806382489 2.5048315081 6.7239466723 1.7752726192 0.2897047942 7.5873120772 6.5047373780 3.2134886555 1.5599074826 6.6804610158 2.9480244226 3.4465926394 2.0915673238 4.9820648763 7.8961516502 3.2938953559 2.9889691597 6.2523295026 7.7684066571 0.6629037879 2.3757961780 7.2796836636 4.0856360298 3.1949218304 2.4146286330 1.1962687288 7.1482601113 2.2202932675 2.1410500613 6.5693726734 7.7910585124 4.4041262651 4.7085953081 7.4839158470 1.0595689642 -0.0067725521 3.1781208287 1.8892521007 4.9915900584 1.9527123276 4.6681135912 9.3046303320 6.9792833287 3.7795122558 1.5238180064 7.6274600368 1.6432715476 2.8653495128 0.6493011755 4.8396030721 7.0806644564 4.6250559850 3.1628192110 7.4249629135 6.9793679526 1.3373122939 8.1695801519 2.7281016562 4.4228916402 6.4960177108 9.2856675384 1.0736180893 2.1689027940 5.3297116023 2.5448863895 2.6394324906 2.9508989535 4.0169492281
5.0103418698 0.0585150292 2.7613242521 3.2014895914 7.7312383202 5.4527211202 1.9432711000 3.2728729866 2.2990853836 6.3135302862 2.1253231946 0.4429100746 7.3447157558 6.2691551553 3.2816476209 1.6756992053 6.3519954862 2.7596749634 3.3859092716 1.8297338217 5.0386261599 7.6314526574 3.2970958147 3.1065332590 6.0721811126 7.8479990879 0.6065664772 2.5954587297 6.8166102308 3.9056076765 3.0919664267 2.2524700158 1.3105304491 6.7967902366 2.2948929941 2.2898336501 6.4013657342 7.5414159868 4.2963169183 4.5775378858 7.6817377503 1.0742969451 0.1014570184 3.3251259009 2.0872353333 4.8555897069 2.0069609772 4.6208579468 9.1630504330 6.4194435781 3.8541165145 1.7279309483 7.4639088116 1.6260818491 2.9080570027 0.3660881439 5.0567705809 6.6491279256 4.5384476989 3.1631971023 6.8242086140 6.8731243030 1.5498166966 7.8816476083 2.8998893585 4.6068082911 6.5123306267 9.3156618616 0.8897949668 2.3065344122 5.0590971413 2.2077186441 2.4286192410 2.7362076842 4.2206078658
4.9802038308 0.5698430764 2.5466603457 2.8071837485 7.6737523445 5.2835089087 1.8483117386 3.3112723272 2.3849207657 6.6792816014 1.4265619312 0.2509696123 7.4542896265 5.8304800902 2.7974895262 1.1856558513 6.5728003967 2.6013344522 3.5985897528 2.2116083619 4.9631151778 8.0713670640 2.7478336066 2.8240173978 5.8526187976 6.7927863854 0.2890280834 2.1303390242 6.6559394811 3.8524664722 3.1052970705 2.1928609037 1.2524502127 7.5678276239 2.6709196579 1.3304258876 6.1549346379 6.7860335960 3.9687749746 4.3668849865 6.5809908327 0.5695864681 0.4008172297 2.2210357012 2.5349442368 5.1201482150 2.5623364334 5.0114352480 8.9029527194 7.0344056449 2.9945496532 1.6578501782 7.6643402739 1.6229149889 3.5783667354 0.7508503520 4.5111531707 7.9363323179 4.1478319730 3.4627382203 6.8397329935 5.8145711147 1.0143841360 7.3790901317 1.6194020521 3.5994242070 6.2835206685 8.2280417491 0.7348466544 1.3310909034 5.1098114752 2.0342341273 2.7867479228 3.1105400877 3.9546985014
4.9008802658 0.3827143608 3.0478618240 2.6915894900 7.9009605193 5.1419524573 1.7078346250 3.0865895805 2.3923958276 5.4790945324 2.0424361529 0.2493840105 6.8028589423 6.6657824378 2.5317312086 1.8213778947 6.2329127512 2.5264979231 2.4693346685 1.5656665636 5.0579901489 6.6581367736 3.3767104880 2.9648501492 5.8594247880 8.2482357660 0.0147877277 2.6676306595 6.4966911513 3.8383669979 2.4693160514 1.7322678168 1.2751609879 5.6110041597 2.4697536054 2.2158459472 5.8986295989 7.8189888455 3.7922032333 4.5293900624 7.9225798533 0.7116960497 -0.2013934516 2.8231187288 2.1664378396 3.8359035758 2.1013993196 4.5474920373 8.5654263717 6.3493396851 3.1592589838 1.9336707407 7.3848921263 1.5439996998 2.2713358121 0.1033769069 4.4838553653 6.1293217073 4.8869959608 2.8106089803 6.9451961477 7.4938260702 0.8200024754 6.7156937836 2.9529645705 4.4781576039 6.1693779958 9.7402440620 -0.0730109670 2.3833428198 4.8684650357 2.0108260541 1.4360588432 2.4267981458 4.3477964639
4.8892637725 0.4996220003 3.0999975251 2.8973729441 8.1804641897 5.7233172036 1.7863148707 3.4826746746 2.4360285590 6.8360380483 1.5926501871 0.1484417093 7.5993976530 6.7105716883 3.0208199991 1.4497373481 6.8230690952 2.9758326004 3.4954739187 2.1282965266 5.0421310590 7.9725415639 3.2683452571 2.7303733532 6.2107027083 7.6793988642 0.4818586251 2.3806461125 7.4962129871 4.0125828783 3.0196621355 2.5620849831 1.0731213108 7.0715055483 2.3571617693 1.8624711529 6.5375631210 7.8647330478 4.2148163565 4.8173089943 7.2827650790 0.8852032584 0.0788066529 3.0972676481 1.9641508571 4.9842201954 2.1392048871 4.7206636972 9.2640767867 7.1685658331 3.6124932256 1.4374848899 7.7857370453 1.7241197680 2.9138222737 0.6657566878 4.7019573932 7.3749839423 4.6772334997 3.0479428179 7.3639213588 6.8515992996 1.1912327072 8.1058409005 2.4830320312 4.1159306487 6.4115161453 9.1438745300 1.0975074159 1.8965816966 5.3956848159 2.6075031453 2.8596529846 3.1571184200 3.9832731924
4.9462696841 0.3300648932 2.8167358438 2.7236071186 7.8977326169 5.1999291850 1.6192634547 2.9975930627 2.3322197674 5.5755571589 2.1622098399 0.2230978454 6.8441592809 6.6672261749 2.3918222701 1.8480733191 6.2046828121 2.5846383351 2.2944064348 1.6386106701 5.0090569698 6.5641895907 3.4230541326 2.7566233822 5.9897567201 8.2342947041 -0.1890581540 2.7182950233 6.7109906404 3.7293959729 2.2479213109 1.6125670917 1.3385947516 5.4777502234 2.4839232974 2.0585186280 6.0201380811 7.8808145590 3.5892854160 4.5307276468 7.9674396815 0.4662788927 -0.3552071198 2.6540198300 2.1245556411 3.8038509867 2.1543409106 4.9240507614 8.6038805065 6.5072775173 2.9715509054 1.9456237877 7.3112548859 1.3936045783 2.0753389959 0.1598559835 4.5413318420 6.1553569209 4.9158339074 2.7535074788 7.1081299885 7.6459644319 0.7345297912 6.4646512658 3.1467009865 4.2946588729 6.2178833537 9.8082901357 -0.1575256524 2.2605912450 4.7737119339 2.1295253094 1.2552712943 2.4882843551 4.2436508808
4.9444558616 0.3852827006 3.0504962069 2.9229739649 8.0612164385 5.7522364052 1.8012573137 3.4134029119 2.5039250590 6.7804027424 1.7111618409 0.2444283438 7.6065596065 6.5937322685 3.1491208724 1.5102481095 6.7608889888 2.9331588767 3.4333554923 2.0944143734 4.9719000657 7.9466635839 3.2770302434 2.8896309258 6.2731825589 7.7440114457 0.6092647969 2.3652479983 7.3631917134 4.0844664196 3.1741414097 2.4755608350 1.1190268335 7.1266593335 2.2442968397 2.0345805332 6.5861567455 7.8455544470 4.3825715349 4.7199783918 7.4272797705 1.0301079630 0.0253322234 3.1803259356 1.8973203369 5.0286305302 2.0098647114 4.6910601861 9.3384851944 7.0545793878 3.7309784674 1.5050716528 7.6773446517 1.6662355568 2.8714184224 0.6673626105 4.7903572862 7.1858070242 4.6025183590 3.1418629567 7.4451941719 6.9881070298 1.2529600845 8.1630144097 2.6917545720 4.3176132682 6.4708960280 9.2023722623 1.0708471971 2.0856932062 5.3631265680 2.5962523135 2.7131654457 3.0405700205 4.0213681160
4.9488924238 0.3272340858 2.7515203147 2.7270920186 7.8864182305 5.2244631305 1.5777399899 2.9840435337 2.3388841257 5.6098052619 2.2100448558 0.2141929359 6.8579496777 6.6506905384 2.3630862619 1.8642205496 6.2024475544 2.6068892428 2.2709549737 1.6670430915 5.0175751066 6.5336682226 3.4169394749 2.7181280162 6.0248415264 8.2492326467 -0.2204232160 2.7335334041 6.7789304518 3.7044588502 2.1635516573 1.5694079486 1.3487566704 5.4649014936 2.5114187462 2.0452580857 6.0392108106 7.8370648891 3.5384085291 4.5735006474 7.9817248500 0.4035910864 -0.4112955876 2.6572061476 2.1346191753 3.7485971524 2.1497747744 4.9549102752 8.6075303291 6.5555951848 2.9230109380 1.9284718733 7.2415048720 1.4033740727 2.0545528845 0.1651641798 4.5449113495 6.1786129820 4.9533934757 2.6869870389 7.1313631240 7.6488326417 0.7069301705 6.4154173974 3.1585537281 4.2541675918 6.2394134426 9.8015035713 -0.1533095583 2.2258001296 4.7678952781 2.1525311373 1.2540658020 2.5393619581 4.2275815296
4.9340920810 0.2391709762 2.6318816444 2.7563963858 6.6720351835 5.0450308155 1.9875483820 2.7938887303 2.6004897027 6.7663257950 1.5602768956 0.0216229989 7.4536266301 5.0138219782 2.9305110027 1.0513455764 5.8175403108 2.3205421871 3.5165361594 1.9867561643 5.0716362296 8.3365411347 1.8996300925 2.9242304931 5.8414374580 6.0335917462 0.2862998727 1.6590459063 5.9341448920 3.7403168541 3.1752621952 1.9248543257 1.3170221506 8.0567011124 1.9711297896 1.3936284448 6.0356673657 5.7753900037 4.0277373568 4.2965849720 6.0889349170 0.6541297529 0.5409996052 1.5960933173 3.1994116106 5.0819250344 2.1721506809 4.9830306331 8.8475303814 6.1697378754 2.3808719215 1.6467161622 6.8469603547 1.3273189896 3.2598320461 0.5843470024 4.3434876601 7.9475907564 3.2813308571 3.6078212362 6.6361062366 5.0113693935 1.1425903102 7.4246243829 0.8610218331 3.5835290311 6.4112125673 7.5044625123 0.5101430195 1.4803665098 4.3723197706 1.9180386052 2.7504193247 3.1420362363 4.3340270325
3.9317914579 -0.3854908256 2.9958336287 4.0818718969 5.9341381024 5.5156671095 1.0708772039 1.9206941359 3.4213517102 5.0457328068 2.5497167871 0.8932710584 8.1229540720 6.3529879425 2.8982667934 2.4919812583 4.9343821004 2.6599897264 2.5730518384 1.1608445402 6.0451685951 6.6517061432 3.4349920959 3.5443682817 6.6503627465 7.4549248258 0.2877137260 3.6312225216 5.1913325825 3.7000684053 2.1946841760 1.0338414933 2.0703085213 5.3997746653 2.8357166898 2.7203951367 7.1653277672 7.4449507848 4.2546692364 5.3032437064 6.6830407503 0.6613002712 -0.6762069608 1.7533411996 2.7189152414 3.7762244969 1.9706389455 5.5336640365 9.9104985069 6.7121808601 3.4958222894 3.1495045791 4.7129704654 1.3043244445 2.7247892152 -0.2775049586 5.4643194359 7.1625205616 4.7015610338 2.9033929711 7.9617971366 6.9031959737 0.8482846296 6.1382785773 3.6207933540 5.0057139886 6.4715244727 8.7922520444 1.0039090190 1.6054975989 3.7491632282 3.0082504979 1.2441300258 1.7890549078 5.4310778529
4.9988540116 0.0388141010 2.1282090558 3.1840282992 7.0869468290 5.1891926482 0.9471767443 2.6719570892 2.6427504126 5.9283231317 2.1039428562 0.0192475100 7.4215191717 6.3518729982 2.3426492762 1.9447028935 5.7382753694 2.6108852805 2.4638337806 1.2598315515 5.4350441465 6.5245227696 3.3390735717 2.6482553630 6.4859471827 7.8832680110 -0.2999145948 3.0839257507 6.2221901217 3.5008449552 2.1625718059 1.7155514045 1.6383993553 5.5936893609 2.3286256358 2.0422336701 6.3306316975 7.5014106201 3.4731864873 4.9821689591 7.5971463910 0.1645358647 -0.8751478825 2.9127041135 2.1865260446 4.0052641096 1.5203313278 5.4036526096 9.3484063231 6.3801614916 2.8573712766 2.3427202860 6.2942820423 1.2010512365 2.0761620615 -0.2440023323 5.2545937975 6.3298060167 4.8436413070 2.2193011382 7.4761143471 6.9396375332 0.4628351984 6.3867850354 3.4758117228 4.2182511138 6.8820833996 9.3967483645 -0.0717718683 2.0310609245 4.2246091017 2.6489816919 1.6774359057 2.0714764581 4.3991267617
3.7142311878 -0.1918886379 3.1571130762 3.3356084771 6.0546729462 4.9581662242 1.1867418103 2.5102453009 3.5042153959 5.0556315002 2.4356255106 0.4999203704 7.7943525010 6.4846348149 2.3733520032 2.4571571461 5.2879627293 2.2142452030 2.3757081063 0.7704410893 5.8642089797 6.6828874483 3.5129094006 3.2252545790 6.0523068027 7.7155333314 -0.1339274354 3.5123648754 6.0741925021 3.0011983159 2.0260312182 1.2347662962 2.1357006801 5.7613517994 3.1331027352 2.1190407897 6.7847563524 7.5150022485 3.6557911871 4.9623420294 6.5708165882 -0.2167728016 -0.5655537255 2.2426988601 2.7500050097 3.6364478920 1.6253542788 5.3227073630 9.6186053514 6.4319487464 2.5287652031 2.9749787659 4.7790291603 0.8561014523 2.4030890418 -0.7871155731 5.5917760627 7.6008366729 4.7987876686 2.9155652236 7.3245379801 7.2613784587 0.6676343311 5.9192368003 3.5723580386 4.5763848720 5.4732167254 9.0481694295 0.3445141178 2.2991012939 4.0708754381 3.2952162267 1.1646256275 1.2714141483 5.0438311042
4.9190656922 -0.0922227671 2.8099729640 2.5656986036 5.4708326054 4.9817068177 2.2371416889 1.9039080238 2.9266261236 7.2316966570 1.5189180280 -0.2769723008 7.4281461933 4.4045631649 2.7341263031 0.9586965652 4.7204710860 2.2287462756 3.9347373215 1.9439006942 5.2005282402 8.6593126648 1.3554572433 2.6353322935 5.8608623745 5.2736288246 0.3421219166 1.3778789304 5.0909784690 3.6694853006 3.7553070239 1.7608301312 1.4909444173 8.5508983633 1.7309602501 1.1354595674 6.3154601933 4.9443677902 4.1527055049 4.3572123060 5.3224768705 0.7022619104 0.3861028305 1.2072735722 3.1250316957 5.3751880977 2.0556187934 4.7835436405 9.1680114075 4.7508641663 1.9456689063 1.4472846605 5.7431691557 1.1742050220 3.2851996425 0.7753447769 4.2368945825 7.9146181484 2.6326445334 3.3893843042 6.4689301006 4.0294641463 1.1115014066 7.8005260759 0.1773438707 3.3562957379 6.5313399056 6.5025378191 0.9113426523 1.6010456511 3.3736927461 1.9666928834 3.2080844723 3.1965225087 4.7013502045
3.4277658374 -0.2376031753 3.0176361010 3.5850543380 5.8219228664 4.9903077478 1.0756871111 2.1482447884 3.6741271057 5.0208998924 2.5427045791 0.5333331182 7.9394757603 6.5067581152 2.4113280654 2.5711850896 4.9324687016 2.2437895958 2.3567883856 0.9517406137 5.9818612305 6.7108336083 3.4727615734 3.2773821018 6.1676907075 7.3642644853 -0.2072694192 3.7560335450 5.5734589582 3.0595382926 1.9683448318 1.0794927103 2.1006293158 5.4751710272 3.1271980871 2.2703534897 7.0730615851 7.4334836748 3.7776002802 5.0439713714 6.3148376503 0.0993262378 -0.5880716786 1.8274324473 2.7647837623 3.4335404653 1.8431211293 5.3828983284 9.7621777844 6.4972665202 2.7473395263 3.0932590135 4.5165221090 0.8750242401 2.7187502064 -0.4155317425 5.2655567409 7.2908562297 4.7729105111 2.8950889064 7.3641407137 6.7989246150 0.6006873614 6.1189541452 3.4804409926 4.7330083174 5.7624791979 8.7490605598 0.3509969512 1.9105489203 3.8931986920 3.1865250387 0.9307539533 1.5108157702 5.5200657173
4.5874115152 0.1189292056 2.5941375468 3.4465412902 6.7911172453 5.1481835548 1.1618371009 2.3830008064 3.1391645870 5.4541775867 2.0087023953 0.2391830805 7.7519553288 6.5317699255 2.3849267928 1.9867185941 5.6233768296 2.4790344659 2.4891884224 0.9702727771 5.5577999029 6.8264868977 3.3975603715 2.9955397719 6.6065907631 7.8519487573 -0.0954107390 2.9241158812 6.4621199858 3.3596925701 2.5321692356 1.4864029937 1.7352695174 6.0340120508 2.6771025652 1.9298746133 6.7880398251 7.6895363448 3.6613068835 5.0839803686 7.4504471014 0.3444378213 -0.5792253028 3.0392741089 2.9008420130 3.8902137554 1.3412326102 4.9780130737 9.5383621064 6.3868711226 2.6337690763 2.4832623492 5.5448750659 1.0502694002 2.2703817939 -0.5658346561 5.4409424191 6.8445416102 4.9553333909 2.6720054743 7.6081248716 6.9392188602 0.5889840440 6.0159288294 3.2210996553 4.3068526072 6.7287707938 9.2960672183 0.4509115493 1.7581289131 4.1710019651 3.0443962774 1.3156096846 1.5308370940 4.7569114497
3.8124024786 -0.1331149190 3.1553868129 3.3294866597 6.0822881151 4.9285301323 1.2603647871 2.5439175935 3.3807854781 5.0595808179 2.3756465239 0.4948397426 7.7470703317 6.4721634289 2.4316354326 2.4032754636 5.3098646139 2.2236754476 2.3832709007 0.7403103277 5.8287023339 6.7422525212 3.4613381970 3.2000193282 6.0384546697 7.7113608581 -0.2027760760 3.4544100562 6.2146791986 2.9948925022 2.0731923276 1.2838664077 2.0772178404 5.7497293956 3.1036248792 2.0678791109 6.7144910372 7.6487179521 3.5851386664 4.9307397816 6.6565891189 -0.1376001499 -0.5649073600 2.2897283277 2.7957785889 3.6629578900 1.5217185310 5.2396473906 9.6301828863 6.3807252161 2.6239453859 3.0293161480 4.8160513531 0.8210942793 2.4220323300 -0.8119146498 5.5825174692 7.5469076558 4.7386544509 2.9428308380 7.2713539521 7.3453105290 0.7175743547 5.8843511214 3.5115593928 4.4803880170 5.5633711200 9.1348470985 0.3549047832 2.2540025117 4.1288164710 3.1583121637 1.2638790791 1.2540313180 4.8810240857
5.0023031621 0.0343401644 2.1331387811 3.2031379490 7.0708240520 5.1897883035 0.9562710160 2.6595123795 2.6494537677 5.9347168318 2.0935389876 0.0269510768 7.4331565702 6.3531405644 2.3570079626 1.9539592659 5.7331278440 2.6098394562 2.4764633606 1.2537539770 5.4340729027 6.5333976549 3.3353813886 2.6632808063 6.5009213877 7.8699751652 -0.2896458427 3.0936681371 6.2132090533 3.4983376560 2.1743203235 1.6946039842 1.6526980998 5.6040132752 2.3299492351 2.0427676362 6.3505598856 7.5052226725 3.4673009636 4.9857228968 7.5841538460 0.1687940828 -0.8743436207 2.9235123837 2.1955123504 4.0056167799 1.5030482123 5.3927834399 9.3742423912 6.3803775721 2.8596626313 2.3444375228 6.2662754466 1.2147065339 2.0753438379 -0.2605945749 5.2977909768 6.3381242731 4.8515530627 2.2312723889 7.4898925395 6.9459436301 0.4735024244 6.3913539334 3.4704945193 4.2322996665 6.8966709839 9.3741946789 -0.0629220545 2.0319158993 4.2141812121 2.6371528244 1.6801350234 2.0636799957 4.4130612841
4.3722535868 0.1203901772 2.8937207842 3.4524901789 6.5907064546 5.0147825080 1.2477495008 2.3823065313 3.1455470384 5.3109516626 2.1014026817 0.3037668908 7.7143973592 6.5944677112 2.3670751152 2.0953441963 5.5899442537 2.4143619836 2.4420496898 0.7787157914 5.6089646818 6.8322821886 3.3690270849 3.0421659159 6.4062150371 7.9194765264 -0.1503030386 3.1604293847 6.4997729873 3.1112619510 2.4102079112 1.4123603032 1.8305353437 6.0863030978 2.7131670840 1.9184613103 6.7755708317 7.7492750510 3.5995730872 4.9915982141 7.3682684992 0.1652607998 -0.6467817552 2.6132163544 2.9505145932 3.7724866818 1.3245333629 4.7722251700 9.6084498094 6.3741110183 2.4784660632 2.6902337993 5.3961861560 0.9373743603 2.4501889662 -0.7696137092 5.5120126679 7.1051049107 4.9257000224 2.8848806831 7.5569397022 7.0975623853 0.5011716789 5.8959935579 3.2704861640 4.2837683505 6.3948230260 9.3903260132 0.4594443394 2.0075774395 4.3174946436 3.2789251360 1.2504300585 1.3945723207 4.8784827472
3.4405215010 -0.2494175299 3.0381326679 3.5554076491 5.8578007847 4.9818090224 1.0616383125 2.1852777777 3.6860185444 5.0353065002 2.5531730202 0.5167067932 7.9223028295 6.5327126243 2.3669419912 2.5948006945 4.9726755626 2.2413519654 2.3217250423 0.9278036775 5.9779047825 6.7159456136 3.4771609187 3.2682166504 6.1548451163 7.3994251762 -0.2366186454 3.7541381272 5.6643981915 3.0250955447 1.9630251597 1.0681966679 2.1357467244 5.5172085689 3.1674912145 2.2582888086 7.0953377591 7.4261507992 3.7586660825 5.0082972420 6.3475788340 0.0601110306 -0.5698709200 1.8580826223 2.7833741305 3.4326796336 1.8265098745 5.3565813716 9.7615240680 6.4881026202 2.6681906925 3.0395639491 4.5427990178 0.8783118959 2.7087447377 -0.4597970245 5.3112806372 7.3254120466 4.8106834343 2.8763634830 7.3492084945 6.8641543466 0.5850984548 6.1049479620 3.5212120248 4.7162567333 5.7168352072 8.7339285283 0.3395624485 1.9290403189 3.9014569436 3.2370957237 0.9231772781 1.5019018798 5.4946809049
5.0120997767 0.0674502124 2.7706257955 3.1970233561 7.7418564331 5.4628569963 1.9380883643 3.2764450505 2.3009449040 6.3396341806 2.1102960450 0.4383295778 7.3606871621 6.2737556058 3.2873817961 1.6713634046 6.3551655535 2.7769237420 3.3909548726 1.8309193741 5.0467410884 7.6501622622 3.3006320947 3.1086491681 6.0929305744 7.8421381476 0.6071638106 2.5836960695 6.8404069809 3.9102792925 3.0822418764 2.2740146014 1.3230692741 6.8164389135 2.2906840590 2.2991226042 6.4131024253 7.5411303133 4.3040325291 4.5774842900 7.6665696078 1.0795484132 0.1015246644 3.3126200324 2.0866960262 4.8718886713 2.0059499148 4.6056112800 9.1640093450 6.4493856819 3.8545146892 1.7155798700 7.4701178835 1.6301580574 2.9056702859 0.3767796844 5.0520835011 6.6714417921 4.5376674591 3.1644896566 6.8517417323 6.8784826218 1.5565527615 7.9051785884 2.8946066529 4.6013478462 6.5127575781 9.3215854523 0.9169590055 2.3039552639 5.0663424696 2.2268477113 2.4476291984 2.7370346938 4.2203008391
4.9522873818 0.3320366029 2.6154342229 2.7264198493 7.8703360584 5.2984441320 1.4710726842 2.9686854903 2.3796743039 5.6877554893 2.3029701785 0.1803098616 6.9160992180 6.6151473529 2.2957985182 1.8663261978 6.2144991207 2.6248381746 2.2151582598 1.6629184277 5.0981674658 6.4830589750 3.4539956120 2.6921171934 6.1148029332 8.2972912232 -0.2676928469 2.8026942663 6.8849589104 3.7001713515 1.9712667543 1.5152907949 1.2873264676 5.3783443181 2.5575715715 2.0339795325 6.0547781200 7.7807796767 3.5432712584 4.7452043692 7.9993116378 0.2832633548 -0.4716607065 2.6984659118 2.1510072897 3.6524204114 2.1590440642 4.9645340305 8.6480119583 6.6452313959 2.8844327566 1.9215524193 7.0872934876 1.4068302387 2.0516719210 0.2098526725 4.5659674556 6.2251483129 4.9589703189 2.4958568323 7.1445573508 7.6072207025 0.6183459049 6.3800737015 3.1859416933 4.1734274866 6.3054445568 9.8006008431 -0.1635838657 2.1856828447 4.7522222468 2.2225130486 1.3237314608 2.6400623435 4.2799453815
4.9300038077 0.1199647427 2.1131055070 2.9419385937 7.3492819779 5.1863352310 0.9169923091 2.8152945108 2.6551040557 5.8039397222 2.2455302310 -0.0390293850 7.2956300018 6.3891708717 2.1580544968 1.8601568601 5.8944581792 2.6437335021 2.3295680390 1.4478159334 5.3571339671 6.4346786145 3.4274841542 2.5002163833 6.3757907193 8.0033897423 -0.4277451892 2.9338874146 6.4524311595 3.6017168606 1.9273630890 1.8098854664 1.4386439857 5.4638567457 2.3647616801 2.0177958592 6.2080822959 7.5859810195 3.3730107590 4.9144600227 7.8745348960 0.2884673474 -0.8383113796 2.7510876355 2.2062471022 3.8222986688 1.6342046951 5.4148704057 9.0221455375 6.4093427737 2.7843199776 2.1212296620 6.4422609771 1.2740891461 2.1438797573 -0.0396730277 4.8512697695 6.1296620823 4.8937629018 1.9441618985 7.2682020910 7.0433379053 0.3597832662 6.4393342438 3.4428392005 4.0601757304 6.7231719528 9.4825188657 -0.2402457096 1.9523609270 4.3700155270 2.7013826630 1.5691130114 2.2247462641 4.2916979411
5.0154393176 0.0977655343 2.8023513288 3.1748084280 7.7736327841 5.4953431694 1.9212732354 3.2878363080 2.3150770672 6.4154583240 2.0618104588 0.4214585776 7.4084966409 6.2886153622 3.3000578243 1.6528596665 6.3779546717 2.8265788416 3.4043087763 1.8515022844 5.0718888150 7.6957620536 3.3163806237 3.1192050453 6.1506343567 7.8278492635 0.6146960824 2.5509690221 6.9195697179 3.9365204812 3.0638581269 2.3271344419 1.3490978527 6.8833085996 2.2729218451 2.3206817378 6.4410291522 7.5537333775 4.3384505984 4.5982777538 7.6260789891 1.0938819001 0.0991200236 3.2751063014 2.0712937551 4.9175171186 1.9971693151 4.5628049358 9.1753806510 6.5465974781 3.8454726705 1.6681265662 7.4775164845 1.6593370282 2.8952829131 0.4189289684 5.0248316832 6.7435078867 4.5421562705 3.1675716550 6.9372428669 6.9017381195 1.5585283435 7.9712677928 2.8723936737 4.5781231352 6.5096178491 9.3212828043 0.9877971026 2.2999689963 5.0931385624 2.2774265383 2.4997785727 2.7407478421 4.2097321401
4.8732719618 0.4095860727 3.0977217311 2.6867822686 7.8659464799 5.1271110995 1.7156187765 3.1244711431 2.4289700573 5.4555312059 2.0544171377 0.2636698391 6.7967440800 6.6456062207 2.5819882357 1.8291997839 6.2079756954 2.5805817851 2.5322857406 1.5727034041 5.0219179343 6.6798995482 3.3757706213 3.0116304394 5.8435641964 8.2132776962 0.0421867411 2.6341612710 6.4843624557 3.8521713447 2.5114684824 1.7456325681 1.3084902928 5.6764639196 2.4635542456 2.2368403644 5.8566105529 7.7266267993 3.8524237201 4.4398894265 7.9287173363 0.7899185639 -0.1708733213 2.9230523768 2.2055988986 3.9205005438 2.0565709257 4.3893518487 8.5655234590 6.3306130263 3.1544863556 1.9129036178 7.4311374163 1.5417653536 2.3600971957 0.1016146913 4.4533731599 6.1664351161 4.8539653860 2.7974879335 6.9250201946 7.4178173854 0.8578377835 6.7832483279 2.8760570987 4.4957865133 6.1970348782 9.7422190610 0.0007758162 2.3901687422 4.8895445403 1.9483370979 1.4900638288 2.4756778769 4.3326584590
4.9314887011 0.2946021616 2.3445237246 2.7730167636 7.7862537252 5.4142673862 1.1746432182 2.9478794699 2.6042794005 5.7430397643 2.3736366758 0.0789813655 7.1178491719 6.5635835884 2.1436937205 1.8348374544 6.1675922664 2.6745689291 2.2324396476 1.5812575604 5.2678306338 6.4190439070 3.4633790540 2.5801244639 6.2605173291 8.2674174050 -0.3780445789 2.8514478173 6.7840869968 3.6847279512 1.6510849869 1.6099704541 1.2362428099 5.2867913612 2.5952358645 1.9883610349 6.1645478940 7.7954655455 3.5485270295 4.8442088759 8.0108530465 0.2553633783 -0.6692348493 2.7743515095 2.2708522747 3.6944912196 2.0123450949 5.1502842614 8.8517120755 6.6725288746 2.9889878571 1.9665691698 6.7862910030 1.2967462371 2.1302188292 0.1085842785 4.6980425775 6.1070952699 4.9266073329 1.9802442014 7.2334705041 7.3624110632 0.4131516674 6.6127700806 3.3511016525 4.1135711064 6.5823586060 9.7688962922 -0.3326639202 2.0962479655 4.6388348588 2.5296287901 1.4341438095 2.6609309381 4.4788405065
4.9017210050 0.6346947274 2.7565939875 2.8859441075 7.8930750956 5.3572397266 1.8894553760 3.4591123637 2.2491426841 6.6769505495 1.4107203552 0.2138728378 7.4487087742 6.1389732276 2.8748343578 1.3295720017 6.6664914686 2.7801906265 3.6476945203 2.2707705400 5.0307955879 8.0266711732 3.0014667818 2.7163281191 5.9352399256 7.0561607357 0.2128473148 2.3908762461 6.8501253244 3.8816293995 2.9685428574 2.3952663699 1.2533370240 7.2286690346 2.8506980586 1.4027860960 6.1618868865 7.2659673322 3.7836199994 4.4654222861 6.7035249590 0.5321171033 0.3562249267 2.3140053539 2.3982294649 5.0928263745 2.5681486256 5.1002579381 9.0018828020 7.3571812178 3.1805604654 1.6093820546 7.6715390282 1.6046917695 3.5219481841 0.6915597586 4.6132977213 7.8331253598 4.3902077461 3.3985057261 6.6813918267 5.9387729593 1.0185182327 7.4979994019 1.8437649408 3.6809906659 6.2760158636 8.4931399526 0.8344003460 1.5045908015 5.2298191456 2.2380015400 2.9178668915 3.0728918625 3.9535059831
3.9619850630 -0.0469663790 3.1358810470 3.3515354206 6.1534185739 4.8557744295 1.3350027523 2.5104460558 3.2177143794 5.1038312446 2.2870906561 0.4467041651 7.6911085272 6.5245759162 2.4285957697 2.4451621427 5.4048907185 2.2084751818 2.3940419316 0.7011661152 5.6810774401 6.7851685319 3.3121187594 3.1547337823 6.1032725469 7.7949293698 -0.2276606946 3.3949444678 6.3758679553 2.9363669705 2.1275052516 1.3156935796 2.0244941369 5.7907494488 3.0776403906 1.9795189777 6.7012693575 7.8188636811 3.3881624255 4.8972738901 6.8103298576 -0.0027874742 -0.5035399745 2.2634665989 2.8757623175 3.6514812892 1.3460243298 5.0758702946 9.6112683004 6.3024806520 2.6465055559 2.9778788332 4.8984376643 0.8993178534 2.5299454696 -0.8246819350 5.6031407345 7.4361748358 4.7324144548 2.9255489308 7.2155712964 7.3353577343 0.7413652391 5.8409336424 3.4106711039 4.3928257917 5.7636119299 9.1782336064 0.2845840092 2.1063354619 4.0997765890 3.0462650963 1.3204158885 1.3010643270 4.7249052352
4.3566051534 0.1191260160 2.9122882506 3.4508013947 6.5731797274 5.0065220178 1.2569900080 2.3831607853 3.1432124372 5.3022624478 2.1058589425 0.3064275371 7.7116336664 6.5956207112 2.3677660507 2.1124529734 5.5931020231 2.3968289365 2.4439509229 0.7707666454 5.5976552966 6.8268032559 3.3652049667 3.0448930748 6.3909546679 7.9283381522 -0.1453123635 3.1752516407 6.4930557593 3.0859120431 2.3904571209 1.4036857639 1.8403350040 6.0865665403 2.7241812110 1.9207684064 6.7747032229 7.7565608981 3.5854199905 4.9769308320 7.3454996313 0.1518509740 -0.6535466501 2.5795453771 2.9511316941 3.7680334593 1.3189049660 4.7694704398 9.6043833302 6.3696671547 2.4787985524 2.7084198933 5.3830247838 0.9390355541 2.4628701821 -0.7820390750 5.5251504133 7.1211187784 4.9266720924 2.8881564514 7.5429151037 7.1073748008 0.4892215339 5.8926933217 3.2653593870 4.2881333187 6.3687698208 9.3998990074 0.4433686904 2.0200354313 4.3179614157 3.2857060295 1.2487794470 1.3871443148 4.8878033091