-28927.0319307649
-28925.3808221186
-28926.2342068704
-28926.4354481484
-28926.8338334885
-28926.2742269042
-28926.0619871986
-28926.0733001896
-28926.078126126
-28926.1982720795
-28927.1848047853
-28926.1884097266
-28926.1279598044
-28925.4745960368
-28925.4245716068
-28925.4149077609
-28926.3142008148
-28925.8907936676
-28926.1420446816
-28926.6116691161
-28925.433307681
-28926.4657976696
-28926.2938144646
-28926.3516772658
-28926.5262605172
-28926.2993636793
-28926.0805318833
-28926.3213359081
-28925.6900115814
-28926.5810406784
-28925.5866638869
-28926.0261532258
-28926.4752790632
-28925.9330998647
-28926.1217184685
-28926.0688451441
-28926.9321635425
-28926.5218422071
-28925.8895543258
-28926.5439473634
-28926.745740352
-28926.3653478499
-28926.4800366992
-28925.5035258048
-28925.8891974487
-28926.1526752114
-28926.3720860654
-28925.3331252131
-28926.8212893191
-28925.9226912436
-28925.9138554397
-28926.0517550432
-28926.2106591032
-28926.1250685963
-28927.0770746997
-28926.3523757817
-28926.3139697903
-28925.9869953842
-28926.02994445
-28926.7665766422
-28925.8667826269
-28926.2143640673
-28926.0402077624
-28926.9344371885
-28926.1000065165
-28926.2240102258
-28925.9034253216
-28926.7585690163
-28926.3142447611
-28925.3599183443
-28927.2207129091
-28926.3386242438
-28924.9198190625
-28925.6685520148
-28927.6491970176
-28926.6398184619
-28925.9025352377
-28925.9224841651
-28925.6059264075
-28926.2335675392
-28924.8696291873
-28925.4965723474
-28926.1237783692
-28926.2181746115
-28926.1278836126
-28925.8827974705
-28926.3300479003
-28926.5100467585
-28927.1916015053
-28925.6508077526
-28925.9457410427
-28926.4035243134
-28925.8934323542
-28926.7429333631
-28925.6067424765
-28926.6362736367
-28925.5828213694
-28925.9949417846
-28926.2762786415
-28925.7732397332
-28926.5704276999
-28926.1599728927
-28925.5365376863
-28925.6087446891
-28926.5830495577
-28924.6705708053
-28927.1937918845
-28926.0431652301
-28926.1143980658
-28926.1904054085
-28926.0209807526
-28926.3449566017
-28926.1835869195
-28926.8559635433
-28926.8856684271
-28927.0658131382
-28925.9202916089
-28926.9743996703
-28926.3207669184
-28926.161476729
-28926.1962897312
-28926.5719614687
-28926.3909024556
-28926.9519580454
-28925.5132612166
-28926.963918667
-28925.6610227648
-28926.0758200985
-28924.9079219794
-28925.8354970346
-28925.4267622581
-28925.5705974778
-28926.1928499419
-28925.3042910931
-28926.3495002202
-28926.2473677855
-28926.5901238336
-28925.929970149
-28926.2121725996
-28926.1703023287
-28925.9391182034
-28925.5921306512
-28926.8926798447
-28925.7610091749
-28925.9506088846
-28925.9046721466
-28926.3835038201
-28924.9200122632
-28926.0304681328
-28925.9734019444
-28926.1880844147
-28926.9268531076
-28926.3617050638
-28926.7593264447
-28926.2787943326
-28925.8646736097
-28926.8791061331
-28927.0970932882
-28926.6377229143
-28926.3249282171
-28926.061868557
-28926.2984571325
-28926.4122956264
-28924.8834039909
-28926.8126321578
-28925.5639391277
-28925.6928695916
-28924.8165242941
-28925.8430122708
-28927.6385821343
-28925.8162403645
-28925.9671241453
-28924.6277236462
-28925.5790479687
-28925.0512698435
-28927.1570584399
-28926.1721852194
-28926.9725325622
-28926.4674442296
-28925.308215653
-28926.7068719033
-28926.2570407472
-28926.4062581037
-28925.6747408327
-28925.6356884352
-28926.1449507198
-28924.643169364
-28926.5752896914
-28926.327694661
-28926.1115486272
-28925.5797590018
-28926.4181530099
-28926.930018062
-28926.5706983169
-28925.8119185187
-28926.1903523463
-28926.4366817759
-28926.2326152773
-28925.9031064043
-28926.5157097167
-28926.0441683772
-28925.4770217944
-28926.3411402071
-28926.4951358802
-28926.4600280428
-28925.9080607784
-28927.0967536903
-28926.1887063305
-28925.722547128
-28926.503777531
-28925.479505104
-28926.3016019505
-28926.8231761555
-28926.8912939697
-28925.7054144413
-28927.1427355993
-28926.3225254531
-28926.0839109912
-28926.1130879744
-28926.117038249
-28925.0529731392
-28926.2239846471
-28925.952091224
-28926.1292172418
-28925.4778469792
-28926.2859310586
-28925.4804692029
-28925.4096135167
-28926.3517983564
-28925.3247381247
-28925.815506882
-28926.4546710765
-28925.4618344486
-28924.6374234111
-28925.9172534595
-28926.3357946695
-28926.5800669195
-28926.3129071863
-28926.8951038336
-28925.61146569
-28926.3317872511
-28926.8447977658
-28925.9763047173
-28925.8256179468
-28926.3134682847
-28925.931334391
-28925.9296588509
-28926.0547278854
-28926.6410795728
-28926.7867386346
-28926.1335698365
-28925.1345351388
-28926.3109339538
-28926.2762010891
-28925.4246171858
-28927.1169409893
-28926.0208589817
-28926.0272596401
-28925.9607154595
-28926.1015168836
-28925.5065601446
-28926.9292772325
-28925.7671876524
-28926.4509203973
-28925.979747908
-28926.1175543126
-28926.4932218324
-28926.1281297394
-28925.7243535548
-28925.4988333401
-28925.8582997545
-28926.0705598686
-28926.2174580001
-28926.2352432154
-28926.0320783656
-28926.6364438439
-28925.926516618
-28925.8878444993
-28926.2747680023
-28926.9573786863
-28925.8842120536
-28926.6355304942
-28926.1516687989
-28926.4874671719
-28926.0233783464
-28924.815540467
-28926.3365311452
-28926.0865166159
-28926.4855830566
-28925.4448035324
-28924.6140458511
-28926.6024250055
-28926.2107378801
-28926.086650768
-28925.3189648244
-28926.595636449
-28926.3580356106
-28926.7899260384
-28925.54005013
-28926.4398482269
-28925.9355136493
-28926.0854653046
-28926.5708568232
-28925.9039402968
-28926.2524968566
-28926.2659508382
-28925.6436601421
-28926.2029531154
-28926.354867935
-28925.5397301243
-28925.9859510119
-28926.2711667135
-28926.1858827427
-28925.7056964872
-28924.86132142
-28924.9627304404
-28924.8144581348
-28926.287547414
-28926.2288303118
-28925.7184203877
-28926.2555628977
-28925.2029781288
-28926.3825526467
-28925.530737991
-28926.1993659765
-28926.5439118526
-28926.1558343154
-28926.0861510311
-28926.292041916
-28925.5134665264
-28925.8545839058
-28926.1005081581
-28925.3468114437
-28926.9453773837
-28926.6847132766
-28925.5092423694
-28924.6243992331
-28925.92923068
-28925.6225588132
-28926.6168907058
-28925.5059518344
-28925.4535806959
-28924.6496204995
-28925.7037209417
-28926.3067691175
-28925.9655959548
-28926.5893459966
-28924.8264791656
-28925.6446773031
-28927.1085363496
-28926.0469510119
-28925.7421848934
-28926.2392647837
-28925.7160682369
-28925.7423319708
-28926.0274211396
-28926.2592105818
-28925.6487852675
-28925.5070537589
-28926.4318252266
-28926.1865124138
-28927.1425900185
-28926.0551902066
-28926.4345556155
-28926.7942700615
-28925.4665168451
-28926.2876859199
-28925.8861206591
-28926.8128679444
-28925.7115436663
-28925.8781387479
-28926.1757305888
-28925.4546113265
-28926.1252246536
-28924.9443094315
-28925.9322069236
-28925.8820622193
-28926.6901687481
-28926.7383958672
-28926.3246778725
-28926.2358843153
-28925.6106727507
-28925.6050668004
-28926.7793029917
-28925.8853459514
-28926.5166436109
-28926.3477302566
-28926.2346697358
-28926.384975275
-28926.4002554116
-28925.8120880455
-28925.6629648403
-28926.4186090724
-28926.8284693112
-28926.9513291906
-28925.9992949235
-28925.8588975883
-28926.8398459768
-28925.9505054814
-28926.9048589736
-28926.1871521532
-28926.0055513616
-28926.2917088488
-28927.0873439986
-28925.8491712922
-28925.8782364367
-28925.9781918258
-28925.4788536638
-28926.2942238597
-28926.2668995626
-28925.7180447347
-28926.2209270416
-28926.2972479953
-28925.700715582
-28925.5329245607
-28926.2244419342
-28926.1286677082
-28925.8550354785
-28925.86235765
-28926.4816001284
-28925.537618522
-28926.349997508
-28927.106349916
-28926.1759685522
-28926.4715994057
-28926.0097415044
-28926.0678239014
-28925.5189568284
-28925.4548673855
-28925.5080881991
-28926.098825407
-28925.9395988922
-28925.7383770703
-28926.4699972003
-28925.9439608748
-28925.5030063397
-28926.2762819069
-28926.9190297027
-28926.1270244136
-28926.911360042
-28925.9443319019
-28926.8329214995
-28925.9181231349
-28926.3488002077
-28926.0675041678
-28925.5140043591
-28926.2221184914
-28924.7452178516
-28926.1140455425
-28925.8955819163
-28926.2782599013
-28925.4947576211
-28926.2546352621
-28925.4323087516
-28926.0599938297
-28926.9355461879
-28926.1849096642
-28926.3442450244
-28925.5080754098
-28926.0759161546
-28925.5826940202
-28926.197021581
-28925.8653391998
-28925.9293113617
-28925.9385041788
-28926.3026259144
-28926.3908187806
-28926.9739233353
-28926.3102359821
-28925.5389354162
-28924.8271345515
-28925.8897898402
-28926.0769088254
-28926.3036474292
-28925.5312042578
-28926.8667638721
-28926.2368085494
-28926.5438400145
-28925.615510116
-28926.9373870371
-28926.2496158528
-28926.3359790265
-28926.2410849523
-28926.5545172119
-28925.5406445624
-28925.4205432356
-28925.7122689854
-28925.3119675566
-28925.6182996895
-28925.870580926
-28926.9147315307
-28926.3154115847
-28926.3203787482
-28926.9016519776
-28925.8838686461
-28925.6546704066
-28926.9154701834
-28926.3521838055
-28926.2758341438
-28926.3438250169
-28926.6030240638
-28926.1028943231
-28924.9238810397
-28926.2743481309
-28926.9761807905
-28926.2157484457
-28926.4230148653
-28925.9676788491
-28927.1290984852
-28925.5247347547
-28926.0395714245
-28925.4279617353
-28925.3564827727
-28926.3288824373
-28926.1230418935
-28926.1065618716
-28926.4064352497
-28927.3389316172
-28926.8573284656
-28926.3928929673
-28926.0957034465
-28926.8311418759
-28926.1329834315
-28926.2143788975
-28925.5869285175
-28925.8570725217
-28926.1485665667
-28927.1828919621
-28926.3507746647
-28926.2349542306
-28926.9144034977
-28926.580539717
-28925.9315416056
-28925.8962647856
-28926.092466654
-28925.9592340725
-28925.8270631426
-28925.9646970272
-28926.3826828531
-28926.2037961236
-28925.6416679977
-28927.5993931357
-28926.8537386056
-28925.425295021
-28924.7867315176
-28926.149366717
-28926.1597784674
-28926.2928831555
-28926.6632089473
-28926.3868362606
-28926.6738209734
-28926.11760547
-28926.9122589696
-28926.7786387622
-28926.1222401105
-28926.4130380887
-28926.3841817914
-28926.0682117995
-28926.6231506815
-28926.5654393115
-28926.0222256728
-28925.6840661692
-28926.3948038857
-28926.6563088242
-28925.9460331567
-28925.9741898496
-28925.4103316248
-28926.7403673309
-28925.9048294283
-28925.7627625395
-28926.3004296847
-28926.0815607452
-28925.7201790585
-28925.5266494827
-28926.4710004835
-28924.7624207436
-28925.7622389927
-28925.8511109187
-28925.7039512859
-28925.7547760024
-28925.491679607
-28925.5263890699
-28927.0149948165
-28926.2406570535
-28925.9232937033
-28925.8689006239
-28926.0843595706
-28925.8697803675
-28926.4316644074
-28926.1782892739
-28926.0221047182
-28926.531068222
-28926.2832674737
-28925.7045333371
-28924.7203712858
-28926.2667892205
-28926.2860548704
-28925.6843201873
-28924.6137474785
-28926.2093287394
-28926.2001278949
-28926.1234888403
-28926.3090460289
-28925.9882857474
-28925.2428340781
-28926.3150567484
-28925.8548633666
-28926.0883012736
-28926.0719941799
-28925.3952876829
-28926.5798259628
-28926.0808822296
-28925.909687066
-28926.4318158387
-28927.1709020883
-28924.6197215987
-28926.1137166931
-28926.6261588984
-28925.8153472873
-28925.5030089248
-28926.2156824582
-28925.7478500285
-28924.8543359892
-28926.5567482721
-28924.7054080256
-28926.4887681475
-28925.9017046106
-28926.2497520457
-28926.0889646868
-28925.7232841479
-28926.2933567694
-28926.5662308903
-28926.4111128842
-28924.6111098804
-28925.3783977216
-28926.3981808167
-28927.0648599239
-28925.5107267496
-28926.3659021455
-28926.3028385712
-28926.291563268
-28925.9347262883
-28924.8945894966
-28925.5376653255
-28926.1845399977
-28926.5830441155
-28925.4307793366
-28925.9157052686
-28925.9325522359
-28927.0111874016
-28926.3144974187
-28926.0723584041
-28925.9426038438
-28926.9069032278
-28926.59437044
-28926.274470582
-28925.7993144842
-28925.8862903219
-28926.0906040358
-28925.7785058136
-28925.5859859157
-28926.4565713825
-28925.8852190103
-28926.55623112
-28926.038469364
-28925.725727729
-28926.2612507543
-28925.5033629447
-28925.5096421044
-28924.8887662635
-28926.2276623998
-28925.4727500175
-28925.7680939271
-28926.7391625475
-28925.9437416873
-28925.6981683256
-28926.1749354726
-28926.7768917922
-28925.8400583405
-28926.7154761385
-28926.8579845318
-28926.9658709467
-28925.9855402562
-28926.1603293616
-28926.120893964
-28926.4490502959
-28926.1159238073
-28926.2361760211
-28926.5082607402
-28926.0697186291
-28925.9125722875
-28925.3030185534
-28926.8743030542
-28925.975995188
-28926.3510205194
-28925.8120304934
-28926.0483049136
-28926.068945418
-28925.4225296656
-28926.2527861135
-28925.3489838634
-28926.5751083276
-28926.2515195602
-28926.8124091607
-28925.9091326343
-28926.7651480452
-28925.8686836132
-28925.5194190135
-28926.3310354009
-28925.2540878844
-28925.4388224733
-28926.3962255438
-28924.8277283036
-28925.6632081099
-28926.573780957
-28925.1599720553
-28926.0768104563
-28926.2431471659
-28926.3115867545
-28926.1602571154
-28926.9655181513
-28926.3613953984
-28926.043050126
-28927.0498912215
-28926.9090872123
-28925.5228549932
-28926.1369026851
-28926.2691352487
-28926.197122127
-28926.1643482088
-28926.2671870507
-28925.6780588511
-28925.961053969
-28925.1920482739
-28926.3207225638
-28925.7460501324
-28926.2159698102
-28926.0244515628
-28926.1250371672
-28924.908698728
-28925.591079612
-28925.6796798324
-28926.374937953
-28926.3348681224
-28926.3290076096
-28926.5579473411
-28925.6875018768
-28925.1750795358
-28925.7030334464
-28926.6114948272
-28926.2654702854
-28926.6561277325
-28926.2633677989
-28926.0893359859
-28926.552133904
-28925.7013579063
-28927.168008023
-28926.1914130455
-28926.2004005528
-28926.3140008112
-28926.1818998145
-28926.571708403
-28926.3006179874
-28926.1148281415
-28925.5505671884
-28925.4474311984
-28926.3061544127
-28926.0071179202
-28925.7222392313
-28926.070132514
-28926.0578729755
-28925.9138242827
-28925.9758830771
-28926.1979605093
-28926.3324397797
-28926.938798899
-28926.1886591188
-28925.3958245632
-28925.8789222993
-28926.2525387621
-28925.4374922455
-28925.9957513228
-28926.3723491993
-28927.1956787209
-28925.682923972
-28926.2439478605
-28925.219446722
-28926.5333773789
-28926.1563691549
-28926.2026661715
-28925.9290191116
-28924.6660822899
-28926.4457654754
-28926.3967448728
-28926.1085911595
-28926.2796117622
-28926.0793783933
-28926.4633970825
-28926.9884898537
-28926.3463151293
-28925.4760095314
-28925.7371419462
-28925.4337833358
-28926.0577158299
-28926.2069783573
-28926.4399290447
-28925.5432677384
-28926.3523657135
-28926.065164126
-28925.6615220935
-28925.2728935261
-28925.6881446093
-28926.8560804161
-28926.0470821707
-28925.3413484891
-28926.1948121538
-28926.5651307346
-28926.7237019995
-28924.8911827692
-28926.5653870657
-28926.2824731738
-28925.8468619993
-28925.435499965
-28925.7727130572
-28926.3729852651
-28926.7514756924
-28925.3651437436
-28926.0676547827
-28926.0910383292
-28926.5426809462
-28926.157680879
-28925.4339535429
-28925.6857376276
-28926.5957167226
-28926.3161453393
-28925.9072857986
-28926.1868807197
-28926.7328059715
-28926.3251109414
-28925.6283934751
-28926.295784976
-28925.8778222797
-28927.4452582765
-28926.3068453094
-28926.7493488517
-28924.6888350768
-28925.8926205029
-28926.8021972778
-28926.2872923074
-28926.5930494641
-28926.3091067103
-28926.543443817
-28925.0978270008
-28926.5821130784
-28925.4275610479
-28926.4337628122
-28926.2973996987
-28926.7601297244
-28925.9221579007
-28926.2510758789
-28925.7350303439
-28925.8646338811
-28925.1839213262
-28926.7757034717
-28926.5189601148
-28926.272015028
-28926.5696999318
-28926.4473933956
-28926.2915312946
-28926.2463756589
-28926.1264273961
-28925.6297845203
-28925.7543344979
-28925.4178437316
-28926.1868664338
-28926.5974288619
-28925.7281919906
-28926.1856619225
-28926.0113336417
-28925.700969328
-28926.5554215818
-28926.5066959504
-28925.6940776404
-28926.3826662542
-28926.2815198235
-28925.1513744869
-28926.3208492327
-28926.0892851007
-28925.8933954827
-28924.8471712355
-28925.955865441
-28926.4230578593
-28926.7011530257
-28925.4268519196
-28926.3058682852
-28925.6679824809
-28925.8999029458
-28926.2727173535
-28926.3236560855
-28926.3688592051
-28925.4528692546
-28926.2131492157
-28925.4178192414
-28926.5469670091
-28926.0655283502
-28925.7898230223
-28925.7756278031
-28926.5338650066
-28925.6520132163
-28926.3412935431
-28925.7923444279
-28926.883274779
-28926.8018088355
-28925.7200017764
-28926.1479866924
-28925.4145799999
-28925.83483988
-28925.6495017429
-28926.5004603289
-28926.1174528142
-28926.8675705531
-28926.2048195432
-28926.0922126359
-28926.2070719644
-28926.3507352082
-28925.8535317782
-28926.2896900373
-28925.7882899338
-28926.2123728753
-28926.925913635
-28926.8905227994
-28926.3749995868
-28926.0788235535
-28927.533729515
-28926.3473643998
-28926.3281422881
-28926.1246530787
-28926.589315656
-28925.6824051872
-28925.8453187065
-28926.1463235334
-28926.4322376149
-28926.2555114682
-28925.8954323898
-28926.9219380539
-28926.0663804743
-28926.3540441108
-28926.4938124552
-28925.4583928906
-28926.1194641426
-28926.309043716
-28925.3083152466
-28925.5116137042
-28925.6740912973
-28925.9793922554
-28926.2602733219
-28925.8895965034
-28926.3202188814
-28926.5082584272
-28926.0845414786
-28925.7188979472
-28925.9387277202
-28924.9984097166
-28925.7104957565
-28926.2974473186
-28925.4862189653
-28925.4222165988
-28926.0477651761
-28926.9184498284
-28926.2749929043
-28926.5558504329
-28926.5759774588
-28926.1864358138
-28925.4857551475
-28925.4860097099
-28925.831675878
-28926.3676693879
-28926.4225948578
-28925.3858336366
-28926.4062361986
-28926.5288704957
-28925.69647469
-28925.9330185027
-28926.0426488943
-28926.2598965805
-28925.6970923881
-28926.2831190357
-28926.4127436616
-28926.4544826377
-28925.8663714631
-28926.4187689392
-28926.0382416048
-28925.6451379916
-28926.2172038459
-28925.491287219
-28926.2825474608
-28925.9273012578
-28926.3105486408
-28926.164456238
-28925.854416828