-0.210915967925363 -0.119938043815942 0.326707852926818 1.18580579181634 0.307319431120937 -0.297557214574537 -0.525814750137225 -0.544192214702714 -0.430025008948979 1.17165958953598 0.127579872681387 0.872505720723695 -0.932777232762215 1.16319140854169 -0.428738686702367 -0.208192913974958 -0.510318719395 -0.352226295720854 -1.09650808275421 -2.45801243226055 0.677637284883548 -1.11011461076001 -0.457919406946084 -0.950962893131028 -1.36374352209194 -0.932363542477426 -1.16830147343304 0.406632610259928 0.186861767624723 0.158157472550499 0.324309529137811 0.691139426154959 -0.638746541460623 -0.296489435983655 -1.04939778388416 -1.08259456518966 0.353126438472282 0.580622670782477 1.13276524657049 -0.284412970678158 0.060744851885815 -0.546827079860277 0.359814388558009 0.894055667839844 -0.448375734055414 0.72987538924759 1.49334145260136 0.176266514084713 0.759303706597741 -0.236087826192429 0.154357641152799 -0.167652551616541 0.497683553661382 0.512842770063598 -0.543714246872122 -1.01830210699588 0.429361664676291 0.548169966347197 -0.667292199551805 1.3834476752028 -0.165745051167286 -0.107051167212959 -0.137897190113344 0.663698570521042 0.802767154629102 -0.49129128028635 0.536038736572675 0.508579883225933 0.441848734944379 -0.253801175154679 -0.432145653740117 0.535751544498027 0.121447537701583 1.21913395642546 0.171893584088633
0.16082421937078 0.690765330838384 -0.166058982700989 0.432297862968579 -0.587606297578899 1.09752649618992 1.31522297386697 -0.128055526520331 -1.04683465246772 -0.775369493505965 -0.842250794134515 -0.132024279308401 0.720040667629524 -1.4274664812299 2.83473027270369 0.759762134054409 1.31726622849296 -3.71347451491286 1.71302564910482 0.247599934645774 -0.835949280654157 -0.149744827355781 1.89674064519721 -0.714328450689089 -1.01183270056588 2.08576496657293 1.50321499785709 -1.15844232634757 -1.34199688568563 0.150083441467073 -0.100175269583303 0.544537513678768 0.606325975798244 -0.710654860391347 -0.693640594017251 -0.395125644010247 0.0979111573099329 0.763769453369961 -1.6104798236323 -0.471713882495808 -0.902015284891741 0.0948109227207551 0.0207984140506189 -0.888217724019818 0.0894900274791698 -0.203719453897242 -0.447300756379402 0.594967362124276 -1.19726699245341 0.749539433169875 1.00422275336316 0.7549531451876 0.540267684866156 1.32849217331239 -0.521681961052265 0.41142103031208 -0.267513632555958 -0.258135795733461 -0.143602979299198 0.144900100173506 -0.328119130722472 0.465769752170115 -1.05852648093913 -0.239783013745561 -0.815207173733662 0.179332810129707 1.48559163745896 -0.0920374751744405 -0.682426733376433 -0.390326168220217 -0.950727637313388 0.691399364550187 0.0565382721782732 -0.453316620446211 0.303246291598483
0.124965062118115 0.0279144525913948 -0.252678117874407 1.68990347321833 1.03354257021599 -1.20221764903117 -0.270551646480799 0.544126908716178 -2.73197027444855 -0.30433772432622 1.00992622855736 -0.0745287859180271 -0.352566195383061 -0.19169621039967 0.158894864555952 -1.03154945207573 0.0384487710179825 -0.661914482959729 1.42733252682445 -0.991665234904869 3.27864411663963 -0.373302645879526 0.178117193183478 -0.357959081475946 -0.577769519079367 0.62738509957464 -0.633663730248692 0.869856457395872 0.397999621638198 0.195584744810577 -0.858011905475633 0.174901773232221 -0.914010503379342 -0.564665641481752 0.440785841446978 0.059637221216535 -0.304389403473046 -0.283623899525878 0.0395695143066063 1.53669382903357 0.0363286404472112 -0.231274466452505 1.28902550307906 0.266992213104403 0.819696317532554 -0.538079677207017 0.927155518606271 -0.27517037381203 0.239561641877814 -0.279654375407259 -0.371266847448849 -0.501621196117283 -0.723893463724965 2.14379164960182 0.00336788628990219 -0.688809236564503 0.0651154678902464 0.32674564812375 0.192296048457105 -0.0555342569128279 -1.43750252012142 -0.169779109941893 0.383244839554175 -0.276889669607173 -0.260987918995839 -0.16387097504185 -0.37260664861357 -2.03689449138861 0.259302047524514 -0.202709267987399 -0.630894139355126 -0.411844233673648 0.459100828237946 0.361977199419193 0.934422995044959
-0.142522345199156 0.498349469035903 0.794125938481509 -1.37372505362462 -1.22482663299197 -0.428453551509184 0.198572365139508 -0.609334422052014 1.7902936869148 -0.687083255904596 -0.881764258421181 0.105692854115046 0.610718960388614 -0.165151126644065 -0.579803774848945 -0.235348120195326 0.848647695492846 0.13611541654368 -0.837026829432001 1.48809537642309 0.102518057572737 -1.15822429691221 1.25074873877365 1.38189241570455 0.43137920828396 -0.180298258867671 0.325059005321875 0.252007574516588 0.298166565708751 0.541444221064537 0.254515170133461 -0.162627590195833 0.398590203729037 0.69344519027801 -0.467744358377188 0.0141757699514281 -0.387305637787835 0.620175987147541 1.00577338487811 0.912269096108443 0.0296201215468274 0.214436834774277 -0.289731809038277 -0.433037826075865 -1.0813182702402 0.84415752325322 -0.421108170684982 -0.458939363042888 0.509576185185882 0.684252215677242 -0.717894826040431 -0.837601984911848 -0.962127131506486 1.10501200206397 -0.0505902851998323 0.820250904197744 -1.24239702869236 0.657519955708259 0.124561913350838 0.0826498681649811 0.431851262580339 0.398133576043652 -1.04555681485715 -0.18814603298987 -0.525617803736884 -0.689896812639492 -0.207225408355529 -0.966169417806955 -0.396950354980507 0.491133157523674 0.26451341382805 -0.645735310460708 0.107386181781685 -0.325708208534487 -0.710833294858496
-0.180301344189869 -0.149876210659403 0.334168676223282 0.137299923157741 0.283449064601294 -0.54834711526343 0.808695087013252 0.361240835854472 -0.796736892392033 0.0528248298021333 0.243637095391918 -0.466493260225675 -0.523709274846897 0.596444203016649 0.464941086049621 0.778348372088666 -1.48987689288257 0.972335691330944 0.51975594866982 1.19361217119904 0.0140330737997451 1.02161805702877 0.0659955560473832 -2.0826670459754 1.5249647195856 -0.0204387169043045 0.18663268245148 -0.559327519857892 0.331438423187747 -0.170390003737206 -1.06971334501071 0.683833897409155 0.646787405330414 -0.692694171432846 -0.0841112824463616 0.546370709285074 0.193106202644408 -0.375522020981018 -1.88742322926776 -0.257942705985868 -0.259204602765076 0.676672093255768 -0.565599208556997 -0.946945289408147 0.89608889516869 -0.282217506823705 0.438229394895294 -0.43494378386402 -0.0811457735931872 0.76389826557175 0.0892923097482793 -0.123825292675933 0.186428794076193 -0.604370138634545 -1.04217273062571 -2.21232308338623 -0.686887852165355 -0.654610753985208 -0.198707090875511 0.144165793490251 -0.787728008682446 -0.0123834548642529 0.327380967386469 0.159372575276361 -0.255479333320508 0.376331918058137 0.0388802019054133 1.22711825605495 0.71709521337064 0.509192062572162 -0.0446515541879871 -0.346241541986214 1.07692914230257 -0.325807195955024 1.63220486278322
-0.375499138174712 0.150191941964388 -0.309164968016037 0.45768620800991 -2.60031289137159 1.14578633468911 -0.938749902318245 0.30657458292017 1.03873979545945 -0.119268271788673 3.21274086314802 0.553625587324785 0.22848893472758 -1.10316800782997 0.615665760313625 0.253180511172404 -1.0603954148609 2.07942077280216 -0.159391858540102 0.501946954719414 -0.925686133909211 -0.493177440590398 1.24941793646534 -0.261104647019017 0.278310203369423 -2.08910045697975 -1.17269394380305 -0.129450863484626 0.919168904985137 0.0415963138808715 -0.179442596177939 -0.411070332022178 -0.122295487085818 -0.112897852779214 -0.41932331179312 -0.735543640346695 -0.0996407375124042 -0.564656128404973 0.630938876527005 -0.857125903784282 0.614772045316778 -0.478130324228062 0.217754841688636 0.352251749628992 0.276864729919402 1.60459457153856 -0.48803163738358 0.328177751844245 0.201235769527408 0.524306284692317 -0.947916651680324 -0.18063275921603 0.457146276625163 -0.987269936322849 0.245370018026771 1.01542838647811 0.306593094853361 0.66638511482543 -0.979848193774233 0.0941720039154717 0.225413896936357 0.090002962294679 -0.150759127028555 -0.470429874240844 0.160720089746579 -0.722187023438983 0.703200464849463 -0.160872041864858 0.531460118430025 -0.560311994749413 -0.523131548265218 -0.256642242679179 -0.405601341315063 0.845240985565278 -0.573646757291552
0.190928222282413 -0.218833418907213 -0.607000118698627 0.0720841822960414 -0.627107934797137 0.0320796375594393 2.32938380714184 0.0860154404632344 0.319301536989195 -0.309524408052169 0.359596102012461 -0.530051154626019 -0.555265436073315 -1.51022536411257 0.430803281473564 -0.228584065495368 0.383108314046889 -0.201409833121443 -2.74323144336308 1.92578458282345 -1.20019290633837 -0.57487908639969 0.888867441452797 1.95206355753943 2.50063692976409 1.03969110313734 0.159659253130644 0.0312784822285488 -0.541554521333136 0.269829681086338 0.141608061387652 -0.829334092750279 0.922330846018286 -0.0138471831372824 0.346165437371983 -0.261441461359026 -0.6408191066475 0.0637319579943793 0.864660260593145 -2.33788207002757 -0.436124690935516 -0.121013792822503 -0.689721977714908 -0.858111664226719 -0.0389118264579484 1.53061574430243 -0.212470456093067 0.263739769286763 0.766055420008904 0.300086150336616 0.224031158371039 0.794645815271965 -0.447039275323075 -0.26332016546776 0.880050619050069 1.3678256604708 0.710678514528202 0.000642004127481927 0.0695421339146182 -0.102569479609379 -1.04457568239801 0.160691550516242 -0.917139277198857 -0.243556619904572 0.0722726440603363 -0.380026334280719 0.205030715831626 -0.213518437199841 -0.832401160125823 0.271399595865034 -0.00379417497366872 -0.390713119045952 -0.332471749014079 -1.1652650021693 -0.302987124533804
-0.338317149029418 0.35249883251506 -0.240016726902101 -0.606205134012134 -0.381236037692735 -0.346763218547952 -1.34916948846671 0.71683116121248 1.11367095881421 0.474641853262233 0.940117985603119 -0.605660831754272 0.218588650012794 -1.02102747493793 -0.427500701170198 -0.146621967070481 0.854826567415811 -1.96676768891736 0.855668089045466 -0.720114972472472 1.80996287304075 -0.568369056560747 -0.260291407509516 1.13328203803875 -0.463348031354435 1.56323582746698 1.81714241779678 0.61051455779296 -0.0349183910922899 0.396070523933554 -0.362125551994907 -0.145864263360553 -1.84646557708199 -0.01985893344116 0.500102960485413 0.698518231302978 -0.451455656940118 -0.54682013788533 0.476215881803861 2.92216341871716 0.213231759345559 -0.4943796878071 0.299028656153063 0.752698803101191 -0.0096971676700474 -1.98222309625064 -0.367337689628993 -1.5516614983493 -0.243739168134653 0.0890051176736308 0.323344080399847 -0.339729198155621 -1.68987261999634 1.60873044594572 0.622269635369442 0.424532878325375 -0.207773567266138 0.121353435374527 0.587763391900842 -1.31157098082461 -1.26205001687676 -0.333079557487193 -0.91228323716852 0.443597084190224 -0.692723481993732 -0.0303837387909688 -0.0367258756802747 -1.42921045960263 0.0337493110892221 0.22716764549605 0.417853412875694 -0.122532799784924 1.37494529855414 0.209797538628388 0.662770916980011
0.192808469052247 -0.117084377892465 -0.42381142715128 1.84527592826427 0.330758880973516 -1.49211477991725 0.664186051428413 0.567276338282093 -1.87438260077522 -0.630940419188104 0.51565838367996 -0.484671207288991 -0.310436377872024 -0.821702034071796 0.19249736573056 0.58053242510817 -0.92394215553648 1.144525980571 2.35175470707299 0.59673473752368 2.81668987958839 -0.656224891715417 0.461021441306544 -0.00433487768896487 -1.95455212700275 0.218928549675001 -0.159643055189101 0.418105895075609 0.148453362905504 -0.313316526144372 -0.774098854980528 -0.247717433999502 0.120876753094851 0.140426125875423 0.620613588679369 0.303803706475688 -0.382828321057371 -0.494106893902711 -1.12391320007266 1.51318598787226 0.0769908730324712 -0.613410904006851 0.37937096042371 -0.361602332772069 0.618030916888998 -1.29254379882615 0.485383145386307 -0.167955684522549 -0.93925692359954 -0.101725643988075 -0.232702456410068 -0.512370201546854 -0.0588934014565009 1.01300332323005 -0.0278067234246287 -0.677578406651592 -0.0135967578188333 -0.0116581470374101 1.30469379764404 -0.363364308857625 -0.411989758037347 -1.24180464683023 1.1937461256045 -0.0520714969653203 -0.955981683907338 0.2596866843586 0.0889732360109124 0.684790090180523 0.448208355326143 -0.182463126610321 -0.187075683297155 -0.559340375367052 -0.0353788754304237 0.177911247926725 -0.284510929657962
-0.299513051738235 0.216671379376578 -0.162335770137887 -0.776604907936301 0.105162950027445 -0.204401824323488 -1.19808023196291 0.681884488000037 0.849381487955734 -0.192547502216287 -0.059487325979722 -0.762573891018022 0.60633291777319 -0.549876920853545 -0.81957676129736 -1.07805579912541 0.726070672756409 -2.12776237233961 0.014675077927227 -1.93303329021877 1.58689844895859 -0.438826918961081 1.38869863647455 1.81655029304484 -0.237224510312412 0.964400242636269 1.05688946040261 0.776582282240179 -0.325893070756217 0.714287055949592 -0.260164909299375 0.321498029284381 -1.82354471846895 -1.02996359646567 -0.126677158828128 0.306729620360647 -0.661509277310986 0.40449113954395 1.56630495172399 2.22948595944622 0.0148712529970183 -0.208878883943769 1.14707959891067 0.486574336865131 -0.372261606747698 -0.600027804750267 0.0340046215011523 -1.27012481929074 0.103813378675762 -0.125966506281728 0.702691129576519 0.179729788252588 -0.793706077552323 0.457111823860613 0.615857050289936 0.737767900541668 -0.0302649538863246 -0.0812041376047765 -0.889943704679725 -1.03089304977799 -1.18511236565222 -0.493143759156397 -0.817572073198852 0.709104743096758 -0.18575876493874 -0.298329316454724 -0.0467950817854308 -0.520927342664536 -0.260892531117867 0.419794337648766 0.0577238072330666 0.0779735481527098 1.2831744466397 -0.135405021107464 1.05459500912762
0.0706806178058837 -0.0809513982946785 0.00447063186570114 -0.366814470406155 -0.264012306080969 0.220538059421912 -0.265403529282332 -1.43985559251819 0.52397924053927 0.400900852945569 -0.356395080231464 0.788064823022455 -0.532444850431729 -0.33398844198485 -0.27112474507918 1.21186416599512 0.218191157669547 0.142562454387737 1.23705864995831 -0.232057624070571 -0.77713224092207 0.927703163296514 1.68040222350789 -0.757245539581124 -0.00198437639403505 1.45737919416523 0.447466335337391 -0.189599219745387 0.479941151248428 0.0454167140932279 -0.566739492219545 0.0149293598984243 0.653385109741834 0.045064987362593 0.0033763709259482 0.10014055970857 0.154939224387226 -0.705400813797397 -0.873361126303243 1.362750048344 -0.391226053861461 0.0650771584729477 -0.207659667454975 -0.181133866963112 -0.912270124549176 -0.830811704973203 0.620418184940128 -0.416933215529976 -0.443641307141737 -0.190951362198903 0.487657799177189 0.0231386309382203 -0.0561554351154696 0.280021271638703 0.0295252478892219 1.27316309032576 0.144276093758849 -0.569978309197475 0.467381833018858 -0.237988898887103 -0.700827852078777 0.184841652915221 -0.15886426844415 -0.283116106914033 -0.709355682635573 0.0578014545083968 -0.688628488105704 -0.875655834688416 1.03748252666354 -0.619524984163647 0.464820501373694 -1.11276490252857 0.803549283806435 -1.04770497043789 0.519345600817412
0.157020274210149 0.35868130398059 -0.110614971462469 -0.488297489313022 -0.753642911693948 -0.543449166273229 0.325698695457708 0.532906620320779 0.34596669120036 0.326659259102191 0.21869792184066 -0.576577556269993 -0.231072892068866 0.808918772872647 -0.283558079318976 -0.767575969632424 1.04703905506337 1.97079686259849 -1.56693975676634 -0.297847491971384 -0.209825306528175 -1.62415114340426 -2.91363301705853 0.0203713540363028 0.00946114052185821 -0.617441106128709 -1.50399558437332 0.100691803941377 0.699476995176178 0.408628299502025 -0.145260054430004 0.660114711677241 -0.473826556871266 0.850150504513723 1.10757281948877 0.408575334804283 -0.478121325371649 -0.386105704562782 0.627947399545326 0.535880356699816 -0.227883183135931 -0.0154024426355356 -0.0443592199096743 0.945764382336651 0.34986345313713 1.04275559941105 0.49677106962116 0.604827794760664 0.614818325149757 -0.707060717140217 -0.700340114061223 0.638410241340981 0.196123133534225 -1.43674455930131 0.137250815112747 -0.490764975741314 -0.415920458518301 0.271888619433504 1.20291878850079 -0.348116646552384 0.225809332398138 -1.40884476199036 1.68316281554504 0.0578842439873913 0.162358138723826 0.341495545114292 -0.639551810554445 1.43608250057954 -0.4501816759823 -0.512219277869308 -1.47560007862914 0.503527411015622 1.20316998514979 -0.594601751443748 -0.196609586000863
-0.301299453291197 0.221460056538913 0.236008379145816 -1.01125137444164 0.0382973331200703 -1.09439283727692 0.903986291556249 -0.198081284689572 0.995687209500864 -1.05810584867939 0.246008679721871 0.895123703540909 1.10205369229593 -0.0359167499337046 -0.261543276991578 -0.618386757382565 0.86124892268228 -0.873826495734858 -0.23722759563461 0.674843525632759 0.828286368753688 1.28858738732687 3.23356653087806 0.824760616811293 0.118140329414919 -1.13358362828366 -0.0507532930559891 0.820410569621519 1.11197223183372 1.55233744102096 -0.0828930943983002 -1.02866621848118 -1.51113347727967 -1.18091529902145 -0.988504322312453 -0.458867886411955 0.626928728999438 0.774390675038474 0.0247725661525365 2.03789979220497 0.909653257104438 0.877379758466857 1.08739789763244 -0.562036946968586 0.762265101687984 -0.596441631914817 -0.593425729465733 -0.834276778912359 -0.571362847534075 -0.185677775231028 -0.215956613067247 -0.787121999980614 -1.10245118463917 0.625854522653975 0.698451125545159 0.496539670456269 -0.0633326658798501 -0.523792835656441 -0.731243215422281 -0.277973903249781 -0.877984738727956 0.953737883338441 -0.222702670054379 0.510999290049964 -0.680789969950101 -0.973616614263709 -0.183322903062984 -1.77789197722754 -0.148852912130217 -0.598650465498797 -0.838348375773714 -0.357909716320769 -0.566098516532796 0.334898097813056 -0.27733678421578
0.0940557901126596 0.207665580989189 -0.128769007278746 0.965653654779431 0.321771594519319 -0.284286215357834 0.0433086677010675 -1.03484046242085 -0.85083287493997 0.502414381032494 0.197183713039977 -0.0773212596178994 -1.46369793402786 2.12813029701179 -0.223070594726557 -0.436765923732448 -1.8162062796197 1.95353165668558 0.225518797891107 0.803680667110057 1.4637172172916 2.387945536462 0.0755117181484489 1.39234934396599 1.00742274670342 -1.92712952619184 -1.94361877357181 0.813995156329998 1.44012221577818 0.198976542347518 0.327500266511479 -0.437224351189116 -1.77574099343478 -1.60168922646826 -0.112826633258464 -1.65850029255092 0.0163380665922463 0.794362736960248 0.492749866355715 0.00305601163766527 0.961780289869332 1.15776098436206 0.564646358218011 -0.125886802124932 0.690877430878265 -2.06841105764681 -1.09675567986065 -0.151836161586033 1.1711661950944 -0.428009522222776 0.315371864948973 -0.258345083422596 -0.0325102971163205 -0.122941090755865 1.0188929461969 0.846527050701708 -0.0313684707926732 -1.96392353607067 -2.05977086993995 0.611388732415883 -0.717190344138429 -0.16570288509724 0.484049514865983 0.135604281499453 0.0705520627142774 -0.196656894274574 0.593867187650309 -0.16716507070917 0.278808997124855 -1.26193174619248 0.67670911712215 -1.40611605161593 -0.0994309356029027 0.880030821565962 -0.188523213628643
0.22235300020521 0.369678420736961 -0.341625899977181 1.22506600257254 -0.541380971959467 0.842623861010357 -0.176498427469971 0.219397261538998 -0.348091706864612 -0.083964215421564 -0.523112779221844 0.49404595878929 1.01614675233001 0.306214885773856 -0.59035146300506 -1.4331195628282 0.804017481450065 -0.409005480140798 -1.58787443921406 0.461312747144124 1.79650341205975 -0.748623349587088 0.130803263048324 1.02240738529124 1.17486755329193 -2.66332648351408 -0.0529379582827468 -0.532527639910723 0.550990465057039 -0.306884143580758 -0.0961502096651096 -0.82356068358624 -1.23965006349491 -0.121020220577084 -0.786240626272561 0.157078895331922 -1.97675076311114 0.494444222463086 0.0861661070305969 -0.588473016006508 0.395861493354602 -0.985143120887314 0.0860136406919519 0.293067813665461 -0.125940281043041 1.93191846046436 -0.734302312382145 -0.492418451329554 0.0287683155098439 -0.494171171448514 0.908081028334093 1.04768902960653 0.726009994753171 0.0292210865424814 -0.220014068868525 -0.428026491494868 0.967682511235161 0.677059558301869 -1.06725742854066 0.296424387107302 0.00160925263672783 0.181153921557402 1.00664833083158 0.887686020160935 2.03655536305695 -0.751127345661396 0.392054719981956 1.65683756099609 -0.264678735675856 0.177207023134905 -0.770699601248274 -0.628962213438466 -1.30342341622879 0.205733912182713 -1.07006635729226
0.428448923525886 -0.147817786532603 0.0971061453262942 -0.567740936383158 0.0521283183158103 -0.108832940782622 0.220030523920251 0.0731753579135958 -0.780870880096165 -0.276226325334485 -0.659782268210347 0.243473830425578 -0.872951806891569 -0.154628635285905 -0.70268958691542 -0.869523499708611 0.579482644230113 2.23195164610323 -1.868844704539 -0.635082207129476 -0.867855883060294 -2.85449818913999 -4.22807514729908 0.0979440674133841 1.18676764101174 0.870840418067027 1.009273168692 -0.146899646068351 0.259219515155702 0.333594806294351 0.541872823739953 0.0872421131473418 0.944875038212919 1.41840720392441 -0.010812768755007 0.867457105166132 -1.28245248124523 -0.463996720346681 0.0429571980806159 0.607456746384013 1.00318531377389 -0.827925900276824 0.0707783196755045 1.32709760767864 -0.516666512708337 1.75520431755067 1.30805602750991 -0.0798100861913976 0.857140816174908 -0.18452386472877 -0.543947188698112 -0.233564803964563 0.412656958962783 -0.969303333830134 -0.519889388854907 -1.23121607815499 0.523321038470246 1.26371660508435 1.85271643985626 -0.657766781484143 0.950705525837632 -0.201150666056764 0.984452780045388 -0.527924082080302 0.369687676703557 -0.00758243641312355 -0.706856314544563 0.737856346444693 0.145946024398815 0.113126680842273 -0.779212005194077 -0.380882511190818 1.31371605108316 -0.237046847175812 -1.07821880698157
-0.0177038358854718 -0.0767273350946782 0.0802536012574394 -0.904285824919691 -0.160817534506016 0.656776650168591 0.538497995475104 0.827511695771668 -1.57598566434231 1.4293626688311 -0.167229862475339 0.672417948164332 -0.430917181284727 -0.244021732226004 1.27072799978055 -1.46003719923928 -1.23207148373454 0.756711007510224 0.272300767057194 -0.908842845806952 2.45813096005501 0.565808496246132 2.2317423584141 0.232559503148202 -2.22802608782594 0.529892260532794 -1.31544974504856 1.36470177174477 0.165521879528258 0.567184807056869 -1.1719717212984 -0.36182807551293 -0.743636954693862 -0.957751116188207 -0.986219384114242 -1.17962923388502 -0.161227625248241 0.473897776392016 1.19084772250914 0.806988903837453 -0.15502432785787 -0.437566821953155 -0.692121587054831 -0.971595728223658 0.114281619785264 -0.106411477077126 -0.195273898599073 -0.991509683244025 0.299451602404448 -0.201301332624127 0.300836912071597 1.20881406789167 0.243123389245859 -1.62023921196668 0.808842411148233 -0.103819292209976 0.45099157305942 -0.435184953215874 -1.16807650202273 0.224020359743344 0.434739381268366 -0.36108297020198 -0.485895051761083 0.640190729359728 0.334656928461203 -0.0562626500618693 -0.39004386123905 0.364095273108499 -0.636004975577027 0.909848403733497 1.39739667397264 -0.192293477355273 -0.323864214300486 0.726094326893265 0.25873357690943
0.0862424687550111 0.119430251204097 -0.118056768605375 0.743506856941157 1.11249185151399 -0.585861290765435 -0.544502032473485 -1.59174240481031 0.0830129077436773 0.585342956636078 -0.142695380352458 -0.27002277083393 -0.699562612867188 1.82052470225694 -1.08268378242324 2.65378795282707 0.926562622523783 -0.797531105747977 0.602481150118482 0.418321867629507 -1.64614794801884 -1.13938172002529 -1.04795873818872 0.0478980844714129 0.893466371299921 1.55727909874231 2.33974457619476 -0.0512978524240335 -0.168397399817308 -0.345834279456005 -0.0766638288794247 -0.289573686275602 0.0852520803292761 0.188908107572912 0.168677392806826 -0.0802600290120197 0.644718696796286 0.0388994851691542 -1.14769100692635 -0.413048794882 -0.0102777224637415 0.625427462639659 1.1193638924909 -0.987319815698392 0.207154445944962 -1.31079553651204 -0.55492810751294 -0.122713548243722 -0.887662366024079 0.0938992100110831 -0.487823378135178 -1.38267557332261 0.346002943736193 1.78878110770696 0.782543638948147 0.551026203372506 0.220523404141469 -0.493401126449793 0.505301985500155 -0.125884745243467 -0.371437311500319 -0.920258795051776 0.0684553291701784 -0.167869809721356 -0.00982160899872231 0.635241358332885 0.606313120289083 -1.29574147817476 -0.42983217631157 -0.92928181982144 -1.38943037205598 0.812551739761442 -0.439094827771988 0.749727380713803 0.326300333286426
-0.316799854906536 0.225114363572914 0.241811613091108 -1.37596705442223 -0.0627058312531777 -0.827412965461315 0.85075368500354 -0.158361875146153 0.897223008186841 -1.03238223195915 0.140933661377085 0.884320962083048 1.28402188180356 -0.117189278847216 -0.311234962101082 -0.952900475471718 0.497818536507569 -0.520452974376509 -0.613791684188189 0.187573191501672 1.30581196983083 1.40618032916173 3.46383929605677 0.614247797653208 -0.255776038471936 -1.06081681845119 -0.489811354071778 0.894934984666431 1.10455228905639 1.71881139955766 -0.117253042172652 -0.880954618454245 -1.56855209472527 -1.15425040192047 -0.95577136777747 -0.418703162031212 0.564138822716349 0.810282999504774 0.490189048930917 2.33854130053732 0.917262947196982 0.796486724183767 1.01780819833393 -0.575531374934501 0.82940454094048 -0.108056982249686 -0.472144542052689 -0.829174941546871 -0.646182425069315 -0.24352602379277 -0.124141795311468 -0.350059885317105 -0.642165592676984 -0.395164210537729 0.830854899483982 0.649057174027815 -0.243624239882757 -0.486808307131854 -1.0718255051658 -0.16325956702617 -0.732201979295481 0.623918482974384 -0.129644981672951 0.481338802204372 -0.643884631361944 -1.03456792562664 -0.251544261966439 -1.3622646243181 -0.0958907854902481 -0.621158405157597 -0.753065185112269 -0.212487168254975 -0.653439874210858 0.379854584678333 -0.4141836792307
0.0011994190046869 -0.206875995616543 -0.212024369925193 -0.733517869213163 -0.628061556466672 0.0289878876063075 0.0290439376262479 0.624904757637188 0.165861522080282 0.438325554103816 -0.10410776983554 -0.449022109056011 0.588775377581967 -0.147858924161917 -0.0385930098307648 1.08081484850147 0.115263009354587 -1.33267689865435 1.74029578357709 1.1377809520246 -0.0211627391802312 0.722337947116529 1.3961322060916 1.55064848422744 0.797735765453814 1.1939145327745 0.00450739862190054 0.558720225605143 0.542883009649795 0.931496824049816 -0.152156006653949 -0.665984794270168 -1.23475211450471 -1.37015867827327 -0.124028666830855 -1.69452220054956 -0.276522259155362 0.480735364604372 0.190657485259491 0.117742579961489 -0.443853680153071 0.22391597300896 0.718463039545331 0.2319606935315 0.0860432083630213 -0.730585784683806 -0.576994074766798 1.8083554201753 -0.932612939355142 0.0717062303267189 0.489649374656354 -0.15547169957666 -0.311663307666314 0.591198126838379 -0.277133152950676 0.810347791270943 0.520918086697941 -0.314284031763801 -1.48084924012961 -0.352074600712759 -0.614105872832074 0.023218077984833 0.585799070101097 0.207937860673211 -0.195199079535758 0.535381048724017 -0.262940413727155 -1.1246493065272 -1.08823530549916 -0.747745318311417 -0.983478846671379 -0.771749382126331 -0.434158312254306 0.364758360271004 -0.518607180371226
0.378928473798402 0.0103373720262468 0.0421010211705178 -0.785398076202173 -0.195961411228984 -0.0575957663618267 0.742527267143117 0.177019846921526 -1.04925225952047 -0.366182493575819 -0.695950729013417 0.125628663500987 -0.463232588882173 -0.377017888026949 -0.497287603979235 -2.49634370392481 -0.00382888484840242 3.2596071644542 -0.33940498221459 -0.0940462770358807 0.488164306238118 -1.83335809994181 -2.02637534246283 -0.0740438761124881 1.22221773596291 -0.0237302414697925 0.472175652384857 0.0115072233598643 0.0329036756966358 0.596921399516692 0.452568686923246 0.338200935226606 -0.939667785672314 0.936163373875126 -0.322768924920001 0.378310123807775 -1.70926464134479 -0.1231856025401 0.628594031656106 1.27293349093215 0.994606832511004 -0.836105346535367 -0.38586942030441 1.33140368902709 -0.543099239313877 0.752484373208392 0.455328764740033 0.513750111900156 0.62430389113902 -0.0996307102152589 -0.216547966488636 0.525035449171908 -0.143826665158593 -1.97452624580599 -0.72944164436851 -0.780268985157265 0.453514338177102 0.507070389340292 -0.0399114708502791 -0.103662454998216 0.977416188551225 -0.489996730513874 0.938939392523272 -0.358741467763462 0.0736525544136384 -0.0572432683006422 -0.877587503494892 1.97415317893015 0.196625526832222 0.860144120225015 0.438843888233173 -1.12566206353888 1.08152421549695 -0.409950874284471 -0.61963811264426