-0.647098740576005 1.14151126146554 -0.867645502345356 1.14151126146554 0.196310853882608 0.785243415530434 -0.867645502345356 0.785243415530434 -2.32179997554986
-1.03076567306006 -2.89596070050207 4.05761725268086 -2.89596070050207 -6.72451891472514 -0.694189126754732 4.05761725268086 -0.694189126754732 -3.05022495089201
-11.8418357320222 1.22829036352894 1.32878684781767 1.22829036352894 -5.46589211770378 -4.54467434505708 1.32878684781767 -4.54467434505708 -5.12811226773332
2.76242162901495 -2.33112399919748 -5.79738102411087 -2.33112399919748 7.42996162286779 3.95841260249651 -5.79738102411087 3.95841260249651 2.41579592652361
2.33708293448342 1.01912141077474 -1.30008220071264 1.01912141077474 -2.53120129844052 0.561921579875796 -1.30008220071264 0.561921579875796 3.45070933823727
1.87142659116001 -1.80724872452214 0.0205369173241153 -1.80724872452214 -0.0359396053172017 1.98437963644264 0.0205369173241153 1.98437963644264 -10.0887606354716
-3.26004928401212 1.60599132117856 2.57297905329664 1.60599132117856 -13.3625263800878 -1.67950500841561 2.57297905329664 -1.67950500841561 -7.26654523843118
1.77971087118737 -3.95320834318343 0.145752183416207 -3.95320834318343 -3.22956153780121 4.1910145371783 0.145752183416207 4.1910145371783 0.378444265712256
-12.5552136319751 -1.33625957319923 2.751288131766 -1.33625957319923 -4.42231589277726 -5.17906078791535 2.751288131766 -5.17906078791535 -2.7231563512776
5.26796099769926 -1.14676701990732 -0.709050144005197 -1.14676701990732 -4.08791725623213 3.50941425065388 -0.709050144005197 3.50941425065388 2.43176042167847
-1.41464894386505 0.94939712092446 -4.20852156588902 0.94939712092446 -0.382592869626275 1.93658119193547 -4.20852156588902 1.93658119193547 1.64373232876474
-5.92064236392582 1.06765681972433 -4.02910660297659 1.06765681972433 3.90947486630558 0.00225720257869837 -4.02910660297659 0.00225720257869837 -13.2813799730612
-1.82523271132231 1.43374103602448 -0.194449507598257 1.43374103602448 4.71604872428307 0.0077779803039303 -0.194449507598257 0.0077779803039303 1.22114290771706
1.96203033972021 -1.03788561448968 3.20607131599208 -1.03788561448968 -5.50221551791102 -0.244068991535243 3.20607131599208 -0.244068991535243 -6.90975902249291
0.903669672434157 0.558709118319947 1.27614241798079 0.558709118319947 4.15434090629567 0.469823576769046 1.27614241798079 0.469823576769046 -4.23476115817505
0.553953146412059 0.857951824321116 -0.130606839397965 0.857951824321116 -0.387316834076724 2.38695258210074 -0.130606839397965 2.38695258210074 -4.40685490865203
-0.915719649976807 1.2367478031296 4.51544517057529 1.2367478031296 -3.33132493353632 -3.61025103381661 4.51544517057529 -3.61025103381661 0.365761584329817
4.58343321776425 0.954585832950385 -1.71493832023841 0.954585832950385 -0.897737048854084 -4.57395842041487 -1.71493832023841 -4.57395842041487 -0.208445541686436
-2.48626697461793 1.52601772554838 0.0363337553701994 1.52601772554838 4.32112162081301 -0.337384871294709 0.0363337553701994 -0.337384871294709 1.34434894869738
-4.36543212826789 1.28943368913251 4.04436831812245 1.28943368913251 -10.1989544206686 0.781945731160678 4.04436831812245 0.781945731160678 -7.89454481559241
-0.999202390745559 -2.99305499733578 2.84738540050727 -2.99305499733578 -4.04460739944159 5.7471208123748 2.84738540050727 5.7471208123748 -7.55205816057805
1.59809514622771 -2.83045707491078 -5.23157515531261 -2.83045707491078 7.88976658427845 3.44531291889888 -5.23157515531261 3.44531291889888 1.65109996036462
6.09959473676524 0.599113454246205 -2.41453051603535 0.599113454246205 -0.371863523325231 -3.28221207046089 -2.41453051603535 -3.28221207046089 10.298553687646
7.96161189297015 1.76837895823576 6.64118754565714 1.76837895823576 2.38301435461815 -0.669327529111327 6.64118754565714 -0.669327529111327 -0.77871179456921
-1.29567825347711 -3.4364799768148 -3.78039457495996 -3.4364799768148 9.22970805254681 1.04240781298261 -3.78039457495996 1.04240781298261 0.70915723338459
-0.950101974550046 -1.81032943799401 1.72302277006238 -1.81032943799401 -5.42328478445864 6.0164565577588 1.72302277006238 6.0164565577588 -14.6238668785473
-2.82427710319514 -1.19777216805335 5.55208933379538 -1.19777216805335 -12.6690532674636 -2.80819962442932 5.55208933379538 -2.80819962442932 -11.2488759764831
3.88031231281839 -2.29944433352201 -0.760384433016937 -2.29944433352201 -8.45045792569338 1.94146265887142 -0.760384433016937 1.94146265887142 -4.98822640078809
3.11919824158003 2.80894899031347 -4.02608066835923 2.80894899031347 -1.78989952653789 4.89000550650152 -4.02608066835923 4.89000550650152 5.79927446598277
-3.91312244081399 1.39219339643481 4.55885221652586 1.39219339643481 -10.8715065038852 1.59366108645692 4.55885221652586 1.59366108645692 -7.37423403862966
-10.355923874682 -1.80501481925007 2.36086375365489 -1.80501481925007 -3.30520925511685 -0.0258997711371423 2.36086375365489 -0.0258997711371423 6.56260354813436
-6.41509787183633 0.771847386078148 1.76139531694757 0.771847386078148 -9.76259715797745 -2.37774231388909 1.76139531694757 -2.37774231388909 -3.78007309592119
0.538973156073655 -3.2072885346649 -4.69145599400073 -3.2072885346649 8.40585720260686 2.76655186516625 -4.69145599400073 2.76655186516625 1.14166727641218
12.9674910660137 3.95738146973715 0.196859537397639 3.95738146973715 -2.62479383196852 -3.20780092349229 0.196859537397639 -3.20780092349229 10.8626083199928
-4.68405608967927 -3.49112291652783 3.6319368545613 -3.49112291652783 -15.7711610597483 0.688128489635242 3.6319368545613 0.688128489635242 -10.1731428062291
-12.649535101742 -0.960084554992403 2.65005795296149 -0.960084554992403 -4.58426338684969 -5.41802102671151 2.65005795296149 -5.41802102671151 -3.5399608884369
-5.57091518196244 1.72486501383356 -1.4332332123617 1.72486501383356 -8.14076464621447 -1.31608197587301 -1.4332332123617 -1.31608197587301 -2.50504239725828
1.40614222193249 -5.27108396687447 1.55949229789186 -5.27108396687447 -8.74615263734349 0.171544152768104 1.55949229789186 0.171544152768104 -3.83375189898414
-0.264417988940861 0.00528835977881722 8.24984125495486 0.00528835977881722 -3.79704232119076 0.502394178987635 8.24984125495486 0.502394178987635 -7.02029760637985
4.9368193008899 -3.81263827763876 2.25520290465594 -3.81263827763876 0.355724623990219 0.401330345014606 2.25520290465594 0.401330345014606 -3.98822030358265
-4.75860861943742 -0.779687458787315 2.91754016836544 -0.779687458787315 -11.5066778191999 -3.54883549789968 2.91754016836544 -3.54883549789968 -2.90999480586104
-0.303396254313886 1.47476961879533 6.36340665569647 1.47476961879533 -2.40606420812404 -4.28184452827337 6.36340665569647 -4.28184452827337 -2.19500594425351
0.0478373304197449 -3.33798261151109 -4.44089884063299 -3.33798261151109 8.65589917650607 2.3732631147129 -4.44089884063299 2.3732631147129 0.972692385201481
-0.451491140370534 1.71864787867463 0.0127780511425623 1.71864787867463 0.679366385746228 -0.0383341534276868 0.0127780511425623 -0.0383341534276868 1.42262302720527
-8.82014292072486 0.435825079541693 0.882280039072207 0.435825079541693 -5.3707468643522 6.84564271280122 0.882280039072207 6.84564271280122 -7.30804249231497
-2.90827895221276 1.49568631828085 0.020773421087234 1.49568631828085 4.11573405290823 -0.573865757534839 0.020773421087234 -0.573865757534839 1.53982983809122
2.23425899886905 -1.49776434904024 -0.00900910886640745 -1.49776434904024 -2.25452949381846 1.40316870594296 -0.00900910886640745 1.40316870594296 -2.24326810773545
-0.559532678458617 -4.42263954598332 6.25977184025578 -4.42263954598332 -8.46759453400707 1.12139674307748 6.25977184025578 1.12139674307748 -5.35053123776053
-3.77174347475037 -1.70978535277351 -2.98674768385436 -1.70978535277351 8.97099641856165 -2.07002314722579 -2.98674768385436 -2.07002314722579 0.559175083925928
-0.823742475121754 -1.02175749317987 -2.96758507063094 -1.02175749317987 3.45074171469273 3.68307933588092 -2.96758507063094 3.68307933588092 4.70747702930156
1.21162823448934 1.47606230355499 -6.60001426479435 1.47606230355499 9.1446503064589 -0.58955792447424 -6.60001426479435 -0.58955792447424 3.98601846730929
-3.74819878797223 -2.34997627291554 5.80944077479576 -2.34997627291554 -16.5380582756036 0.114959021314412 5.80944077479576 0.114959021314412 -13.6480419490715
-11.4197994936814 0.571388617905864 0.558100510512705 0.571388617905864 3.16522718105063 3.47351127257193 0.558100510512705 3.47351127257193 -6.76098904163962
-0.921457675785354 0.685916528323367 -1.29935885742766 0.685916528323367 5.30097000002361 0.150125126953794 -1.29935885742766 0.150125126953794 2.15093069825177
-1.4396994376614 -0.142281853973237 -0.320737060651534 -0.142281853973237 -0.590831427515984 0.913980045014523 -0.320737060651534 0.913980045014523 -1.01526543258869
-3.55053547751781 2.05009998283455 -4.50378245021262 2.05009998283455 -3.18409248541695 1.52767112247454 -4.50378245021262 1.52767112247454 6.28152615513437
-6.78694916679688 -0.714711894015924 5.74583341567132 -0.714711894015924 -12.6115697203912 -2.3861247485256 5.74583341567132 -2.3861247485256 -6.53089096854708
5.70668396842207 -0.456007541125643 -6.83484135340343 -0.456007541125643 6.66087315852312 3.90110497610377 -6.83484135340343 3.90110497610377 6.52907907149259
-9.21672468471461 -0.267151440136655 1.89398409052106 -0.267151440136655 -6.44353324269903 1.38559888727594 1.89398409052106 1.38559888727594 3.54474075046995
4.39966734733669 2.35596593652404 -4.65134323373095 2.35596593652404 4.03380517915244 2.19750334138692 -4.65134323373095 2.19750334138692 -1.19546046037273
-3.49875803879911 -1.31269993388734 4.21768092348386 -1.31269993388734 -5.91114371851905 -1.54701554074755 4.21768092348386 -1.54701554074755 -3.80762861147849
-14.6118630730678 1.32714469328499 -0.780361079651575 1.32714469328499 3.39483612542301 4.23890015035226 -0.780361079651575 4.23890015035226 -6.75516648882061
5.96147338114996 1.86296043160936 9.72150478748267 1.86296043160936 -0.128570508660365 1.24109899176229 9.72150478748267 1.24109899176229 -6.5098659589054
1.97590889824573 2.10019585076697 3.46735232850054 2.10019585076697 -7.72100986682928 -1.93278893512612 3.46735232850054 -1.93278893512612 -1.53963633021202
-0.405623318155461 0.995857249061164 0.57463303405357 0.995857249061164 -6.55237667789591 -4.42025410810438 0.57463303405357 -4.42025410810438 -2.65215246486263
7.89693122689711 2.16035796382531 8.4925317296204 2.16035796382531 1.6483505141158 0.357882758215317 8.4925317296204 0.357882758215317 -3.69115574714046
-7.91140240560425 -0.140706150166787 0.730079081054083 -0.140706150166787 -4.06985902274876 6.44327974443003 0.730079081054083 6.44327974443003 -4.99108608138791
1.00898180863032 -3.00640635599518 -0.767647737354875 -3.00640635599518 -4.84978787914167 -0.189986396535989 -0.767647737354875 -0.189986396535989 2.42617763143932
8.06057024646356 1.9499697750177 7.3228143021721 1.9499697750177 2.1871987182351 -0.331077755918781 7.3228143021721 -0.331077755918781 -1.78573435279028
-0.660381155026276 -6.10044409643154 7.85992115982323 -6.10044409643154 -8.97979829334681 5.76794449390083 7.85992115982323 5.76794449390083 -9.88493610023597
-4.14212892077173 1.0405251531929 -1.19231001239186 1.0405251531929 -2.41657473198351 1.99117769238641 -1.19231001239186 1.99117769238641 -1.24823074999148
4.46454268501831 -0.667740297237522 0.175993566713765 -0.667740297237522 3.72692258923268 -1.04302069684776 0.175993566713765 -1.04302069684776 5.69649765201467
-7.65068067076117 0.44316090771907 -2.14399605817791 0.44316090771907 2.05987755254605 -3.43654870569186 -2.14399605817791 -3.43654870569186 -8.08973823674209
-9.27043600210797 -2.20601303833481 1.96090047851983 -2.20601303833481 -1.43281244314609 -0.161415588170839 1.96090047851983 -0.161415588170839 4.88431613094725
-9.17131011891355 -0.375644074587309 -0.893153730534719 -0.375644074587309 -5.09317418150559 0.665369557646669 -0.893153730534719 0.665369557646669 -1.40267095936325
-5.37364073774906 1.15835851572551 2.67773011146413 1.15835851572551 -8.67210556952349 -0.438929572102267 2.67773011146413 -0.438929572102267 -7.93969054388539
4.07910365614792 -5.42003187973369 1.52329446199344 -5.42003187973369 -6.37745463137394 -0.413005892864418 1.52329446199344 -0.413005892864418 1.41602020410658
-9.31163869046516 2.40368971335822 -0.263235930998301 2.40368971335822 -8.20817493931066 6.06772115695074 -0.263235930998301 6.06772115695074 -12.9091964141086
9.16247062241492 3.70662430277799 2.43215485072693 3.70662430277799 -7.42594252440112 -2.86628687523038 2.43215485072693 -2.86628687523038 9.20562994648836
1.23741822010239 -4.03950575983839 0.196861989561744 -4.03950575983839 1.94561005268165 1.66693528823711 0.196861989561744 1.66693528823711 0.214758534067357
-1.9697011035052 0.274027454776352 -4.56162996146498 0.274027454776352 3.2244583964285 -2.01502895316746 -4.56162996146498 -2.01502895316746 -9.5003052178478
-0.0723491277398123 1.70658824845087 0.0851166208703674 1.70658824845087 1.10864398683654 0.0510699725222204 0.0851166208703674 0.0510699725222204 0.551130120135629
-0.683103558116781 0.426939723822988 -1.58614576183934 0.426939723822988 5.38979057408051 0.108675566064033 -1.58614576183934 0.108675566064033 2.59010099119279
-13.6318481618428 1.06777563546382 -4.06909093514592 1.06777563546382 3.85396169163724 0.283340954865093 -4.06909093514592 0.283340954865093 1.938786718938
4.05534825290093 -2.17479243846422 -0.381228321566081 -2.17479243846422 -4.23444880665681 4.03487961818598 -0.381228321566081 4.03487961818598 1.5351476036218
0.986449600488391 -0.268314291332842 -5.03746929316072 -0.268314291332842 -4.02471436999264 3.20661883465426 -5.03746929316072 3.20661883465426 -0.181506726489864
-7.67251278342958 -1.52776242832566 6.15598390237102 -1.52776242832566 -11.5593201378463 -2.86736293992738 6.15598390237102 -2.86736293992738 -5.32750979142237
-5.59170802949717 1.36609565236767 -1.08491868314248 1.36609565236767 2.5862975942883 -4.45373708801032 -1.08491868314248 -4.45373708801032 -4.46434753967919
-2.1544124681313 0.0735537296388441 -2.94926728842204 0.0735537296388441 -1.18635047804587 1.74630790368352 -2.94926728842204 1.74630790368352 1.63004555683503
-2.27321537826549 0.281732464099129 2.91410296835359 0.281732464099129 -1.72265422704887 0.5118498202717 2.91410296835359 0.5118498202717 4.98730980340367
-3.71862528291363 -1.13727515764784 -1.2192647620364 -1.13727515764784 0.901885648274216 4.5411661527473 -1.2192647620364 4.5411661527473 1.98097463506565
5.38588016806243 -0.186523988504327 1.43519846710274 -0.186523988504327 3.31339140690325 -1.35748013855927 1.43519846710274 -1.35748013855927 4.88848286538423
-1.40743224718512 1.52275258028781 -1.30521649738955 1.52275258028781 -5.20776140625107 -3.07433524385129 -1.30521649738955 -3.07433524385129 -5.5799315721734
-5.23043182131546 4.76617605566299 -3.95304169688706 4.76617605566299 -0.879064171649658 -2.7058694033591 -3.95304169688706 -2.7058694033591 -3.0245301655821
-2.37804709345812 0.511269384140049 2.33723147035451 0.511269384140049 -1.62188397069637 0.274968408277001 2.33723147035451 0.274968408277001 5.31462376622891
-5.01305303655571 1.19358405632279 3.17597148899803 1.19358405632279 -9.24508694060455 -0.0570844548676116 3.17597148899803 -0.0570844548676116 -8.04371864043618
6.53461600180654 -3.94106880479079 1.75350568191239 -3.94106880479079 4.47878175404718 4.688252260384 1.75350568191239 4.688252260384 5.81982489255407
-2.38391752039976 -1.06487000350068 3.75915164552375 -1.06487000350068 -9.01928839648438 -3.68156061511792 3.75915164552375 -3.68156061511792 -6.37584225714099
-5.9510060293098 1.35297718432417 -0.837432686622311 1.35297718432417 -1.6879502589731 -1.8842235449002 -0.837432686622311 -1.8842235449002 -0.0549565200595892
0.853506748411542 -3.04666713028347 -1.15707358160946 -3.04666713028347 0.629131263004384 3.37663107941164 -1.15707358160946 3.37663107941164 -5.82056406262098
-3.78925689950999 1.43677065556642 4.62242911090667 1.43677065556642 -11.0891868012209 1.95266676169439 4.62242911090667 1.95266676169439 -7.0239254849324
-5.47314786731907 -0.285809942084508 -3.14841030689942 -0.285809942084508 1.92415354710436 2.47101823943929 -3.14841030689942 2.47101823943929 -13.1967677195555
0.0849035382454134 1.46458603473338 -1.01176716409118 1.46458603473338 -2.57069046354168 -0.929222057463691 -1.01176716409118 -0.929222057463691 -4.55413145421926
6.6484312209482 3.10498053186921 2.91378714936495 3.10498053186921 -8.63174390879241 -3.01830619846728 2.91378714936495 -3.01830619846728 7.46164040786632
6.27057442130415 -2.13686119554691 1.099416232725 -2.13686119554691 3.35792473585943 0.810216973177293 1.099416232725 0.810216973177293 -4.47799805855212
-11.7104561314418 1.90531297016165 0.416850756545505 1.90531297016165 3.54221472147448 -4.10547159739207 0.416850756545505 -4.10547159739207 -1.17734920995047
-1.73377964934539 0.655193673763536 -3.81999199685239 0.655193673763536 -0.707230716445117 1.88042949690257 -3.81999199685239 1.88042949690257 1.68174260666381
-3.41041821985373 1.58926620195505 2.29906302880687 1.58926620195505 -12.9488433073882 -1.74762724698972 2.29906302880687 -1.74762724698972 -6.81518068809908
5.70952126516013 -0.74105102794919 -6.97009917035484 -0.74105102794919 6.7723097500837 4.21159605564006 -6.97009917035484 4.21159605564006 5.68051215018703
-6.09942572968045 1.91314578380846 -4.17043140091737 1.91314578380846 5.53114218916457 -2.84594585828075 -4.17043140091737 -2.84594585828075 -12.3505446753552
-4.8585290019481 1.21039022865762 1.81558534298643 1.21039022865762 -11.2045936587418 -2.06727863819794 1.81558534298643 -2.06727863819794 -5.04517796244203
0.37761470985509 -2.04220200227753 0.770642265010387 -2.04220200227753 -2.49944974618369 3.92000032135284 0.770642265010387 3.92000032135284 -13.0906432749764
1.89344753600589 0.126375094462994 6.31875472314968 0.126375094462994 1.85204879816456 4.54732451972876 6.31875472314968 4.54732451972876 -1.53175330012904
-5.80443089686108 0.582944999555445 0.147612682290864 0.582944999555445 -10.0376623957787 -2.24171124292566 0.147612682290864 -2.24171124292566 -2.57696716541677
-4.18299609430925 -0.722321490512165 -3.0698663346767 -0.722321490512165 8.48188705463352 -2.6467153122498 -3.0698663346767 -2.6467153122498 0.522874511788657
0.643224334583924 1.93906314002307 -5.19039782396006 1.93906314002307 1.38504510001648 2.10104299070296 -5.19039782396006 2.10104299070296 0.913190752383746
-2.46457305339304 -2.18998746864001 -0.426388997462021 -2.18998746864001 -0.832686366771381 5.17247804774608 -0.426388997462021 5.17247804774608 -11.6710035535678
-3.14468526415287 1.23391459888665 -1.10812718832054 1.23391459888665 -1.90877403970168 2.22024762777015 -1.10812718832054 2.22024762777015 -0.836586111542891
-6.77428016056093 -0.0558319793452824 -2.79691629863034 -0.0558319793452824 3.16115349721623 -1.12195691827187 -2.79691629863034 -1.12195691827187 -4.09434515198738
4.66271955826557 -1.66598816269533 -0.539974657955014 -1.66598816269533 -4.21743239957281 3.81565030810865 -0.539974657955014 3.81565030810865 1.95260978208377
5.00603202223434 -2.15435741227863 0.797709167770675 -2.15435741227863 -10.0581900847819 -0.507386443445974 0.797709167770675 -0.507386443445974 0.265903055923558
-3.86496938359269 1.5588281832829 3.92146727491431 1.5588281832829 -11.2482165449409 2.74528390103694 3.92146727491431 2.74528390103694 -5.78846577449696
2.46974327026705 -1.90587494372206 0.302233423028114 -1.90587494372206 -2.31862655875299 1.24727673831751 0.302233423028114 1.24727673831751 -2.43365569736817
-2.3071789629874 4.02707600812346 -3.35342910235281 4.02707600812346 -2.12951384498195 0.0740271325022695 -3.35342910235281 0.0740271325022695 -3.44966437460576
-1.95281305143359 -0.117715318493306 1.50087031078965 -0.117715318493306 4.21883293242972 -0.71259808873626 1.50087031078965 -0.71259808873626 -4.80110334711982
-2.90632456144251 3.81331530468179 -3.27208649604582 3.81331530468179 -2.96069457874841 -0.0494272884599066 -3.27208649604582 -0.0494272884599066 -3.2795005893148
4.12394755123867 -2.92972107285914 -2.72567158464681 -2.92972107285914 8.7870153292278 4.19912367847479 -2.72567158464681 4.19912367847479 9.79007965549262
-12.6198106319291 -0.712476528230713 2.54135328573632 -0.712476528230713 -4.7180532302522 -5.38845437295748 2.54135328573632 -5.38845437295748 -3.82044500570957
-8.58195638801322 0.59645314280197 -1.72172041221187 0.59645314280197 1.98407780835844 -3.66275521026502 -1.72172041221187 -3.66275521026502 -7.40339777251105
0.365914614961282 -0.431726596069426 -5.22547129998665 -0.431726596069426 -3.51699227041923 3.21688963656609 -5.22547129998665 3.21688963656609 0.571247996018692
1.02719455747535 0.813283938289758 1.08014273054108 0.813283938289758 3.81862224150113 0.470179776823766 1.08014273054108 0.470179776823766 -3.76779199535802
-2.40976690901418 0.738165464559998 1.80035123478441 0.738165464559998 -1.47847675895883 0.0815415338758138 1.80035123478441 0.0815415338758138 5.49117855758441
5.21736561217958 2.21903145024347 3.17224634900877 2.21903145024347 5.09848892734511 5.87999305912728 3.17224634900877 5.87999305912728 -3.34175569590236
-0.20199012306047 -5.75091419334235 8.18872602338251 -5.75091419334235 -9.59801343370096 3.65903947061265 8.18872602338251 3.65903947061265 -8.2606995155075
1.91346985606944 -0.711936554429593 -0.496334317125994 -0.711936554429593 -1.89550300296081 1.7674891745618 -0.496334317125994 1.7674891745618 -1.96287870211818
-5.20929558336244 0.434342999370772 4.78059340216532 0.434342999370772 -13.7071881619607 -1.84172713369555 4.78059340216532 -1.84172713369555 -7.73638212515602
6.55223377479957 1.54306495545138 -2.81736784658991 1.54306495545138 5.18525430976005 1.98559559582858 -2.81736784658991 1.98559559582858 -3.09076373959782
1.65077402282863 -0.168231747549415 -4.75780411038189 -0.168231747549415 -4.56854339438879 3.16223112971791 -4.75780411038189 3.16223112971791 -0.959446685242756
-15.3456224838205 1.4406419447985 -1.26818940996995 1.4406419447985 3.4357851169688 4.25559793638452 -1.26818940996995 4.25559793638452 -6.46829661403083
5.68505380003108 -2.44148401993709 0.978219457488666 -2.44148401993709 -10.0314915003408 -0.379364886560701 0.978219457488666 -0.379364886560701 0.0704534789327017
-5.35480360643145 -0.979860204935528 -0.307199415601409 -0.979860204935528 -0.879225913617825 5.22768660687225 -0.307199415601409 5.22768660687225 -0.219806478404456
7.19599202367789 -3.8264573896596 2.72637795901609 -3.8264573896596 3.25259705674517 4.31586280565454 2.72637795901609 4.31586280565454 4.27255259184968
-4.47794269174746 2.20911839459541 -3.83746119159449 2.20911839459541 6.18770262859649 -3.16441283550154 -3.83746119159449 -3.16441283550154 0.184545516993229
11.2519137936855 3.99522641786136 1.5054843056539 3.99522641786136 -5.39697146883995 -2.91228980808007 1.5054843056539 -2.91228980808007 10.1563260552853
14.5740132782245 3.26554654366855 -1.96537523461533 3.26554654366855 1.85450791368831 -3.67625957346637 -1.96537523461533 -3.67625957346637 11.802330255049
-9.69653627528454 2.05369712058153 0.210158125033602 2.05369712058153 -7.8982211800603 6.66387472416674 0.210158125033602 6.66387472416674 -12.2929201997503
-4.23130855112276 -3.72933343729391 0.520372107529382 -3.72933343729391 -9.46656732990321 -0.838377284352894 0.520372107529382 -0.838377284352894 -1.2930458429518
-5.50645066671541 0.23637246236367 -3.0687311852953 0.23637246236367 2.39250040166358 -2.90018734256642 -3.0687311852953 -2.90018734256642 -9.0664254911839
-3.73309710699281 1.5158636737486 2.08148444753539 1.5158636737486 -12.4464851271783 -1.8326113070692 2.08148444753539 -1.8326113070692 -6.27839058903337
4.21091205483405 -1.87635169373456 -0.865220835582923 -1.87635169373456 3.68102828866344 -0.532443591127953 -0.865220835582923 -0.532443591127953 -0.780746611990507
-5.98217728231127 1.44810258231175 -4.18165035859447 1.44810258231175 4.4911512225207 -0.822323463278438 -4.18165035859447 -0.822323463278438 -13.1729893252104
-1.19301382143848 4.22597473243569 -3.30846100996857 4.22597473243569 -0.713348470550844 0.270580454346872 -3.30846100996857 0.270580454346872 -3.72909062536235
-6.65585210304424 1.05483963469404 -3.47804806502392 1.05483963469404 3.51524644005091 -2.21861736768141 -3.47804806502392 -2.21861736768141 -3.86331694923207
-5.07570267249277 -0.593002886489255 2.41221513148171 -0.593002886489255 -11.3751019793935 -3.35448666721676 2.41221513148171 -3.35448666721676 -2.86701819272983
4.46312435318742 2.0854479864596 1.04715169596113 2.0854479864596 3.37612333264425 4.84390678808237 1.04715169596113 4.84390678808237 -3.01305170867464
-1.80850152279291 1.69563422891759 -1.56176836873989 1.69563422891759 -5.22601818850607 -2.49095492762042 -1.56176836873989 -2.49095492762042 -6.18932741762799
3.57139238740289 2.9956900482067 -0.208883149619855 2.9956900482067 -2.82246987535121 0.277661747665417 -0.208883149619855 0.277661747665417 1.98438992138862
-3.55049397722431 1.16219769108242 -1.17218220732884 1.16219769108242 -2.10273912149449 2.12071125073803 -1.17218220732884 2.12071125073803 -1.05835872211973
-2.50131783816627 -3.04705991194801 -3.27177723644637 -3.04705991194801 9.40334994775877 -0.395930524116159 -3.27177723644637 -0.395930524116159 0.625998261102575
-8.65146425216143 -2.58340391612585 6.28637615993354 -2.58340391612585 -9.80741855049293 -3.51544454892098 6.28637615993354 -3.51544454892098 -3.17117728815882
6.00596534306887 -3.98420860729614 1.63627511815207 -3.98420860729614 -8.82025071926452 -0.207567024872668 1.63627511815207 -0.207567024872668 0.248002159588122
-9.4130561151676 -3.25986073132943 4.68431435583709 -3.25986073132943 -7.05285030457985 -3.4236867817114 4.68431435583709 -3.4236867817114 1.1384522145188
-0.604751058292312 1.46302221089057 6.00261639955644 1.46302221089057 -1.61619060120041 -4.72181175644827 6.00261639955644 -4.72181175644827 -3.38554959271067
-1.08592610653079 -1.29830279895194 -1.63890692830661 -1.29830279895194 9.60904355520602 -3.00933766053366 -1.63890692830661 -3.00933766053366 -3.4000306324405
1.74723549579834 -0.299306812603816 -1.41211419279749 -0.299306812603816 -3.06981346260324 0.42721570687895 -1.41211419279749 0.42721570687895 3.58144903970378
-11.3239831542048 -1.02999635656648 2.71345268403008 -1.02999635656648 -6.55452226905944 0.392474433740033 2.71345268403008 0.392474433740033 7.34943241658367
3.46406367097577 3.12552475750119 -4.5798116393286 3.12552475750119 -1.12290019891919 4.41769441315767 -4.5798116393286 4.41769441315767 5.88866983297326
-1.6761514973668 -0.830055885059636 -1.48166980449051 -0.830055885059636 9.83636273454728 -3.20393551769396 -1.48166980449051 -3.20393551769396 -3.35430796063954
-3.50560849040196 2.2219759078262 -1.95312473036681 2.2219759078262 -5.85410259938553 -0.32683868632319 -1.95312473036681 -0.32683868632319 -8.22104727937121
-8.38988167090348 -0.103899463416761 -0.945085503771695 -0.103899463416761 -4.70145071960845 0.927102904334179 -0.945085503771695 0.927102904334179 -1.51453448595971
2.85415243558895 -5.70830487117791 0.981700041106979 -5.70830487117791 -5.03154707717228 -0.414614458778152 0.981700041106979 -0.414614458778152 2.08377202185923
4.36245015322346 -1.50111320598294 -0.968294866657937 -1.50111320598294 3.50942848497718 -0.645529911105291 -0.968294866657937 -0.645529911105291 -2.50270921884869
-8.37453334108718 1.93677475486478 0.466036425389337 1.93677475486478 8.00735312714407 -3.60926045463864 0.466036425389337 -3.60926045463864 -1.27504338028598
4.06722811430504 1.16143430408493 -0.856723403013222 1.16143430408493 1.94087595682634 -0.457066351607569 -0.856723403013222 -0.457066351607569 0.481354901692996
0.870816228302812 3.19713958105461 -6.78407309287333 3.19713958105461 5.15440272276378 -1.8287140794359 -6.78407309287333 -1.8287140794359 -5.00097319682472
-2.34349398683973 -0.636533972010385 -1.62590325434862 -0.636533972010385 -1.49478202415922 1.48762995705798 -1.62590325434862 1.48762995705798 1.26114783218537
-16.9892373304066 1.63959119231707 -2.77856407227884 1.63959119231707 3.60498160378599 3.9917026281451 -2.77856407227884 3.9917026281451 -4.93201744764843
-3.49483436626614 3.5418611743108 -3.12109499706913 3.5418611743108 -3.83639749837997 -0.193057422499121 -3.12109499706913 -0.193057422499121 -3.09881914062692
-1.22914220219784 1.40095777884915 5.10424428482585 1.40095777884915 -0.692548939732975 -5.17561383205024 5.10424428482585 -5.17561383205024 -4.42491192791221
-2.98507855426822 2.9077882068169 -2.31662149522985 2.9077882068169 4.06505449027708 -3.00387890905367 -2.31662149522985 -3.00387890905367 -1.34944768793371
5.09820825373262 2.26871430734336 -4.28845176249622 2.26871430734336 4.46064136120741 2.1802926215187 -4.28845176249622 2.1802926215187 -1.70328089535932
-5.48747335210148 1.33783343650947 -0.808983428339388 1.33783343650947 -1.62058492602615 -1.99758691204839 -0.808983428339388 -1.99758691204839 0.377001986022239
-4.7246348116853 3.00000583393858 -4.72713065680505 3.00000583393858 -3.30699478366774 2.08902236523011 -4.72713065680505 2.08902236523011 4.04576493911351
3.20641440781658 4.19862033977322 -8.66354703357809 4.19862033977322 15.9182475490532 -1.65797181703577 -8.66354703357809 -1.65797181703577 11.0903710662859
7.35275089123308 -3.45807368355777 2.96499408169369 -3.45807368355777 2.40892193157385 3.6622564261799 2.96499408169369 3.6622564261799 2.88679643558309
6.1052458168537 -2.77658785819676 1.16638339852125 -2.77658785819676 -9.89125596657814 -0.284153728178031 1.16638339852125 -0.284153728178031 -0.0270622598264792
-11.6153774639451 2.02492242202365 0.562591284754815 2.02492242202365 4.07218601420001 -4.02141062748929 0.562591284754815 -4.02141062748929 -0.662111042707833
6.818489102372 -0.4124736564125 -0.453951454264037 -0.4124736564125 4.65473064778352 1.36415868489497 -0.453951454264037 1.36415868489497 -4.26760453450252