0.0646492128 -0.4016339352 3.3297579552 3.1474225564 4.8033209979 4.1966701369 2.3171820032 2.1105243501 2.4630022751 7.298273816 1.4123981971 0.700222753 8.0530147492 4.1308904754 2.3869599608 0.9638957168 4.1539941559 1.301257905 4.1231559075 1.5640683323 4.6489802668 9.4370776066 2.1386305575 3.5491160648 6.2760768857 4.6578008168 0.2446007774 1.8424112013 4.2944002892 2.6200821973 3.7003132208 1.5691243778 1.1806280614 8.5365703326 2.0237677118 2.2510335043 6.694292128 4.6594261845 3.7140742849 4.7564720958 4.826292258 0.4059441444 0.5024433855 1.741599 3.2962402866 5.6445505382 1.3963854669 4.5076547285 9.9006773673 4.5604381241 1.5667070885 1.5426113539 5.1627231458 0.2680953773 3.3384515438 0.5016890297 3.7735591469 9.2198085141 3.6047728115 3.9859967886 6.7819550444 3.3559935666 1.0050038247 8.8562606926 1.0949488581 4.5500934902 7.0698673787 5.7134871222 1.122596388 1.2070955863 2.6883253061 0.8898959765 3.6017911625 2.8614008 3.8784233529