0.0937737402416753 -0.506342253301434 1.07575671986712 0.0311756381552637 -0.0129511541487864 -0.0246514672562434 -0.0496014394351966 0.0181260108063069 -0.0549542163395002 0.0231874818730307 0.00653419819616567 -0.0229188017315735 0.00649640299923342 -0.0232494454271849 -0.0805935009196465 0.00428962629671945 0.117965751600518 -0.0496500332598237 0.00685275771316612 -0.0191737348028984 -0.0670736190455938 -0.030496353051216 -0.0269078662241174 -0.0659981271492154 0.000765931235790412 0.032940185342652 -0.00877645610396298 0.0244581203984675 -0.00808714370276993 -0.0807914757607202 -0.0818409995285941 0.0309632651439301 -0.00250579584559025 -0.0684663849080566 0.148730270572824 -0.0166967352978279 0.0493461290232664 -0.00636270570396285 -0.0425054554887113 0.0296432614633165 0.00388519197852599 -0.0438241736184089 0.0164434817673635 -0.109524052955098 -0.152785412382454 -0.0514716589078852 0.00543942303604631 0.0193118029712835 -0.00866924115756332 0.211850563441341 0.0345692354634872 -0.0165910630125275 0.0327075006268446 -0.0996001141034566 -0.00739577442011118 0.0265589677054978 -0.0306647602212202 0.0947037077743554 0.00861884756165364 -0.0484444436107398 0.0147794646616114 0.00801823817366895 -0.0166615112027278 0.0325650615853448 0.00949867860860725 -0.0728789098723517 0.00511469287464877 -0.0248746388952719 -0.0301790790851316 -0.0754003894391179 0.0800011190575246 -0.0513209923405226 -0.0436627084233513 -0.00436573091095039 -0.0661634489970211