-6.2181082984878 2.53759561024405 -0.51750965594741 2.53759561024405 7.61478493751188 -1.27279401868147 -0.51750965594741 -1.27279401868147 5.81648883576413