0.1205015637 0.4752848145 0.4339036673 3.0318276565 4.7510564349 4.6143118122 2.2905893809 1.7703682629 2.5867942138 7.3477524781 1.4371325444 0.4775981537 8.1405709249 4.5075328798 2.5812017096 1.0236235739 4.4354296113 1.9685183269 4.0799416027 1.5618529277 4.7447089164 9.3529784237 1.7066877146 3.1231009108 6.3219611277 4.6262216105 0.4008463738 1.471565713 4.5434999655 3.4420094509 3.6980674012 1.5373108985 1.2832507727 8.932135717 1.5633179432 1.6458655025 6.7094027201 4.6694692375 3.8615999573 4.7919798253 4.6372189446 0.5609727049 0.4582161978 1.3330614613 3.2910494863 5.6048317315 1.5408801421 4.5571257562 9.9397361606 4.8630556507 1.7901324975 1.889875762 5.4423570098 1.1185020426 3.3771956826 0.3928342684 3.9382059694 9.0099691837 3.1131776593 3.6691223447 7.0112660424 3.4087646141 1.1580173187 8.5421456437 0.6867531306 4.0042377731 6.9982687661 5.8115491387 1.2109836578 1.3199763228 3.0208810766 1.3931392101 3.4119403982 2.7890700585 3.9831498427