0.0166874793312323 -0.0105965390909252 -0.0716666353585041 -0.00860084984882876 -0.0193683672115903 0.0311779521469126 0.0196203351911387 -0.0397829157586728 0.0301258572772066 -0.0026860300840223 0.0181715193087355 -0.0361561195142755 -0.00534274960715837 0.0215229505469121 -0.0327715210624645 0.0107256084028979 -0.0129958913206654 0.00404948538559886 -0.10597567531658 0.0162974431832987 0.0244429508976579 0.0239780956864095 0.00823858160068217 0.0212319018195154 0.0596547047089935 -0.0155865335267158 -0.0110374830551348 0.00457938947320008 0.0769409936569279 0.146943097689314 0.0489702339354096 -0.00389084840255667 -0.0342123665291881 -0.0356023041796355 -0.0398021990224138 -0.133476437623186 -0.0273117863219444 0.000342470764039218 0.0225174527355786 -0.0508905898938247 -0.00930558886101457 0.00234355931998309 -0.037693638409887 -0.01459768776208 -0.0153399648610149 0.0977409503686461 0.00320410710319574 -0.00227233979923319 0.00252353644823192 0.0278710009704319 0.0180555626161066 0.0414556746106542 0.0286896397937809 0.0775742560381806 0.0174608667623358 -0.0335644488674922 -9.95016409032862e-05 -0.022258028560717 -0.0535635073585031 -0.0416184253566277 0.0217857171541554 -0.00295728132731162 -0.00194580986655315 -0.0430998942322989 -0.0369927560504494 -0.0790960912126162 -0.00966477178696261 0.0230201031437592 0.0187687862643385 0.00523784865240761 0.0670394233912265 0.0551527054009404 -0.0212933511533032 0.0016658168770346 0.00730835695781889