-6.14018213407873 1.34472586275138 -0.113892086444025 1.34472586275138 4.05815486961077 -3.56062628146056 -0.113892086444025 -3.56062628146056 3.77042749333113