5.4262791570 0.2296222304 2.6841895036 3.3543113774 4.5763257087 0.2811953960 1.8360234426 1.6598712213 2.2933935960 7.8774052222 1.7950304390 -0.2545320739 8.9321510934 5.4178770580 3.0349783687 1.2983184845 5.2296406459 2.6204602929 4.1076550004 2.1402502546 4.9213901553 9.4841951121 2.0726731706 2.7466420730 6.8530775588 4.9050385024 0.2840565216 1.7296116073 5.2813069004 4.1015451238 3.9284579747 1.4345500541 1.1074535066 9.1070827178 1.7322568216 1.2730487467 7.1560369984 5.7699905111 4.1126615707 5.3539176145 5.4563128629 0.6837201265 0.0107005514 2.0913157819 2.7986475643 5.6417374626 1.5672161106 4.4709646766 10.8263289430 5.0919294046 2.5671854656 1.6334264622 6.4675343886 1.7071812052 3.0880837924 1.4283524580 3.8801159090 8.7309421604 3.3299336397 3.3216049842 6.9492095973 3.3656125101 0.3063624358 8.8764597000 1.0345291662 3.7277364933 7.8342358981 5.6121823484 1.3561591731 2.1765630430 4.1893625564 1.8422014456 4.0535991500 3.7149999791 4.7014954772
5.4215893794 0.2463078972 2.6749612204 3.1818544734 4.8058273666 0.0023772143 2.1851632642 1.8377334599 2.5297809445 7.9522316954 1.8785585504 0.0048807429 8.6828073354 5.1790128719 2.7221635490 1.2127272916 5.1892193664 2.3673935134 3.9795083942 2.1399844255 5.0513177514 9.6506483670 1.9510834510 2.8884534049 6.9127694379 4.9404670829 0.2550427476 1.6526798597 5.3302607879 4.0049071723 3.6651499380 1.5341113682 1.2936794370 9.1658725487 1.7135606907 1.2994061594 7.1980738891 5.5772890336 3.9833037763 5.3506402570 5.1213466581 0.3022646071 0.1184176200 1.9343188408 2.7813644764 5.5963191174 1.9321396821 5.0167625555 10.6898058285 5.1831094865 2.4439751511 1.8706040996 6.4449248472 1.5672722556 3.3253767212 1.1821603354 3.9828317576 8.9414625928 3.2348964297 3.5613232740 7.4006117909 3.4914516152 0.7297471177 9.0132639684 0.7593654123 3.8033425389 7.5796396831 5.9197187987 1.3161166518 1.9653961179 3.9563361042 1.6791909478 3.5382396672 3.5943003466 4.5603760598
5.3825283269 0.1506096497 2.4715153685 3.4993893501 4.5074544155 0.3681666655 1.8877581648 1.8151954397 2.3869092764 7.7899169950 1.7898329828 -0.4194854965 8.7143693712 5.5719115473 3.1248328953 1.3191954210 5.1756704570 2.8157512131 4.1602151623 2.2315469030 4.6906794250 9.4924800672 2.1028247805 2.5406916512 6.8862633919 4.7779931726 0.4560579735 2.0304267351 5.3275639965 4.1663354557 4.0302892163 1.2318472888 0.8371579254 8.9826295286 1.9814088424 1.1099439306 6.9888220998 5.8401752968 4.3952456694 5.4140688472 5.0656268048 0.9363004089 -0.1445098818 2.1814041222 2.6475027379 5.6884837623 1.6639718078 4.2520961200 10.9332652150 5.1789032825 2.8343897468 1.7308900739 6.4394699916 2.0579184034 3.1158404861 1.4817638469 3.7393990298 8.8035032351 3.3526286936 3.4621544283 7.0209531332 3.2053237399 0.4651571773 8.8231585948 0.9266383541 3.3247753959 7.9120457892 5.4367770094 1.4664911466 1.9414919930 3.9882564789 1.8874003425 4.0440110249 3.6732121861 4.4478527870
5.4303597298 0.2439180937 2.6256955118 3.0795161133 4.9562606617 0.0078383334 2.2194501605 1.8912021485 2.5375470761 8.0536121596 1.7394866546 0.0157276885 8.6255582823 5.1728571936 2.7216132905 1.1345723673 5.1970351494 2.3306008166 4.1169798249 2.0716762880 4.9944493482 9.7515682859 1.9110745645 2.9254056218 6.7629251305 5.0047337276 0.3089242969 1.4288402796 5.2917399571 3.8318181378 4.0451081437 1.6963202108 1.2116405082 9.5085223351 1.8276004308 1.4128303876 6.8381115394 5.3755182804 4.1012002003 5.2551671794 5.0911393725 0.5818239003 0.1713628915 1.9213816960 3.1819549288 5.5682731669 2.0110693012 4.7218281180 10.7783773166 5.1703242983 2.1038386834 1.9114882518 6.3130708793 1.6380320132 3.4253481478 0.9014807773 4.2883393061 9.0367684767 3.1337536522 3.5425001956 7.4523890720 3.8083862926 1.0151291808 8.9777511523 0.7991743995 3.6082409364 7.4481877156 6.1652763870 1.0592060262 1.8732891692 3.9996074538 1.6929331007 3.4033397675 3.2722290248 4.3287034813
5.4213090105 0.2458601818 2.6843644613 3.2165958712 4.7560110529 0.0166805205 2.1437446241 1.8086362505 2.4988085582 7.9080364670 1.9127108797 -0.0304567156 8.7266850307 5.1936722047 2.7560676968 1.1970011830 5.2524204938 2.4437953686 3.9591012413 2.2057596662 5.0801550242 9.6494737326 1.8971967840 2.8652856824 6.9231957176 4.8880201189 0.2059838440 1.6378489427 5.3716195549 3.9463053812 3.6450538697 1.5171992675 1.2744296229 9.1800085805 1.6617281797 1.3890077850 7.2338261370 5.5879007606 3.9959133946 5.3576083721 5.1820973332 0.2788547135 0.1291078317 1.9813764574 2.7869762936 5.6099680448 1.8709643605 5.0350537276 10.7124482882 5.1410262231 2.4483296789 1.8614590341 6.3988684325 1.5875839534 3.2978722169 1.1980287546 3.9300948314 8.8957213874 3.2795046995 3.5528408279 7.3603130426 3.4999777221 0.6415402092 9.0173749235 0.8421100844 3.7931261524 7.6036041186 5.8757377707 1.3581515873 2.0021771324 3.9354386818 1.6465826801 3.6040205094 3.6275895109 4.6468368359
5.4293592162 0.2343186843 2.7006965182 3.2942924928 4.6179667480 0.2659888506 1.8263410504 1.6476694700 2.2774165512 7.8927896501 1.8068950706 -0.2485992989 8.9683378661 5.3684905061 3.0211210022 1.3122297990 5.1960516473 2.5798503804 4.1510309918 2.0745622433 4.8998224806 9.5103778058 2.0766795018 2.7793096677 6.8426197844 4.9862296171 0.3008533188 1.7697946672 5.3306842029 4.1711650406 3.8946689210 1.4491670920 1.1698689838 9.0838562726 1.6601797818 1.2360068442 7.1463342650 5.7602379425 4.0539334418 5.3706803819 5.4744773734 0.5190422212 0.0115340927 2.0724621547 2.8892954624 5.5539382606 1.5833685452 4.6562088287 10.7746786574 5.1164261784 2.4618154050 1.6240954619 6.5497833163 1.6803309073 3.1348972143 1.4115887457 3.9614886700 8.7681678545 3.3209673802 3.2760259263 6.9200789959 3.3228663507 0.3450686619 8.9295585268 0.9739421689 3.8384331133 7.7982056783 5.6518885221 1.3090262948 2.1632396476 4.1764278348 1.8311896042 4.0701742471 3.7616385592 4.6965821142
5.3969488608 0.1664544769 2.5168011034 3.4938281786 4.5138712417 0.3573836997 1.9195594709 1.7732915118 2.3978144687 7.7994030231 1.7856628255 -0.3614371382 8.7233552543 5.5533581658 3.0698789908 1.3171825801 5.1607319004 2.7411023340 4.0994562418 2.1581755226 4.7410709088 9.4420532240 2.1417195902 2.5842700568 6.9457061612 4.7770478984 0.4414210537 1.9398406675 5.2930663828 4.1313077263 4.0222819279 1.2807074329 0.8488885484 9.0074444771 1.9629275707 1.1669829609 7.0270347224 5.8297368537 4.3360620185 5.4050185667 5.0894076708 0.9373339589 -0.1097845111 2.1858954838 2.6411150721 5.6505053327 1.7099690135 4.2546442954 10.8938011205 5.1209573724 2.8207909197 1.7189334010 6.4773254300 1.9745695114 3.0688639747 1.5519154016 3.7285548285 8.8359068938 3.3415449053 3.4315618477 7.0279445778 3.3393036794 0.4155275049 8.8145128809 0.9339044112 3.3758151377 7.9170112323 5.4141498942 1.4975065665 1.9740507630 4.0513932310 1.9113034793 4.0492855637 3.6706746384 4.4727888754
5.3727866024 0.1456387071 2.4509211807 3.4958370472 4.5098653309 0.3747084027 1.8662946808 1.8307838061 2.3776374622 7.7885143712 1.7925978175 -0.4541048288 8.7168077435 5.5760999564 3.1567853347 1.3304258271 5.1904887949 2.8388755156 4.2100402900 2.1919286450 4.6759015524 9.4940529223 2.1015519359 2.5407001059 6.8429306408 4.7717966674 0.4802574392 2.0930884837 5.3298347674 4.2353323047 4.0398681761 1.2357401565 0.8238070814 8.9707225198 1.9789350022 1.0435883531 6.9869486684 5.8451322854 4.3839214865 5.4231890974 5.0587758713 0.9312787687 -0.0922810678 2.1753480876 2.6540282580 5.6702732467 1.6598238356 4.2622091115 10.8844463318 5.1979504454 2.8543617140 1.7581523484 6.4795669507 2.0689502154 3.1547129642 1.4543499737 3.7425791332 8.7836143448 3.3373406772 3.4581521635 7.0044049042 3.1679669045 0.4898512085 8.8136790138 0.8974670137 3.3284125188 7.8925625608 5.4466957941 1.4432333409 1.9468856008 3.9344021044 1.8741633677 4.0454465961 3.7581604478 4.4216585543
5.4237950970 0.2440140326 2.6965910768 3.2356159724 4.7288038895 0.0770877953 2.0458461389 1.7592541243 2.4278083603 7.8684555053 1.9239800655 -0.1025450821 8.8155607022 5.2165122338 2.8298074339 1.1896474934 5.2688827862 2.4669735507 4.0421570820 2.1447911124 5.0845554514 9.6731734424 1.9109784013 2.8545631537 6.8855823240 4.9531691916 0.1679856157 1.6600950980 5.4251935368 3.9364180916 3.6905026711 1.5036376721 1.1911920803 9.1487043729 1.6005784748 1.4314016750 7.2296187995 5.6028142152 4.0660979246 5.4292640585 5.2640150082 0.2525562598 0.0884275512 2.0530405113 2.8613500609 5.4441972401 1.8140456587 5.0386052753 10.8043005400 5.0907858880 2.4053714624 1.8149179586 6.3891589451 1.6532245245 3.3105887842 1.3334580929 4.0043761246 8.8854051034 3.2432187021 3.4398564316 7.2856784844 3.4886836290 0.5922097918 9.0005622175 0.8980785792 3.8345445468 7.5996678468 5.7306949172 1.2816475244 1.9878356828 4.0073064047 1.7229434120 3.7487155575 3.6107412373 4.6544036450
5.4242887917 0.2445570989 2.6462389469 3.0827593894 4.9216674281 -0.0157152286 2.2162971896 1.8846699241 2.5529161264 8.0593047961 1.7773788120 0.0389336243 8.6366961069 5.1640656227 2.7072643563 1.1828988659 5.2227447950 2.3860755685 4.0394146609 2.1456217625 5.0116907902 9.7168028271 1.8827767638 2.8889337408 6.8045584643 4.9433821661 0.2970434715 1.6504698553 5.2543955083 3.8934484551 3.8734832232 1.5875376174 1.3349079810 9.2497250410 1.8440346814 1.3649098242 7.0255440213 5.5030331578 3.9846417814 5.2003321465 5.0752555930 0.4577648364 0.1988047726 1.9187515044 2.9490684842 5.7425373138 1.9850334163 4.8842758707 10.6653062343 5.2024343453 2.2322823219 1.8899824597 6.4514410619 1.6095695853 3.3103499938 0.8760532107 4.1000430088 8.9692923896 3.2693538626 3.5251825180 7.4750265599 3.6788170449 0.9740599375 8.9584025601 0.7096063494 3.6808289542 7.5772882620 6.1833674124 1.1993725213 1.9402773548 3.8412709642 1.7218525007 3.3884732027 3.4193701477 4.3287780046
5.4067499246 0.1846236476 2.5649209354 3.4755740449 4.5305846210 0.3433772402 1.9159331539 1.7227098232 2.3863628928 7.8134259920 1.7828396892 -0.3171577029 8.7602584311 5.5280148187 3.0420409783 1.2943194012 5.2100592085 2.6693245616 4.1242252227 2.0484209805 4.7493621215 9.4393549862 2.1772792796 2.6737318918 6.9208894575 4.8605635226 0.4351630230 1.8964228368 5.2431583860 4.2018371731 3.9911208628 1.3319321930 0.9551875633 9.0004766619 1.9222647082 1.1027606118 7.0955863098 5.8146755331 4.2468544485 5.4518254636 5.1374705815 0.9107233008 -0.0411289298 2.1748477760 2.6424327629 5.5308162398 1.7685569221 4.2975319231 10.7834441634 5.0618353927 2.8104053928 1.7314511610 6.5800988868 1.8650433825 3.0741340587 1.5935511361 3.7483536617 8.8198004852 3.3427677244 3.3998569337 7.0425225906 3.3014069169 0.3638063306 8.7820426187 0.9050562481 3.4829235467 7.8793180925 5.4103241383 1.4691350371 2.0829301140 4.0099809076 1.8716403160 4.0560007858 3.7318345752 4.5004175003
5.4238635382 0.2250457882 2.6709960784 3.3828187216 4.5635012895 0.2896765430 1.8459495772 1.6643281630 2.3058688459 7.8671634697 1.7892518195 -0.2585407960 8.9074699847 5.4424368093 3.0389294952 1.2744020516 5.2677041705 2.6467353528 4.0940568022 2.1648311739 4.9219839243 9.4930809842 2.0606532830 2.7163736967 6.8575515764 4.8777266255 0.2744568977 1.7101478961 5.2586308938 4.0529648888 3.9456936810 1.4325627912 1.0673051127 9.1198635623 1.7762179903 1.3075464603 7.1503813581 5.7601449056 4.1672597115 5.3743272257 5.4205228033 0.7545547116 -0.0316935572 2.1068745480 2.7531547769 5.6506533147 1.5892083503 4.3982012897 10.8732026067 5.0777387323 2.6252488743 1.6413934243 6.4372553728 1.7411990193 3.0740225941 1.4548088564 3.8412611318 8.7135126943 3.3617338100 3.3496498069 6.9682061997 3.3996451386 0.2969245648 8.8541675243 1.0454132226 3.6693743046 7.8457267237 5.5791055105 1.3783368815 2.1902030454 4.1484796181 1.8388230370 4.0545647586 3.6441388580 4.6874565938
5.4240364242 0.2456209601 2.6557266675 3.1151701443 4.8986194494 -0.0027582563 2.2153509765 1.8740727239 2.5518384563 8.0291499587 1.8007468313 0.0299596944 8.6426943606 5.1658103812 2.7044605347 1.1885000224 5.2255606893 2.3656239114 4.0389662826 2.1335053601 5.0475596067 9.6654852107 1.8880388150 2.8818934866 6.8524687981 4.9498231423 0.2658320564 1.6015104726 5.2654024240 3.8111335001 3.8251926560 1.5799107376 1.2416891672 9.2571966339 1.8176102767 1.4438791631 7.0517688088 5.5209428985 4.0789497298 5.3060122915 5.0659848314 0.3923604080 0.0977253318 1.9090526353 2.8625070493 5.6041970914 1.9921495147 4.9422175814 10.7941022118 5.2157954040 2.3306353664 1.8277911042 6.3943078960 1.6524953283 3.3260284357 1.0071147331 4.0753020728 8.9878547340 3.2216408914 3.5213995879 7.4289854367 3.6740923483 0.8921558771 9.0327848894 0.7852485242 3.6671685360 7.5658425672 6.0800990225 1.2144887058 1.9247001180 3.8957055370 1.7454288210 3.4550780621 3.3983002730 4.3993942644
5.4240338215 0.2450684303 2.6509232016 3.0980861822 4.9113740972 -0.0094506276 2.2168192522 1.8798022219 2.5530298570 8.0459677677 1.7881158608 0.0353087977 8.6388978615 5.1646689527 2.7053320154 1.1876953654 5.2290006736 2.3820536682 4.0351210690 2.1447837684 5.0304690879 9.6886394209 1.8788386720 2.8815366681 6.8285289517 4.9414654974 0.2815948827 1.6247031062 5.2577210741 3.8376741584 3.8466354934 1.5821254328 1.2955687661 9.2533867199 1.8333442944 1.4142987351 7.0409656982 5.5137830039 4.0271689062 5.2458700963 5.0696908659 0.4250430027 0.1503648759 1.9137958651 2.9026639459 5.6902716103 1.9880734000 4.9139051637 10.7271187733 5.2100959568 2.2820652822 1.8571604700 6.4254090131 1.6336277847 3.3120114070 0.9308877204 4.0802807011 8.9762815759 3.2538343000 3.5237504349 7.4521962332 3.6787494567 0.9347995165 8.9975468061 0.7486704390 3.6699203593 7.5770302906 6.1415756745 1.2118198933 1.9354748508 3.8568228221 1.7339611738 3.4193348776 3.4086233593 4.3605019316
5.3486763680 0.1428813274 2.4169068088 3.4860321634 4.5165590338 0.3977926704 1.8276802866 1.8532927304 2.3606188269 7.7915508052 1.8008609021 -0.5286654135 8.7248319986 5.5714893663 3.2179989081 1.3504132431 5.2376138015 2.8663936934 4.2824249060 2.1085665058 4.6614714070 9.4663240382 2.1133247279 2.5335395053 6.8043646963 4.7265671011 0.5080283550 2.1299729830 5.3267736251 4.3048430840 4.0804034776 1.3009830343 0.7906838009 9.0278169695 1.9538519844 1.0055215555 6.9919432804 5.8102829636 4.3416490766 5.3581640195 5.0775773602 0.9464161140 -0.0133627405 2.1544067770 2.6647666319 5.6391310252 1.6670007025 4.2715938494 10.8266665037 5.2182656998 2.9215204480 1.8229751552 6.5583732869 2.0785381694 3.2374394163 1.4324637178 3.7091001991 8.7576731309 3.2546218688 3.3953775720 6.9296055463 3.2183782315 0.5316448001 8.8025457737 0.8581870365 3.3495433706 7.8426115129 5.4619587476 1.4341397145 1.9668457535 3.8792829323 1.9021986092 4.0898406578 3.8092882358 4.3770438390
5.4142634069 0.2021788045 2.6124289138 3.4483966628 4.5448589834 0.3232740388 1.8869736245 1.6849763667 2.3560689079 7.8317922557 1.7804498806 -0.2852570644 8.8185717461 5.5000653838 3.0379287640 1.2584059772 5.2786806039 2.6438101315 4.1311515096 2.0689279400 4.7990091427 9.5050339696 2.1250610409 2.6983500848 6.8601927010 4.9052557562 0.3627847241 1.8120832639 5.2207179453 4.1715244393 3.9623148243 1.3798970558 1.0451867554 9.0452957142 1.8733965407 1.1593386730 7.1379103065 5.7781410901 4.2266733125 5.4871671646 5.2334076820 0.8671175593 -0.0786148730 2.1530318694 2.6619456274 5.5292188069 1.7401353390 4.3210054118 10.8021685523 5.0398783441 2.7659396267 1.7109341902 6.5533842472 1.8018423249 3.0774976388 1.5675989913 3.7754412324 8.7465057811 3.4013506483 3.4002196341 7.0328403942 3.3030273720 0.3198764216 8.7811075182 0.9439401218 3.5687968594 7.8603648240 5.4596782356 1.4344768154 2.1735270447 4.0109156011 1.8376990370 4.0604150052 3.6758390803 4.5682171325
5.4022089286 0.1755773487 2.5406491280 3.4858250249 4.5217989332 0.3511027508 1.9226284822 1.7479753556 2.3952587072 7.8060796990 1.7842087772 -0.3378407484 8.7382341792 5.5410345184 3.0521973755 1.3101882862 5.1773501950 2.7002046946 4.1013189763 2.0905482522 4.7518482565 9.4296254794 2.1692891246 2.6343271525 6.9442534679 4.8127301098 0.4433800958 1.9197438779 5.2672162851 4.1699186991 4.0106960285 1.3089385894 0.8879867414 9.0013666688 1.9438143957 1.1296515392 7.0607007941 5.8248315542 4.2862441232 5.4214948837 5.1086274098 0.9273726266 -0.0654171526 2.1821840706 2.6405702282 5.5965075886 1.7429011503 4.2723644186 10.8294476126 5.0889033193 2.8181566894 1.7263670509 6.5357794278 1.9162926070 3.0670746851 1.5797504192 3.7346585079 8.8375444552 3.3319813025 3.4103111798 7.0349387845 3.3354618908 0.3897685126 8.7974282331 0.9158975430 3.4281499153 7.8997525999 5.4069213411 1.4883241418 2.0235945865 4.0358989979 1.8964257513 4.0526423130 3.7157454281 4.4820999660
5.3905604131 0.1577810143 2.4936674740 3.4987116473 4.5086748549 0.3627847990 1.9068086049 1.7960664270 2.3943875305 7.7937638505 1.7874927164 -0.3884952753 8.7158243271 5.5640203586 3.0948438643 1.3162099583 5.1636073714 2.7833281465 4.1210173048 2.2234491718 4.7138597684 9.4689245089 2.1158876670 2.5495662824 6.9246403512 4.7734878341 0.4422073870 1.9735832038 5.3148106532 4.1231162791 4.0261215495 1.2496939145 0.8415060885 9.0024323711 1.9761676662 1.1664116580 7.0016681327 5.8334720133 4.3788805047 5.4036996357 5.0762268096 0.9400623387 -0.1479408233 2.1852320325 2.6430736785 5.6817881941 1.6813727342 4.2483008435 10.9405718124 5.1525657703 2.8242426394 1.7178501127 6.4369769237 2.0265108244 3.0856724866 1.5166152510 3.7320260518 8.8226763205 3.3520880666 3.4514726370 7.0255237244 3.2783537858 0.4403488346 8.8247541549 0.9409618907 3.3388423219 7.9215828217 5.4254369447 1.4887258627 1.9473975735 4.0341025833 1.9055260614 4.0467833223 3.6312743880 4.4659578840
5.4241488119 0.2431989154 2.6996675039 3.2331776280 4.7241370586 0.1009082629 2.0130808671 1.7404273487 2.4011566624 7.8652550374 1.9200868335 -0.1263953557 8.8457359186 5.2244453669 2.8556882260 1.2114451139 5.2370341369 2.4521737760 4.0503110168 2.1116573423 5.0640923267 9.6683440931 1.9435926758 2.8627404337 6.8743080204 4.9804233800 0.1867878929 1.6975914337 5.4382089731 4.0042871734 3.6805254999 1.4915573566 1.2334876183 9.1142989883 1.5817728688 1.3819209398 7.2481623466 5.6222618810 4.0182661872 5.3938881173 5.2970619411 0.2469388487 0.0975490530 2.0723553451 2.8964711094 5.4959109500 1.7794869749 5.0309379295 10.7721988160 5.0770520067 2.3844917461 1.8134058094 6.4578341889 1.6501844167 3.2883142459 1.3671974140 4.0040474029 8.8923200562 3.2297990117 3.3891182950 7.2560643925 3.4513039940 0.5839780372 8.9870791771 0.8806052439 3.8746227344 7.6232229235 5.7021335195 1.2797277692 1.9774048980 4.0394203358 1.7662069793 3.7919507911 3.6463740041 4.6359219128
5.4262949193 0.2397748178 2.7069689450 3.2267107638 4.7024623064 0.1916529482 1.8991635778 1.6591752502 2.3039893711 7.8905563924 1.8662843403 -0.2058572683 8.9452008024 5.2749082851 2.9551755513 1.2623980695 5.2824151248 2.5321866235 4.0491525106 2.1303727334 5.0470433989 9.5619259170 1.9288722913 2.8184010257 6.8677205364 4.9730870567 0.1995522449 1.7131369089 5.4302766460 3.9808258499 3.7669616583 1.5051234444 1.2266255582 9.1025128078 1.5904901864 1.3964005719 7.1781144466 5.6542200647 4.0182971030 5.3031264148 5.4226529782 0.2683884107 0.0441330181 2.1043454928 2.9944907904 5.7185887007 1.6249294691 4.9466679155 10.8380073809 5.0898253946 2.3451382591 1.6834253958 6.5421094269 1.7513431116 3.1204320461 1.3666946213 3.8985787634 8.8524211579 3.3425717259 3.2621223100 7.0395896078 3.5055492753 0.4759888683 9.0469263659 0.9492133882 3.8522099534 7.7775763978 5.7134819024 1.3611173648 2.0630628099 4.0038819815 1.8328723926 3.9858658347 3.5835101675 4.6508037772
5.4303484650 0.2438665655 2.6174381628 3.0839759414 4.9609287181 0.0180442638 2.2223632421 1.8924129146 2.5327409744 8.0499325679 1.7340316785 0.0123648676 8.6205877677 5.1737815521 2.7224480459 1.1492752650 5.2045418345 2.3287767606 4.0959085891 2.0812231288 5.0098517407 9.7789186220 1.9147611275 2.9069714585 6.7501855989 4.9892571949 0.3266626667 1.3410393837 5.3277453557 3.9290147765 4.0360134543 1.7489221258 1.3602652465 9.5922086291 1.7928619246 1.3041629052 6.8103772182 5.3209877108 3.9781186309 5.1680570559 5.0998515616 0.6301516335 0.2302142970 1.9132764337 3.2715699676 5.7570886355 2.0194796359 4.6086688886 10.6237644729 5.1582644617 2.0648838209 1.9925571692 6.4108088369 1.5830084190 3.3638750228 0.7488976929 4.2293740425 8.9868128814 3.2598099199 3.6399290382 7.4696999043 3.7515275494 1.0440954350 8.9376507488 0.7093607766 3.6512224770 7.4819428325 6.3209735302 1.1116369811 1.9444435314 3.8621223076 1.5939771636 3.3750966773 3.3183609092 4.2968413204
5.430251341259 0.243871864596 2.616777213397 3.084091016966 4.961118001657 0.018694602371 2.222517740412 1.892618653026 2.532492436643 8.049861562421 1.733836653170 0.012351147520 8.620259370588 5.173627336518 2.722307266885 1.151562712332 5.204222907069 2.328194246147 4.094556376484 2.081821064815 5.010578677485 9.781607603391 1.916435941331 2.905360180647 6.748971091427 4.987970161140 0.329472620810 1.336633207466 5.330878594990 3.944044427964 4.033349350151 1.752692051931 1.378983722366 9.596537108257 1.789780253410 1.289509998829 6.810178608968 5.317098373484 3.961057064420 5.156239772610 5.100784615026 0.634164716368 0.239167839806 1.912521956721 3.278886411068 5.776930543113 2.019874233374 4.599389710426 10.604348773656 5.157268868964 2.061159631472 2.002068879326 6.424339758595 1.575685830525 3.356568232723 0.732411640687 4.222089366660 8.981090426484 3.273748015078 3.648860233081 7.473437802072 3.742216984939 1.048359974992 8.931101118126 0.696312857193 3.657873852023 7.486948380739 6.337379184998 1.117956675880 1.952079643635 3.846911233593 1.584699449467 3.370089911443 3.327573840747 4.291686067548
5.4239376587 0.2461115135 2.6605767902 3.1320870575 4.8820854445 0.0019619254 2.2113512332 1.8676421484 2.5493724092 8.0110326124 1.8161760482 0.0247391615 8.6485006580 5.1672719358 2.7048988289 1.1930638429 5.2072586321 2.3429009539 4.0470977472 2.1162919784 5.0544882503 9.6540233713 1.9150914617 2.8904422691 6.8725846015 4.9643461199 0.2589014449 1.5981264632 5.2771945318 3.8408486347 3.7986819641 1.5752716630 1.2072647781 9.2434475319 1.7964606186 1.4210677933 7.0709356648 5.5301421523 4.1039363407 5.3585443379 5.0674196888 0.3624671604 0.0652846143 1.9069229777 2.8309188197 5.5159601630 1.9928972690 4.9677591145 10.8198695836 5.2168586257 2.3718143258 1.8182493239 6.3854587244 1.6486904168 3.3445972007 1.0871964655 4.0761294052 8.9958236293 3.1901548170 3.5221123486 7.4136887103 3.6481870163 0.8522596745 9.0465801062 0.7921520153 3.6906726020 7.5520546838 6.0133188608 1.2163508561 1.9154051282 3.9426700712 1.7495971162 3.4862173179 3.4098157423 4.4386148226
5.4220471866 0.2453560787 2.6888077513 3.2281210399 4.7420753430 0.0331304962 2.1136908884 1.7930190591 2.4775175479 7.8905711270 1.9209343668 -0.0535825160 8.7546601512 5.2014138675 2.7790289115 1.1904817836 5.2785917202 2.4736901936 3.9727866498 2.2139529500 5.0944416699 9.6511151779 1.8784487136 2.8538422595 6.9185297782 4.8883681722 0.1779806707 1.6232459526 5.3909055337 3.8909576169 3.6662737651 1.5164448886 1.2226521983 9.1888645422 1.6414208558 1.4489444007 7.2265621308 5.5862530987 4.0442389997 5.3909971300 5.2103524948 0.2693179100 0.1126065787 2.0070174544 2.8036387267 5.5553637427 1.8482207460 5.0395360287 10.7625285564 5.1224415248 2.4398392089 1.8396611399 6.3634005799 1.6207512188 3.3022595404 1.2329616534 3.9461546878 8.8856274592 3.2756624245 3.5256728090 7.3318155636 3.5256277602 0.6118928505 9.0234435611 0.8898054603 3.7816304172 7.6002557384 5.8312819025 1.3395657730 2.0030833654 3.9501706276 1.6586510260 3.6547343955 3.5964462350 4.6701046110
5.4107111215 0.1934848136 2.5890520326 3.4632845107 4.5385510468 0.3340660680 1.9027028518 1.7009253807 2.3726029154 7.8217536238 1.7814222581 -0.2995651152 8.7878368010 5.5145446132 3.0380059314 1.2752463357 5.2472230488 2.6504914299 4.1432048911 2.0405434160 4.7604729301 9.4697084796 2.1581653890 2.6932030503 6.8855451710 4.8943709513 0.4077594031 1.8605307253 5.2265673182 4.2043413536 3.9728681927 1.3553018774 1.0140085841 9.0147690532 1.8988912409 1.1113541647 7.1232768231 5.7982713264 4.2273661937 5.4829200614 5.1783175133 0.8891551493 -0.0480382903 2.1650924454 2.6489453191 5.4947557992 1.7712634731 4.3173911616 10.7737630515 5.0444721073 2.7935913490 1.7273360223 6.5875325077 1.8267465720 3.0791187764 1.5893757226 3.7626340533 8.7841644654 3.3746209328 3.4008603165 7.0431277091 3.2853896467 0.3399456957 8.7752185842 0.9138779754 3.5310228209 7.8662127719 5.4287179623 1.4509555675 2.1359029657 3.9982427358 1.8502218628 4.0587352304 3.7161480026 4.5292087188
5.4298008354 0.2355556557 2.7049428699 3.2697518020 4.6417182176 0.2563166700 1.8295265145 1.6420125333 2.2743182277 7.8975855597 1.8139197523 -0.2445952322 8.9766811866 5.3466524299 3.0125551925 1.2938115354 5.2216881155 2.5788853958 4.1551978636 2.0615896911 4.9143099009 9.5391137531 2.0443459046 2.7782223382 6.8386692768 5.0124037890 0.2870899778 1.7650715722 5.3539563429 4.1418171573 3.8833567176 1.4673636807 1.1699636226 9.0879218834 1.6394741221 1.2687915948 7.1322714338 5.7364991269 4.0603597634 5.3910744007 5.4669142758 0.4420965123 -0.0270904251 2.0723426796 2.9272902515 5.5307970055 1.5986244703 4.7419775021 10.8043894857 5.1233222480 2.4201902458 1.6173105917 6.5571797184 1.6986270561 3.1457444544 1.4080422114 3.9784584957 8.7777354703 3.3502711544 3.2649918118 6.9160889880 3.3476792315 0.3694897801 8.9665319005 0.9567282881 3.8634197195 7.7865825317 5.6662466083 1.3000438979 2.1656299312 4.1218433926 1.8179455803 4.0781368978 3.7237962922 4.6869854850
5.4252941614 0.2407093070 2.7057704176 3.2247482553 4.7093759378 0.1706612942 1.9252836444 1.6763281796 2.3236677554 7.8819336243 1.8831210915 -0.1895817148 8.9252362485 5.2591716009 2.9323812645 1.2647039751 5.2449145020 2.4909940562 4.0417655088 2.1179705795 5.0518354817 9.5836955079 1.9478377152 2.8449867494 6.8683093156 4.9770129469 0.2008771348 1.7308238008 5.4425080405 4.0329564052 3.7192245091 1.4938003041 1.2736708294 9.0858763575 1.5742955295 1.3581555957 7.2188141947 5.6530820742 3.9743302365 5.2872831269 5.3988556994 0.2529577748 0.0890179759 2.1053908954 2.9828178878 5.7182045079 1.6542756498 4.9771918902 10.7759703057 5.0748572576 2.3449678028 1.7343623009 6.5736923721 1.7132385046 3.1438858898 1.3661937041 3.9025181422 8.8752504276 3.2981660780 3.2776380052 7.0997537044 3.4749200752 0.5115040419 9.0241648284 0.9157772528 3.8785280747 7.7538844992 5.7115874834 1.3583885759 2.0233567983 4.0262840089 1.8354633167 3.9374599298 3.6282966423 4.6330390797
5.4234151764 0.2463775398 2.6653936697 3.1482426767 4.8607803940 0.0035533486 2.2052081344 1.8599643106 2.5454336984 7.9927724935 1.8348857121 0.0200753285 8.6565998686 5.1695246237 2.7071827821 1.2064461014 5.1825262940 2.3305128561 4.0397059315 2.1052880944 5.0496756999 9.6500215041 1.9463953944 2.8977567305 6.8884049872 4.9731877820 0.2640936842 1.6135590868 5.2927255653 3.9062281326 3.7576574505 1.5645217086 1.2172571571 9.2138871647 1.7705101940 1.3642376841 7.1078001071 5.5450168625 4.0784841878 5.3811883897 5.0769291092 0.3377519836 0.0664084401 1.9095449683 2.8074784165 5.4868483370 1.9836285048 4.9878289494 10.7860633020 5.2118847526 2.4045690364 1.8314792642 6.4056574804 1.6215570892 3.3551702466 1.1494060292 4.0664540222 8.9915287325 3.1792747054 3.5301899523 7.4077421422 3.5978155392 0.8147071105 9.0395079831 0.7731758583 3.7347375882 7.5469773305 5.9599464399 1.2313743702 1.9166243742 3.9764460360 1.7402412947 3.5078158236 3.4547142091 4.4760728669
5.4242939312 0.2423445810 2.7021692083 3.2290650357 4.7195043457 0.1246906632 1.9823420584 1.7196429560 2.3739578243 7.8673686633 1.9117600339 -0.1492050946 8.8745968638 5.2337720175 2.8817190089 1.2407191420 5.2114580123 2.4465137021 4.0428341322 2.0996450277 5.0532838418 9.6445607698 1.9655910735 2.8664994614 6.8699533767 4.9901672885 0.1987274749 1.7259806710 5.4461671242 4.0512579096 3.6749610505 1.4844924489 1.2755454210 9.0893033395 1.5696225096 1.3465478655 7.2574968061 5.6390725847 3.9743297258 5.3400467747 5.3332816488 0.2438321104 0.1114171252 2.0881820501 2.9307120193 5.5952991171 1.7353532301 5.0188548653 10.7417731034 5.0688358995 2.3662999931 1.8027466673 6.5274042445 1.6561929200 3.2414432891 1.3764714345 3.9721794944 8.8975353653 3.2298669355 3.3411438069 7.2142201206 3.4318770220 0.5681596467 8.9862635865 0.8737824282 3.8983628285 7.6665378094 5.6968608252 1.3046786149 1.9728312572 4.0619255116 1.8068718573 3.8376301540 3.6690015324 4.6242178660
5.3614741878 0.1430506944 2.4325563297 3.4901297401 4.5138992875 0.3842081596 1.8454339947 1.8432939254 2.3684179022 7.7892868889 1.7960736490 -0.4912239150 8.7209105038 5.5759728193 3.1883263156 1.3425904038 5.2104413578 2.8554302730 4.2574812458 2.1435252137 4.6663148842 9.4813345436 2.1074074116 2.5394439042 6.8132380729 4.7525975741 0.5004025282 2.1328735532 5.3270518826 4.2900456621 4.0570438293 1.2606462988 0.8045506307 8.9851330129 1.9689391320 1.0049603012 6.9896107199 5.8373229407 4.3615673642 5.4071291754 5.0615026710 0.9338881448 -0.0356702338 2.1661533845 2.6599700659 5.6406861246 1.6648275330 4.2722754232 10.8392196437 5.2104990773 2.8841288725 1.7915833885 6.5279755076 2.0724708796 3.1971221502 1.4379730642 3.7342276869 8.7677224644 3.3031757675 3.4356745379 6.9721638464 3.1775735684 0.5129223597 8.8047495127 0.8701692746 3.3391929013 7.8683108790 5.4549928515 1.4304249055 1.9564031564 3.8933349837 1.8778401051 4.0603171731 3.8105478544 4.3962111447