-28924.500384095
-28923.5896296121
-28923.7260136784
-28922.3696388628
-28923.7559467296
-28923.4416499647
-28923.9369673747
-28924.0202895418
-28924.0403507161
-28923.0038727652
-28923.7112441632
-28923.8871527443
-28923.7521571381
-28923.851611974
-28923.3488119816
-28924.2579667081
-28924.1922151947
-28923.2868359097
-28924.3912511272
-28923.9431051713
-28922.3303602027
-28921.7224741174
-28923.3657462974
-28923.7184602103
-28923.4267399028
-28923.6348349085
-28923.9889126553
-28923.5867936431
-28923.9029187399
-28923.4337773072
-28924.4904535777
-28924.0160642963
-28923.8190756111
-28923.0104357395
-28923.1699598105
-28923.4131738103
-28923.597338185
-28923.3648409751
-28923.5825361522
-28923.9302038526
-28923.3546934471
-28922.5583554276
-28923.3709202672
-28924.5357293516
-28923.6909001267
-28923.952814052
-28924.0606867252
-28924.1528573495
-28923.5652118975
-28923.49799546