-0.0568781718404803 -0.172070733004867 -0.35034604895102 -0.49923521361707 1.44402000615568 0.265127907165928 0.712292652258411 -0.290525251063672 0.736176131397398 -0.395121016026949 0.0246542954682587 -0.265035604610155 -0.949348498290636 -0.178586676378024 -0.557985147591339 -1.05574454875677 0.992782892871294 -0.118129787897407 1.11280244061531 -1.36209878824993 -1.82678250700615 1.97324763686487 0.0475766967423971 -0.963327321841723 -0.105601065779639 1.9395924281027 0.441512177714553 0.431635804246807 0.154082276146578 0.213705356303037 -0.104090543453265 0.114664456848068 0.0256002038322979 -0.195557234020974 0.237083613932011 0.0945795235558637 -0.462378211743357 -0.574754387960832 0.93665111189268 1.44151215342863 -1.34424762822947 -0.747545543699061 -1.83371651153721 0.225117448895112 0.079370427778104 -1.97221225415707 1.57501713028215 1.22435689268724 0.369757353563207 -0.0449508304412466 0.17344113028139 0.255872711900824 1.14626455962989 0.7307773317703 0.642052207086187 0.952440248243767 0.349249474019618 0.306986216323493 0.932301321813089 0.0902531305029448 0.16443764588565 -0.0685692289813416 0.520459402131089 0.0605859577925896 -1.37105624992287 0.271935670597032 -0.410717319740627 -0.669757371988447 -0.201140895869802 0.0914895733740144 -1.9161624913269 -0.262610798472277 0.477928235624057 -1.79281748047321 -0.860292472800729
0.0450377336831725 -0.00671726064661306 -0.00291151571469977 0.229188531536101 0.260890988456768 1.05616389546559 -1.37479514620715 -0.433508594821327 -0.97999603212958 -0.365059179185363 -0.602978915433182 -1.39855084158508 1.12870727654885 0.336065635155025 1.22386246980492 -0.745709262770556 1.99081520435324 1.31488204576403 1.66972572314998 1.18771714891834 1.00818816371884 -0.139208966268095 -2.14075569255845 -0.395443175086515 -0.455205094741908 -0.777052279655091 -1.45157364622829 -1.16522694986219 0.0797743478759311 -3.13990669044755 1.42827149321354 0.270720053650803 -1.98928668431404 1.32660035658431 0.0782825945929314 3.10518164621304 -1.08257476770556 -0.434600284659248 2.195804011225 0.894996176890036 0.298165280157835 0.214712714000864 -0.917868184568265 0.422484995716086 0.561551522942681 -2.25583152569965 -0.158774022769842 -0.185588557997454 2.39749717976835 -0.254258317060431 -0.636104734328113 -0.973371074038741 -1.75680251444952 1.47214168955475 0.144514177788504 -0.187155130343768 0.691950865893178 0.174449773530133 -0.370864212901938 -0.811133005770474 -0.683879405911584 2.38158463052932 -0.115877759802648 0.651393020042302 1.96298045591864 -1.59013649460597 -0.264453764265545 -0.203364641844408 -0.923094463262428 -0.359739826604877 0.205011689678068 0.636136358880648 0.692542219314567 -2.1476606436388 0.139029246250029
-0.174055366509085 0.224021131073894 0.15860895803222 -1.04610060289465 0.898051417197152 0.286841633468784 -0.596757363219802 -0.875618810822033 -0.44355594656091 0.604470154495815 0.104997885289822 -0.897496573421779 0.962838812493619 -0.915715143894042 0.48556029430254 1.13091482458191 0.37792317298204 -1.27546165536368 1.45768566950362 -6.54494694448506 1.15252185015873 -3.01524964632892 1.61717702968462 1.21844541535482 -0.679759472335785 -1.46791454103255 1.41950043642343 0.412232212940116 -0.74271084381393 1.8263988986128 0.383400905435385 1.54028591540324 -0.637857711557257 0.559435506134841 -0.546624219925722 -0.70057357010758 0.777430488734597 -0.123728362136862 -1.96184480023939 -0.0884914115275719 0.26562901491301 -0.0892529718902477 3.45742542542635 -0.157866938043468 0.148538466376148 -1.76464514636806 0.938998013645045 0.447622658328785 -2.94122736747183 -0.516535643625081 0.696110651547375 1.0076788284459 2.66430992996487 -1.44366339433157 0.616729425141576 0.526963775546002 -0.297073333209731 -0.0507162691896065 -1.12149070792644 -1.04039429948842 -0.8486392108568 2.5275172851986 -0.00809922788138093 -0.558598355378301 -1.05199613939571 1.25436679327182 -0.704707644743456 -0.100700545687607 -0.0724878452836853 0.800569891003367 -0.567401808051501 0.346377039052767 0.298135712486765 3.04737607794171 -0.573131251374211
-0.0686605030963821 -0.00652622778048608 0.0267116911543261 -0.337436032431548 -0.409533327346933 -0.463976922862573 -0.0900312444148323 0.0742274527833019 0.252236402579647 0.4519552220261 0.446042202032576 0.519593969254396 0.0782486560487473 -0.247524858472276 -0.279713253639214 1.45196033994384 0.0509530676683453 0.861111368734261 -2.03229581865167 1.35504985546697 0.0238145736098863 1.14162243527198 0.212409263869462 -0.734136476313973 -0.451092103141056 -1.12386460624804 0.958233969112281 1.22623559679598 0.0783124193741841 2.68532277390828 -1.14126505211732 -0.209593136032734 3.40470729635025 -1.15393184240347 -0.125274622778703 -2.38456865131568 1.09356365693606 0.272060883256257 -3.3359421494093 -1.9318948063275 0.0465757667991504 -0.0322734986375816 1.45801297076685 -0.0492862223505779 -0.280555289489236 4.76518706177648 -0.173914213018501 -0.478031851027891 -4.20499436615208 0.0151620446142318 -0.214660006413305 1.35207869018976 2.74299181667233 -1.34214523826134 -1.70013774406111 -2.64998349344608 -1.89803365230858 -1.21983972387838 2.63471603365673 0.951013286726937 0.735912850569789 -1.79436656932707 0.549239287599178 -1.39808932880621 -2.62257091993231 1.46329529948095 1.44661450501448 2.38213870297414 1.55543356184721 1.40620783995133 -2.84661801913471 -1.03194000244403 -0.877931002699664 1.94841670670075 -0.774735716904346
0.0569918145414603 -0.0207349078353654 -0.0210061590786547 -1.19434750632303 1.97575368982064 1.50370684963758 -1.47222679302539 -0.15397351853908 -0.927061673389399 0.93726097724726 -1.51743987585351 -0.737880771912098 0.920140524367498 0.0261054253423108 0.905746982090889 0.206650252875682 -0.990521094589573 -1.21732055830326 2.30023239745901 -2.99529738189126 -0.215261130021656 0.400882083902195 1.42127989600144 0.088643877866217 -1.03329548732992 3.09070711422872 -0.0767430188158542 0.000651774314444007 -0.102946403137969 -0.475508828800026 1.31458328373113 0.331312439197973 -1.68931700489042 -0.264114635933887 0.280770490712585 -0.0360129091422261 -1.07036871886772 -0.253569518879605 1.67274985312493 1.29416127898874 -0.166811029986886 0.0751049698386066 -0.909707250242913 0.0311617542053703 0.666788263592708 -2.76564682335592 0.465187397605138 -0.215978210322636 1.47640431928223 0.179521014783819 -0.475640212103648 -0.67313734245696 -0.162573339947175 0.865997747766217 0.854873618579339 1.40695603058448 2.02723537602568 0.615504295118568 -1.24609530156769 -1.062290059801 -0.222779803109343 0.327019984689238 0.851444282955649 -0.0201803211701758 -0.246034390740192 0.147536765102351 -0.686746441564588 -1.09376548842988 -1.84954138620377 -0.804117754421518 1.20256886154144 1.35804776020323 0.738332000283636 -1.78858159020478 -1.16344106252959
-0.0795632604155135 -0.0583550127328536 -0.255383174111987 1.22468933615414 0.191383821527066 -0.463625453242122 1.43979465740477 0.225815760152718 0.835956479739287 -0.480878060756055 0.256791623695625 0.249361653621147 -1.73141134119617 0.560539023041189 -0.226490417273468 -2.2097306414089 3.89545324593801 1.71574356085156 -2.40011044767052 2.496965653458 3.03725802090174 1.10463610697611 -3.28827315011113 -1.4415584332616 0.173288663942745 -1.86056318553772 -2.43352937217431 -1.37101151275099 -0.0888801621245894 -3.35635284130363 0.267254722601463 0.509084076295213 -1.54536127041985 0.832590907441034 0.762111606908606 2.5977045085629 -0.370586533904068 -0.868126877193401 1.68458669173967 0.252732368123064 -0.631303201656617 0.449683653557417 -1.62569174762207 0.450099914944038 -0.427952443762103 1.97722513139917 -0.0466958372547107 -0.668247363882439 2.81326131529525 -0.286558298046884 0.575986202848604 -0.128203879096044 -2.01185658752699 1.51926304416267 -0.909958961112278 0.0144153966421823 -1.46088797683553 -0.417731028428485 1.39070409590361 0.550799432190912 0.599751668413497 2.30684321448977 0.177022932243725 0.497510261397897 0.93085764813435 -1.66571171896967 0.504424211334667 -0.122160247129448 0.930561714313472 0.23841364490977 -1.97049064437028 -0.181398433341637 -0.200696095252844 -2.75780213455592 -0.197428739044578
-0.114878372520501 0.0457535284332364 0.0727313286271876 -0.771513097867959 0.675464703835401 -0.217591062501929 -2.39436917727938 -0.628461105691385 -1.47955031948402 0.256579507794475 0.0929476452230132 -0.856106719018027 1.81719512538433 -0.410885726910632 1.8011846171655 -1.09277921376708 2.67385540262682 0.182178505637505 3.21291698362352 -0.32283371668617 -2.254135369821 1.98114323348115 0.238338825846455 2.10593294645431 -3.08874253531879 4.40602290487182 0.376568459426693 0.966828134096346 -0.290906031245009 2.15528344635069 -0.548838967043916 -0.197135890545899 2.24712217535351 -0.785742346737495 -0.416119204689925 -2.68548269644224 0.588034643144131 -0.0829067212380105 -0.495921834686009 1.07393072334595 0.427866311850726 -0.512468931857207 0.440064904493249 -0.309967666008027 0.10016781338799 -1.60939430443878 0.307203988648675 0.806059707635323 -1.24577725627105 -0.0315754444901594 0.0579207536334075 0.449935621536965 1.2828098643999 -0.44888918309129 1.06414151023031 -0.528919355599518 0.678400645017506 -0.82138784542791 0.0694035515258666 -0.094933050057781 0.324031078809391 -4.59061850334171 -0.0664352144606768 -0.484866611028233 -0.775785754892586 1.08842530992456 -0.898901937683219 0.287552543125367 -1.27272317480228 1.62184666483213 -2.32287352019271 -1.46345779311674 0.0605435346123595 0.401768856924095 0.175719897835203
-0.159909164228726 0.242601969794304 0.226964785561495 -0.532942872856612 0.401385762751108 0.731532464378395 0.149074798218329 -0.76126520018547 0.0129226149184498 0.537922839995257 0.175833026315817 -0.618201123830285 0.411611034737475 -1.0672553716592 -0.101755725879511 0.128135230677127 0.704234047785978 -0.901109228606099 -0.32702409845217 -1.20501526493471 0.712049683135275 -1.96025200265439 0.9777535171116 -0.173466069969162 1.87095095115988 -1.78349543656047 -0.556117242110299 -1.62085781906749 -0.358061411328865 -1.01201344902468 0.538240628181708 1.48883199709799 -0.418423940372243 1.86464686657769 -0.532950586162108 1.96454985647697 0.321347876937384 -0.904519795186415 -0.78149308673954 -1.78406493561629 0.678601190960412 0.540672633404716 0.310474687289322 -0.222380768104997 -0.0413572014104837 -0.806055079652025 0.648413884349417 -0.00330746539684722 0.254514141692728 -0.46043368742772 0.694008518689428 0.437069313748639 0.588893134045878 -0.532179512722654 0.250582669881224 0.781990594944056 -0.817033170254838 0.283196068181012 -1.33746506159632 -1.30901581982385 -1.11186784509934 3.32745648492255 -0.114984301915984 0.0389743042324691 0.132748301584328 0.506113939458741 -0.337854350699635 -0.114902540877722 0.740358542747718 0.29218978238979 0.906002035392636 1.19836999513939 0.951896717316456 -2.30700082303208 0.0529137899255248
-0.0433390067026866 -0.0114987387238183 -0.059507894794379 -0.932538634512194 0.150172915810831 0.164298292166349 0.371687479708584 -0.35949197238826 -0.248396976213733 1.37510136443535 -0.891267307902903 0.169421212566861 -0.143818180522547 0.107169180787053 0.0393967362634874 2.41352105771671 -2.0283530339921 -0.208321983286931 -3.94368505942723 1.4706674197642 -0.853361553591866 -2.25098242764426 0.749439160198422 0.376180223050042 1.00772150873631 -1.3719777328195 1.60298943266477 0.476068300558697 -0.24102665570176 1.06175115685698 -0.922025913340996 -0.138583674302521 2.43124649085757 -0.304016850817571 0.167686233050542 -1.07336199562068 0.618979653465053 0.399255347773009 -2.40429928677542 -2.89672005209662 0.38065702556014 0.147851467966604 1.11483078285068 -0.182962948806486 0.209617818610322 6.47968595223112 -1.15866421243568 -0.366308734675776 -2.38001728685245 0.129504599512917 -0.079683587981257 0.330540594427969 2.34391824579885 -0.650683395936635 -1.56613140235032 -1.19230553724796 -1.89089138852912 0.291527980778201 0.299619495354085 -0.269347342382631 -0.512931473076807 -0.333935220176925 -0.175524751206145 0.22189920073184 -0.517879815662917 0.1047256056058 1.36180953929381 1.36207564833344 1.70762273571479 -0.0832383933743548 0.0662490666880309 0.427306325871689 -0.0839287342162807 0.801533539970048 -0.162718864310874
0.0496279217840675 0.0109004433274825 0.0174976335185353 1.20328568473223 -0.338170339114803 0.928810022635244 -0.133233725610233 -0.314705949574453 -0.325241296441773 -1.48725334057307 0.276302172838532 -0.997983203436952 0.151337110720417 0.240962892376323 0.192564214378195 -0.435969910605222 -0.556253253397218 -1.27232259713684 0.939252809836608 -1.38088043002342 0.459145822520008 -0.630212797369613 0.806535104364083 0.456692477151793 0.52306367117685 1.1948028484575 -0.525786982237438 -1.55798306642395 0.30582870627867 -1.16247278557961 0.601479448844686 0.463299694639991 -2.25256056994882 1.51062876999003 -0.346375753501851 1.43487125450643 -0.781370702292331 -0.458575295023459 2.00286852974225 1.92299133779303 -0.0276678839256939 -0.132648542833241 -1.58219770347891 -0.0892853677733325 0.208451823929453 -3.16810242157938 0.216543081395155 -0.0592237880419291 2.38938098261487 -0.00591996196847071 0.370920262921878 -0.698761971756664 -1.74014768811156 0.708307187308432 1.08274060377373 2.19348847691499 1.15301164505775 0.75135257418189 -1.87803048005464 -0.227630958046199 -0.654147955655425 0.782506357971581 -0.739433460308519 0.927638628640528 1.50666233119361 -0.593423672584268 -1.05257669418941 -1.88094045310824 -0.902630292449985 -0.785117054771922 2.19469535211499 0.344895313066913 0.914147543106995 -1.17557486340594 0.913322476529066
-0.0590283843026875 -0.018847976200768 -0.0143254080780579 -0.504144218345149 -0.202607452354847 -0.392141623223882 -1.61613033412876 0.860890253976698 -1.2029308726794 0.242689901476963 -0.0119553664092039 -0.764284959287302 1.37355998888699 -0.111412270140611 1.5138393048478 -0.439500290530914 0.611044718990745 1.65242272204014 -0.538587726929045 4.69784913346255 1.86501993345353 2.82888178736615 -3.71771683293587 -2.7341827075751 -1.64327037084832 -1.92386911195852 -2.631716072039 -0.89068521044811 0.529039683165261 -2.0840608402786 0.0937014922801926 0.0266461280576069 -0.593725519939359 1.07570298383883 -0.129218435879002 2.51414549879008 -0.50978007356117 -0.442696170108247 1.41005497962274 0.0541322350837695 0.850490147065747 -0.3485084824716 -2.21041044073331 -0.171393504782285 0.329463302760308 2.09940826133492 -1.62599745162991 -0.376101033113612 2.57350915477168 0.687592848287724 -0.642113399309792 -0.651784855961518 -2.61343450957185 0.917704148271375 -0.146993491285223 -1.27364440058874 0.041465187687433 -1.26768690053352 1.49262334385965 0.811795578712613 -0.494453735539865 1.2780067890673 0.148898677742829 0.606604940347029 1.39316386902641 -0.472891447134921 0.519287236805823 1.06214376410675 0.071534737834516 -0.450808253498789 1.00467526728561 0.238557369502186 -0.044213695545976 -2.2513724637922 0.742081180975243
-0.0510628537165771 -0.193366141039636 -0.359400698273219 -0.768822954021005 1.17566947995337 0.441156337220987 0.473920659198321 -0.019721122382958 0.699199059068125 -0.31865850442098 0.195647993915648 -0.556532989276554 -0.724054157589473 -0.593490007011536 -0.65455084731252 0.565254680911492 -1.7964244792335 -2.59841773221113 1.84110945774531 -3.9434955692222 -3.52986801931779 1.40100213007183 2.48820256708356 1.5748631212824 -0.517268150537054 3.83747258563191 2.23907616928005 2.02497203508285 0.271239159110709 3.79170928701171 -0.539305835670758 -0.536640631511576 1.61685101397231 -1.34940294451307 -0.384489767061291 -3.21958745021679 -0.0600246862626364 0.224265128637763 -0.619045730782139 1.18204195584429 -1.29981436058703 -1.2060889570598 -0.375394751440327 0.0353652485907135 0.391468251654048 -1.96702608465149 1.48006094030788 1.71331206984892 -2.34784328985577 -0.0555833649578215 -0.22775745625634 0.659694850748055 2.80232924741524 -0.405644021605476 0.694503970012479 0.75611039812224 0.627030030411623 0.890807852005502 -0.189220239335332 -0.285097912206236 0.210659371962517 -2.93341713143638 0.644385996219209 -0.31212636310628 -2.10770752093885 1.17525681810931 -0.334901697355621 -0.464711486656012 -0.173112800577427 -0.46556766356611 -0.782378059990158 0.00504398757426529 0.187492458904143 2.03409738970544 -1.08424829788809
-0.0103201456439716 -0.00630974100622105 0.00475011063485326 -0.0413119500182383 -0.934653108658935 -0.487731846909954 -0.626044012859003 -0.173379938057785 -0.315226083475092 -0.321381815481568 0.692019771422279 0.0317960450273558 0.497032807787671 0.0791688533944653 0.323913579455663 0.515624445135776 -2.03855105229905 -0.863204759845978 0.587922028883884 -0.814068432732213 -1.3938500961054 1.60378004647814 2.44873229730768 1.12364786236359 -0.524523542797131 0.845665731587946 1.21146770209261 1.40348015801763 0.291255186873812 3.98583390309182 -0.359067483475776 -0.171771970971974 1.37843994016437 -1.24409087057936 -0.383708923434874 -3.71206220867647 0.592587807378643 0.144492580533114 -1.89842291712597 -0.539193992741061 0.364242340133296 0.197630827648583 1.43112670179812 0.185176667483947 0.607107076534844 -0.153210929735671 -0.235820945822254 -0.196322651036398 -2.92023972032636 -0.328485769843733 -0.523675850523079 1.40482355872492 1.57659424414597 -1.60638817217665 0.322499473447994 0.273114520787062 0.411363694741224 -0.25536903305191 0.050115916911805 0.217062701075427 0.560727484805484 -1.50547859591009 0.194661205032478 -1.51926947191725 -2.10250361083062 1.86028164988711 -0.184226388246793 -0.375764218773604 -0.057153536846701 0.104842590739162 0.572612917244854 -0.517173533989632 -0.326197489213141 1.54730476629476 0.0232553589613988
0.0262229246960389 0.00419423841874757 0.0121366290883688 0.434556318817919 -0.608695503246731 0.105789527543934 -0.492220219378297 -0.213126344170442 -0.322765325377436 -0.860813892252284 0.468375820987158 -0.426421866841438 0.39438799489461 0.133074317296641 0.26235574517053 -0.547539789288142 -1.32992967634673 -1.70191926052059 1.11635647467786 -1.43205564089007 -0.231503551625748 0.687084541455513 1.80210147207884 1.0635596698857 -0.00420272305479358 1.40927259333523 -0.0431022082239478 0.182381108461876 0.308615780664695 2.07126086691754 0.382947363072198 0.226548524174874 -1.03021479311467 0.0105026938740526 -0.357351273002832 -1.40347013072049 -0.327234414582037 -0.254355247599503 0.655642794260624 1.03473967522903 0.13169209295169 0.00278013241107812 -0.297553357921789 0.0150496874641678 0.442657860690949 -2.39542127214909 0.0734118992821514 -0.0933032286063962 0.366368384238282 -0.139023332715815 -0.0859347078657056 0.244625169826004 -0.359153358276969 -0.367768092075691 0.875419807540227 1.51570103968445 1.04745274534816 0.324783383205471 -1.18137501202904 -0.0650961846265055 -0.026956974269111 -0.325176504675604 -0.239707680461879 -0.276759314744284 -0.17613821610329 0.577923270968928 -0.774394531691222 -1.39471501476173 -0.692830182719765 -0.423144226225843 1.65303721537802 -0.0454179996441439 0.345864618457624 0.0300201849919062 0.507895713028404
-0.138974738891188 0.265921863411689 0.319882606003256 0.963221135336056 -0.895315250627403 0.590868511583501 1.03914500110819 -0.445361117157246 0.559339861146686 0.267673297979733 0.344643602197548 0.477800451863 -0.288846578677476 -0.895800160432942 -0.69678093779501 -0.820105894054412 0.717068473911586 -0.585848178146091 -4.42343826313173 3.4724324326001 0.149408270125956 0.824396805902047 -1.23633848433513 -0.899784082721822 1.18566078167301 1.65161076808156 -1.43169311553174 -3.04447613218525 0.315439227816975 -2.96761330002402 0.100406411638011 0.553470549884308 1.33062721627378 1.28198608337289 -0.0969189691129154 2.16238740071286 -0.118143414737118 -1.44779695474708 0.627544250778049 -0.699446656174559 0.668975242811114 0.106818739607334 -3.23900698235484 -0.0857711857891824 -0.00816016299480232 3.89171434965373 -0.771862767717128 -1.16960630761285 2.84755415731179 -0.210959419546326 0.321110307128096 -0.46647680517395 -2.00040412863616 0.308084848136361 -0.437200697052261 0.56206522908874 -1.26159441763211 0.134765588081814 0.127385240272695 -0.677869969599355 0.0348980793878161 -0.59541987604673 -0.427981754322989 0.579494985518907 1.24017174005665 -0.186718557252673 -0.0699352553847503 -0.100035144533452 1.19605934592286 -0.00567210775185374 2.33781059339663 1.31529650737936 0.600806591495218 -3.47501150484791 0.848422724082534
-0.0144945865786118 -0.0184954781395835 -0.137228189416624 -0.833423430214276 -0.299285509226092 -0.232001316940447 0.0709559828121044 1.4366589416103 -0.277586438203679 0.3982446476428 0.411315872247146 -0.697659740401231 0.142950176544021 -0.466785080283622 0.383424559572241 1.0690993658932 -1.93379613613236 1.42316219965274 -1.49933520519241 2.96975554207055 1.86243391923078 -2.39048527085177 -0.0806042995473414 -0.977068318473338 2.81741287342359 -2.83671002111443 -0.586041525003867 -0.29294208678587 0.784034620900597 -1.83663856876942 0.478721934759634 -0.0479263665915663 -1.8047808172981 0.551093052020141 -0.148019875136608 1.78734951820683 -0.780707872240008 0.158437208429834 0.297141210298099 -2.53783331707964 0.818172682586836 -0.0963998636530091 0.640310285594922 -0.17026067731505 0.553456665934415 1.72983782687491 -1.53564250549442 0.0989552817639594 1.54209905641525 0.888599789752072 -0.757731477827395 -0.676628384524621 -1.71855068983188 0.664699243354105 -0.248870058950844 -0.944188811133924 0.126653504691272 0.766003226641712 -1.51775509293813 -0.597265412941831 -0.644940068664032 1.89302745993125 0.36230424357224 0.935773337727192 0.901531660637118 -0.594470625250309 0.161157691278407 0.530742009688312 -0.0796812739896081 -1.26651370676752 1.62942935835544 0.617924216162965 -0.117485469778277 -0.703684603324452 0.49704874861903
-0.0732074966864974 -0.00779583786519003 0.0431446314041779 -0.555898184234202 0.2121866064508 -0.35724714337863 -2.41476804210529 0.0125194661511724 -1.56792551720878 0.165599526803588 0.0210110441721358 -0.720483925585382 1.7670735520485 -0.172137067432135 1.86102264143512 -1.2172801920045 2.20707777853851 1.37404772690455 2.88642587458115 3.49769839319423 -1.81928080319055 3.0391914894795 -2.68559865313487 -1.46112683219573 -3.00545811922164 1.66671522001475 -1.39580310505708 -0.228444454665884 0.126980805954502 -0.474176740940801 -0.566055322022016 -0.371090984083531 1.99112682189529 0.367566003471686 -0.172631747424637 0.73972965123958 0.0864000772973204 -0.37202403693841 0.738860104599955 0.981601942333927 0.681839236607792 -0.473857410093251 -1.42264643662522 -0.256829933112924 0.170567409763622 -0.828514939706564 -0.51554474097898 0.527661572583241 1.30013780519751 0.353276847929461 -0.362554154670322 -0.16646958766358 -1.00145984733435 0.497924980123419 0.626945184051163 -0.994357949853655 0.537870903738248 -1.3732198321146 1.44183945469186 0.764947789339624 0.0417742341276546 -2.14066390422304 -0.0143963704886246 0.120379759110701 0.507694909975315 0.172797583492809 -0.225016918813476 0.753252104215465 -0.70899290016706 0.693761435803361 -0.73855080104955 -0.701980477030119 0.000122127337025997 -2.05340662157489 0.638124334817248
-0.167335791870823 0.152926051652671 0.0999271582565031 -1.04010607897304 0.98327084453316 -0.00475628127925037 -1.55791493222539 -0.901649159990846 -1.00190979015498 0.443248699891971 0.126218217151093 -0.972423365903419 1.50261695957094 -0.685282713291558 1.24249833010454 0.542909234888483 1.26021604993991 -1.34459009899351 2.41914482875412 -7.84251467629118 0.552882796005484 -0.454800403313531 1.75146053617291 3.54284539870526 -2.37447759084495 1.10628803990326 1.79195359025762 1.63675108504278 -0.637024931673831 3.64254398600889 0.0232427605624214 0.932900388539974 0.214986022125619 -1.04795282465451 -0.566739235109362 -3.96037202453809 0.88710623669779 0.210297360824553 -1.87426998651497 0.828127988880829 0.182858819182285 -0.459851332862743 2.94653900674682 -0.224208050177089 0.175036498968224 -1.74205827388301 0.793212940220921 0.718348882623985 -3.8314826896936 -0.373452541116339 0.474381400646639 1.00065997755438 3.03541017001499 -1.45485565771699 0.946545997293618 0.0317945023662565 0.276446925871681 -0.421038750935515 -0.708699280337832 -0.653892645243495 -0.152313100975892 -0.855902573532556 -0.000920197345717988 -0.838663078637966 -1.51488728595458 1.62292755604236 -0.999623566405849 0.00375612266655325 -0.95324320334594 1.470008960585 -2.02321031610748 -0.87490147341087 -0.0191338827245004 5.76296123463449 -0.798792745417001
-0.0212367869129965 -0.00399266403510887 -0.0585115928344301 -0.414049467715063 0.00843758488248874 -0.00941434646851351 0.501154026914386 -0.484128190582046 -0.135310404560041 1.3142009608887 -1.09644251965749 0.257329241088723 -0.325025580998058 0.344623547603257 0.0370935432422687 1.02549887813418 0.86036857741496 1.25364379943663 -2.14399579508729 2.8971170302195 1.32427530919752 -2.59981512605689 -1.45612295381005 -0.6060279850959 0.94913278284692 -2.40179143404836 -0.941319204379088 -0.645255799969017 -0.358318521512077 -1.48068906048547 0.312650096549484 0.355351469997804 -0.0168440594328088 0.666698275028583 0.47153724779994 0.999555689317481 -0.652482138778391 -0.186833999724936 0.275987984194646 -1.30831005237093 0.224797346717013 0.17788605112877 0.336303976294863 -0.247140735858556 -0.0623595038363903 3.37782925490738 -0.678411957865567 -0.312862469560818 0.1187486521084 0.390945289541393 0.190447426239806 -0.648082469323256 0.0633992574173021 0.641111955146179 -1.74270464888361 -1.73341474374377 -2.23461350783003 -0.120423210731664 0.955624043642489 0.195809973331072 -0.866532279837116 1.2719816690339 -0.537528175864026 0.897513799804054 0.754610417313377 -1.15758614943747 1.40002151183305 1.65005062348982 1.90383508648259 0.414990233875438 -0.680799225916697 -0.184122258622592 0.1731714216992 -0.921446901208401 0.480212402491718
0.0159004650604184 -0.0145354670977426 -0.0443797887243313 0.733123205081932 -0.60484913490587 -0.435832613767386 0.597867307880731 1.34973050288648 1.24759245416453 -0.473727312340546 0.130781922903117 0.696497345262927 -1.05266539720261 0.260815655173086 -0.797008914965872 -0.198637414015861 -2.23842259519433 -0.756779655929142 1.12838871703185 -2.16192383105252 -1.40660378963348 1.9228080182324 2.67589968569354 -0.540675461616732 -0.592585493386994 2.12343160841358 0.703236974495479 0.384371753487196 -0.314822934707814 1.36836250653335 0.105223885140866 -0.331821003140367 -0.325703066330823 -0.108112260939077 0.16204472141049 -0.8755841009473 0.156998419844576 0.320252587556899 0.345058578033253 1.27093857302061 -0.538061936604375 0.628188311786996 -0.695913448036851 -0.462618095544295 -0.902984590282452 -2.30534477634201 0.79817079588381 -0.455331850062232 -0.3729324072157 0.262219476773427 0.59150794460915 0.399979884269302 -0.213692757904059 -1.03188935173793 1.33065498417357 0.481928870074845 1.45546372330029 -0.0609474547101865 -1.00683730681625 0.573373449166797 0.595346342534332 -2.5223375434476 0.268228655975473 -1.13914749264838 -1.1515941966177 1.11010946855635 -0.966539656470781 -0.49493993089632 -1.07833502078438 -0.182436901371633 1.519742040434 -0.207802877827025 -0.492611283966963 1.97143886672597 -0.128708586385691
0.0122775254687693 0.000259681285044752 0.12580015599319 -0.0976548184572699 -0.114870916325187 -0.324821178402404 -0.0850415070892249 -0.0738135053883296 0.135168993959275 0.0662040724059687 0.129836271649261 0.0467446881895211 0.169894038193789 0.0272444234539427 0.0277051649022597 -0.542523569613664 -0.020774245693397 0.0613524032487464 0.45963098943573 -0.235502643415437 -0.226582205608875 -0.70665833970349 -0.29539903169665 0.431484880569261 0.319081450672365 0.374753775753578 -0.632149865489936 0.711096318575923 -0.40525141435571 -1.65803363756839 0.275305356658217 -0.526394276490186 -2.22083240200984 -0.693335918450144 0.395105589415957 1.66893588066716 0.108903646083006 0.542930060813323 1.98596302097565 1.33561412538738 -0.11091681881756 -0.530036242235393 -0.969454514617863 0.0944944200852203 -0.955551538570823 -2.52667936311151 -0.0639723560156831 1.2509012051123 2.34994799381555 0.133584681010318 0.480820725185199 -1.1392053424396 -1.55699627754078 0.851571038275973 0.890055033389056 2.03529295205738 0.883593597374739 0.697728645930332 -1.71028768276379 -1.15639212974663 -0.37139257432844 0.997527089971933 -0.465129804924099 0.732257772205238 1.49325403513907 -0.754585477625606 -0.574599350520355 -2.02985661434353 -0.767834879586919 -0.946945803628513 1.86500862060547 1.19181754212022 0.525493876628576 -0.94525607550444 0.550090579415795