-40.0149327509744 4.12273600953122 1.04336377042618 4.12273600953122 0.512021109560995 -3.46580326518881 1.04336377042618 -3.46580326518881 -15.6045678720452
-36.7302690292623 3.28707891562507 8.06916286341172 3.28707891562507 -11.477001474688 0.0845317869558247 8.06916286341172 0.0845317869558247 -24.7750591597957
-16.5537390798635 1.83796256781093 5.38829761995557 1.83796256781093 -1.72444845389882 -4.73136487561316 5.38829761995557 -4.73136487561316 -2.49731050606636
-20.1306412650514 2.49731050606636 0.340542341736322 2.49731050606636 -5.44867746778116 -3.30881566084228 0.340542341736322 -3.30881566084228 -6.68525675124922
-39.1213110031557 3.67592513562186 5.53803964256303 3.67592513562186 -2.562520741718 -4.74344084517828 5.53803964256303 -4.74344084517828 -18.7032616624545
-29.3276996858451 2.99725564606224 0.693160653037762 2.99725564606224 -6.87122668255203 2.74366028519477 0.693160653037762 2.74366028519477 -24.7823047415348
-25.9874865041335 0.526512273039137 7.11999165559346 0.526512273039137 8.23339604949732 -1.3839061121625 7.11999165559346 -1.3839061121625 5.81578694256074
-20.1306412650514 0.306729626953992 3.12526092345249 0.306729626953992 -13.8149091824948 -2.15918335824306 3.12526092345249 -2.15918335824306 -11.5422117103396
-10.3708426625232 7.38083259820001 2.1833352973733 7.38083259820001 2.87649595041106 -1.87177528259326 2.1833352973733 -1.87177528259326 -4.88593728604667
-50.0476482656743 2.34998367737193 6.35679037907802 2.34998367737193 -32.4215630884283 -3.13975208693063 6.35679037907802 -3.13975208693063 -27.7336717032496
-23.0892538085053 -0.811505154775917 7.83730424776146 -0.811505154775917 -6.33746882777383 4.27730841996473 7.83730424776146 4.27730841996473 -12.0807999529439
-35.3101350084045 6.96058885733391 3.78460886170792 6.96058885733391 7.73828129732749 -8.3952140416699 3.78460886170792 -8.3952140416699 -2.99484045214922
-27.4196964945565 5.4221103347379 3.12043053562644 5.4221103347379 -12.5203652451141 -7.81315230863123 3.12043053562644 -7.81315230863123 -3.42232977475439
-42.533980002258 3.71456823823024 5.42935591647697 3.71456823823024 -24.3089267345822 -5.56702196951931 5.42935591647697 -5.56702196951931 -16.7469545929054
-24.1954126206701 -1.59644317650857 1.77758271998534 -1.59644317650857 -12.7691302181556 -0.113514113912107 1.77758271998534 -0.113514113912107 -15.2857622755261
-18.8433429094098 2.28960382954634 5.77231345212631 2.28960382954634 -9.91920140078777 -0.0338127147823299 5.77231345212631 -0.0338127147823299 -18.5438588641949
-28.6562757780246 -0.603798478255891 7.11999165559346 -0.603798478255891 0.736634143472186 2.34273809563286 7.11999165559346 2.34273809563286 -2.90789347128037
-18.5438588641949 1.85969931302814 7.56197214167677 1.85969931302814 9.41684106687887 -4.88835247995969 7.56197214167677 -4.88835247995969 6.74322140516179
-20.3528391050496 6.01624803734169 3.71456823823024 6.01624803734169 -0.265671330432592 3.39817783562415 3.71456823823024 3.39817783562415 -16.9305093302952
-42.1813616909565 10.4771111946962 -2.67120446780406 10.4771111946962 2.37655081041519 -7.12482204341951 -2.67120446780406 -7.12482204341951 -14.6022623981405
-56.8729862638789 -0.195630706954909 5.21681885213089 -0.195630706954909 -41.2490968405294 -6.67559597559713 5.21681885213089 -6.67559597559713 -41.7731939196555
-59.0080176829917 -0.347787923475393 5.4631686312593 -0.347787923475393 -44.0096634831154 -6.62487690342363 5.4631686312593 -6.62487690342363 -44.7197304935443
-12.7304871155472 5.30376583299974 0.80667476694987 5.30376583299974 -3.93676607822841 -5.78438942169143 0.80667476694987 -5.78438942169143 -0.632780805212173
-31.2815915614812 5.98485051647239 4.15654872431355 5.98485051647239 5.9558681895161 -8.23339604949732 4.15654872431355 -8.23339604949732 -2.98759487041015
-16.3122196885611 -0.193215513041885 6.58864899472828 -0.193215513041885 -10.3756730503492 3.18322557736506 6.58864899472828 3.18322557736506 -17.7492600668102
-21.7560667685163 5.9244706686468 1.55538487998717 5.9244706686468 -9.90229504339661 0.69799104086381 1.55538487998717 0.69799104086381 -23.2583173824169
-45.4177215344081 7.01855351124647 -2.63739175302173 7.01855351124647 -2.45866740345799 -1.53123294085694 -2.63739175302173 -1.53123294085694 -26.2628186102182
-13.2666601642384 3.83532793388142 2.99242525823619 3.83532793388142 -2.3886267799803 -0.541003436517278 2.99242525823619 -0.541003436517278 -8.77681467992763
-34.1073684397187 4.07201693735773 1.5481392982481 4.07201693735773 -0.985399116513613 5.29652025126067 1.5481392982481 5.29652025126067 -24.4900662780589
-21.4879802441706 -1.52881774694391 1.90075760954954 -1.52881774694391 -16.7252178476882 -0.560324987821466 1.90075760954954 -0.560324987821466 -15.3509725111778
-28.6925036867199 3.65177319649163 6.78186450777016 3.65177319649163 -4.20485260257402 -1.70754209650766 6.78186450777016 -1.70754209650766 -5.83510849386493
-40.0946341501042 1.03128780086106 2.89340230780223 1.03128780086106 -19.7683621780979 -1.6302558912909 2.89340230780223 -1.6302558912909 -24.5069726354501
-21.6787805632995 6.3447144095129 7.83730424776146 6.3447144095129 -0.516851497387042 -4.25315648083449 7.83730424776146 -4.25315648083449 -3.75562653475164
-24.601165198058 1.68822054520347 0.746294919124281 1.68822054520347 -6.82533799820459 -1.47085309303135 0.746294919124281 -1.47085309303135 -12.1387646068564
-33.2572201823344 13.324624818151 -1.22691850781597 13.324624818151 4.47776951474568 -9.83225441991892 -1.22691850781597 -9.83225441991892 0.384015832170746
-49.0453427917695 0.439565292170288 4.25557167474752 0.439565292170288 -32.3805047919069 -6.61038573994549 4.25557167474752 -6.61038573994549 -32.1075878797352
-24.8789124980557 13.2497538068473 -0.234273809563286 13.2497538068473 -2.20507204259051 -7.53540500863351 -0.234273809563286 -7.53540500863351 -2.48281934258822
-49.4945688595919 1.19793618085969 5.15160861647926 1.19793618085969 -30.7188513797467 -1.94906148781001 5.15160861647926 -1.94906148781001 -31.5496780858268
-18.3409825755009 8.17543139558476 1.96355265128816 8.17543139558476 7.33011352602651 -7.55231136602468 1.96355265128816 -7.55231136602468 5.30859622082579
-26.6927231267364 3.50686156171021 6.78669489559621 3.50686156171021 -7.08134855298509 1.50466580781368 6.78669489559621 1.50466580781368 -18.3240762181098
-40.4810651761879 2.94895176780177 7.04270545037671 2.94895176780177 -9.7477226329631 -1.81622582259372 7.04270545037671 -1.81622582259372 -25.7918557971786
-51.7865878830512 1.65440783042114 6.48479565646827 1.65440783042114 -34.6749390092793 -2.12295544954771 6.48479565646827 -2.12295544954771 -32.078605552779
-34.0638949492843 1.71478767824673 2.27752785998122 1.71478767824673 -17.9497211615911 -5.6781208895184 2.27752785998122 -5.6781208895184 -16.8677142885566
-22.9829852763322 5.89307314777749 5.27719869995648 5.89307314777749 -2.56493593563102 -5.15402381039228 5.27719869995648 -5.15402381039228 -11.9624554512057
-27.7843907754231 7.95564874949961 5.21923404604392 7.95564874949961 8.04018053645544 -9.41684106687887 5.21923404604392 -9.41684106687887 -1.45877712346623
-37.312330762301 2.01427172346165 -0.193215513041885 2.01427172346165 -3.60105412431813 1.38149091824948 -0.193215513041885 1.38149091824948 -23.0964993902443
-29.5040088414958 0.627950417386126 3.57448699127487 0.627950417386126 -6.68767194516224 -0.456471649561453 3.57448699127487 -0.456471649561453 -11.9697010329448
-21.0508301459134 9.97958124861336 0.869469808688483 9.97958124861336 -9.02316445905603 -3.09869379040923 0.869469808688483 -3.09869379040923 -16.0079052555202
-42.229665569217 4.10099926431401 -1.35250859129319 4.10099926431401 -2.26303669650308 3.33779798779856 -1.35250859129319 3.33779798779856 -28.289166303245
-20.811725948524 7.30596158689628 5.21440365821787 7.30596158689628 0.183554737389791 -5.24580117908718 5.21440365821787 -5.24580117908718 -10.3732578564362