10.348723 0.000000 0.000000 0.000000 6.236419 0.000000 0.000000 0.000000 5.015478
10.092247 0.000000 0.000000 0.000000 6.130263 0.000000 0.000000 0.000000 5.006816
10.463879 0.000000 0.000000 0.000000 6.085362 0.000000 0.000000 0.000000 4.993481
10.147003 0.000000 0.000000 0.000000 6.265679 0.000000 0.000000 0.000000 4.989461
9.990155 0.000000 0.000000 0.000000 6.047572 0.000000 0.000000 0.000000 4.891585
10.231645 0.000000 0.000000 0.000000 6.295586 0.000000 0.000000 0.000000 4.846409
10.328630 0.000000 0.000000 0.000000 6.189885 0.000000 0.000000 0.000000 5.004600
10.415825 0.000000 0.000000 0.000000 6.106522 0.000000 0.000000 0.000000 5.036808
10.220971 0.000000 0.000000 0.000000 6.260754 0.000000 0.000000 0.000000 5.043690
10.351097 0.000000 0.000000 0.000000 6.614858 0.000000 0.000000 0.000000 5.037930
10.258607 0.000000 0.000000 0.000000 6.294035 0.000000 0.000000 0.000000 5.039383
10.153361 0.000000 0.000000 0.000000 5.977872 0.000000 0.000000 0.000000 4.839208
10.127573 0.000000 0.000000 0.000000 6.282734 0.000000 0.000000 0.000000 5.061707
10.278524 0.000000 0.000000 0.000000 6.321885 0.000000 0.000000 0.000000 5.067940
10.247391 0.000000 0.000000 0.000000 6.369583 0.000000 0.000000 0.000000 5.081538
10.134601 0.000000 0.000000 0.000000 6.041215 0.000000 0.000000 0.000000 4.930677
10.270180 0.000000 0.000000 0.000000 6.227205 0.000000 0.000000 0.000000 5.004673
9.933147 0.000000 0.000000 0.000000 6.571333 0.000000 0.000000 0.000000 5.088493
9.873660 0.000000 0.000000 0.000000 6.561062 0.000000 0.000000 0.000000 5.090815
10.049652 0.000000 0.000000 0.000000 6.095258 0.000000 0.000000 0.000000 4.899331
10.283182 0.000000 0.000000 0.000000 6.178795 0.000000 0.000000 0.000000 5.032086
10.403441 0.000000 0.000000 0.000000 6.389177 0.000000 0.000000 0.000000 5.089666
10.316865 0.000000 0.000000 0.000000 6.286302 0.000000 0.000000 0.000000 5.058277
10.225943 0.000000 0.000000 0.000000 6.575029 0.000000 0.000000 0.000000 5.197530
10.406300 0.000000 0.000000 0.000000 6.218700 0.000000 0.000000 0.000000 4.946900
10.406300 0.000000 0.000000 0.000000 6.218700 0.000000 0.000000 0.000000 4.946900
10.406300 0.000000 0.000000 0.000000 6.218700 0.000000 0.000000 0.000000 4.946900
10.406300 0.000000 0.000000 0.000000 6.218700 0.000000 0.000000 0.000000 4.946900
10.406300 0.000000 0.000000 0.000000 6.218700 0.000000 0.000000 0.000000 4.946900
10.406300 0.000000 0.000000 0.000000 6.218700 0.000000 0.000000 0.000000 4.946900