5.4079 0.0380358 2.57178 0.187154 2.9795 -0.0624312 2.99687 4.64579 4.96278 2.25394 1.65275 2.33289 7.43472 1.52619 -0.0658547 8.07432 4.57695 2.5279 1.14579 4.7602 2.25328 4.12452 1.5654 4.69618 9.26682 1.57118 2.68879 6.28302 4.64103 0.290199 1.41128 4.73215 3.82812 3.86042 1.41255 1.16695 8.98931 1.62471 1.16875 6.4466 4.55553 3.77653 4.79827 4.71858 0.727037 0.355245 1.47312 3.08997 5.61715 1.69486 4.25137 9.98902 4.63481 1.95632 1.89792 5.94643 1.66392 3.55547 0.257815 3.87947 8.49464 2.75785 3.4716 7.0043 3.43411 0.90535 8.37434 0.324719 3.33317 7.03464 5.88985 0.969029 1.81972 3.48805 1.48613 3.30455 2.72264 4.06732
4.91699 5.90552 2.56481 10.1842 3.05666 -0.0303096 2.99497 4.69706 -0.083627 2.44214 1.74713 2.42379 7.44559 1.31182 4.90398 7.96132 4.63888 2.48428 1.25944 4.7254 2.22508 4.154 1.69948 4.71052 9.21732 1.50913 2.83478 6.23339 4.54858 0.237745 1.423 4.66785 3.75469 4.08318 1.79685 1.20309 9.00142 1.55932 1.33341 6.31249 4.58466 3.73576 4.73953 4.55088 0.764065 0.600547 1.64955 3.21899 5.69265 1.58334 4.14787 9.87373 4.70064 1.81163 2.06065 6.0113 1.59382 3.40578 0.414642 4.15315 8.40065 2.69005 3.56482 7.09646 3.40702 0.870806 8.48821 0.250647 3.51302 6.7978 5.79664 1.09109 1.89 3.50538 1.42315 3.41368 2.8168 3.96267
5.23377 0.208748 2.52304 0.061687 3.01052 0.043367 2.82688 4.76594 4.78352 2.27764 1.45646 2.44728 7.54986 1.58178 0.0989384 8.10658 4.52029 2.61419 1.063 4.68465 1.9879 4.11469 1.66857 4.62359 9.37416 1.43177 2.82515 6.24469 4.4769 0.36287 1.262 4.80039 3.57361 3.85005 1.57521 1.22879 9.22871 1.57009 1.27064 6.4579 4.58953 3.82499 4.72337 4.65131 0.646572 0.45979 1.50419 3.13691 5.68999 1.62561 4.28219 9.9838 4.68813 1.70529 1.66478 5.98362 1.30256 3.39195 0.478853 3.88664 8.67943 2.67822 3.55633 7.04529 3.31948 1.08707 8.62799 0.273297 3.57299 6.99314 5.67754 1.0871 1.842 3.54618 1.26698 3.48912 2.9549 3.98023
5.11045 0.00811971 2.39066 10.3946 3.06959 0.135668 3.05446 4.6743 5.01357 2.27519 1.62529 2.49998 7.4734 1.56117 4.98568 7.95668 4.68365 2.37649 1.17411 4.8131 2.25805 4.11186 1.47663 4.70589 9.16454 1.36666 2.72088 6.3768 4.64969 0.0788898 1.35922 4.6836 3.79985 3.86747 1.51691 1.24669 9.10485 1.52591 1.17633 6.41674 4.79219 3.53476 4.9805 4.71147 0.698374 0.498838 1.63348 3.32546 5.65936 1.45951 4.27985 9.81354 4.61365 1.78045 1.90066 5.97243 1.62462 3.45492 0.32364 3.97997 8.29939 2.57515 3.38617 7.16862 3.4577 0.702066 8.43847 0.156168 3.42227 7.16879 5.76959 0.85267 2.03085 3.66177 1.48107 3.39733 2.71566 4.21016
5.19436 6.06401 2.59258 0.317046 2.97414 4.7997 2.95974 4.65748 4.97849 2.45773 1.63129 2.43362 7.47445 1.57153 4.86133 7.98994 4.68139 2.50559 1.20764 4.69662 2.23769 4.13949 1.66161 4.7175 9.19102 1.53421 2.68639 6.28769 4.55041 0.283901 1.24277 4.62061 3.77605 4.07042 1.60904 1.34406 9.15646 1.70867 1.10903 6.43425 4.61931 3.64431 4.73812 4.53023 0.648868 0.643545 1.59044 3.13198 5.57785 1.63528 4.26265 9.73398 4.57756 1.72895 1.89701 5.93838 1.61508 3.41484 0.500107 4.03644 8.41948 2.73652 3.41046 7.14779 3.39442 0.999515 8.40746 0.397024 3.29572 6.92045 5.8425 0.970706 2.05301 3.49703 1.5498 3.32197 2.86056 3.98695
5.30331 6.29121 2.46784 0.0153915 2.96685 0.0622398 3.00037 4.7255 4.92892 2.32916 1.67906 2.36106 7.24097 1.59813 5.11944 8.1096 4.70257 2.4422 1.19712 4.76167 2.25193 4.14822 1.48599 4.57174 9.13777 1.42373 2.67532 6.36206 4.63708 0.291528 1.40443 4.52515 3.768 3.98763 1.37698 1.2168 9.00168 1.42604 1.17426 6.4346 4.66988 3.63129 4.8422 4.5378 0.653092 0.504094 1.48136 3.03134 5.60457 1.66893 4.13055 9.9395 4.6668 1.85533 1.89956 5.84872 1.54058 3.56863 0.18385 3.87588 8.39013 2.68107 3.29604 7.21452 3.49477 0.793398 8.40226 0.265905 3.45256 7.06004 5.8615 0.959855 1.82754 3.52895 1.48495 3.13374 2.57258 4.01998
5.69346 0.395068 2.60613 0.187359 2.90383 5.11616 2.91066 4.61339 0.000636996 2.25834 1.6457 2.32416 7.44015 1.56406 4.88293 8.20584 4.44426 2.46762 1.19504 4.79388 2.32247 4.02481 1.60256 4.71725 9.19061 1.41627 2.61857 6.24067 4.57831 0.278183 1.34139 4.56083 3.85634 3.86134 1.48588 1.22076 9.16307 1.58588 1.12839 6.45688 4.70416 3.73703 4.67553 4.65959 0.639397 0.34189 1.41095 3.18103 5.49306 1.92971 4.45262 10.0414 4.9562 1.93371 2.07056 5.93116 1.67508 3.56732 0.323662 4.03361 8.48207 2.66098 3.34679 6.99407 3.47802 0.97972 8.31282 0.291837 3.21197 6.96108 5.83788 0.992048 1.78615 3.56231 1.61768 3.03475 2.62908 3.96418
5.40585 0.18913 2.40904 10.3274 3.11413 4.92761 2.93855 4.7484 4.91467 2.34109 1.47855 2.46383 7.51231 1.53215 0.000259379 8.11411 4.69966 2.50304 0.989834 4.58368 2.25701 4.08611 1.66281 4.77843 9.36437 1.62519 2.69381 6.35927 4.54421 0.166244 1.18964 4.66659 3.86349 3.9721 1.55348 1.32121 9.11392 1.62057 1.13706 6.51878 4.55495 3.7071 4.82066 4.71862 0.646516 0.459769 1.53972 2.95041 5.58946 1.4216 4.45569 9.92324 4.58406 1.86894 1.80242 5.78397 1.58316 3.44756 0.331978 3.98616 8.75339 2.81169 3.42277 6.94217 3.28418 0.833272 8.40564 0.355512 3.38373 7.23931 5.72803 0.901757 1.71992 3.38026 1.56538 3.3464 2.87761 4.17759
5.29605 0.248886 2.1957 10.2779 3.25566 0.0290602 2.94968 4.66403 4.87771 2.32469 1.56142 2.44463 7.42025 1.44779 4.91073 8.18765 4.77996 2.64228 1.18692 4.81345 2.28119 4.06216 1.4932 4.66844 9.25431 1.67261 2.71184 6.23531 4.47268 0.233404 1.08008 4.76988 3.76432 3.92574 1.47645 1.16689 9.12712 1.61698 1.17311 6.51997 4.59005 3.72741 4.68906 4.58481 0.698603 0.390387 1.78495 3.32118 5.58514 1.40355 4.41738 9.92388 4.72988 1.88019 2.01876 5.99506 1.57386 3.60822 0.20791 4.0437 8.37312 2.84751 3.42261 6.73711 3.19274 0.807859 8.45031 0.410488 3.39298 7.06946 5.64776 0.921796 1.92059 3.54327 1.63652 3.19986 2.68438 4.00058
5.12568 6.50582 2.50328 10.5635 3.0027 4.9064 2.84139 4.70798 5.03152 2.3169 1.32411 2.45418 7.36009 1.63579 0.167425 8.22007 4.85255 2.24389 1.08269 4.69868 2.23619 4.05833 1.36342 4.74758 9.29232 1.28309 2.74036 6.26077 4.87788 0.114382 1.32735 4.8346 3.8007 3.80415 1.52187 1.23151 9.13719 1.59001 1.19306 6.58293 4.88763 3.61552 4.72824 4.93619 0.485566 0.47049 1.7432 3.08808 5.55076 1.25914 4.44959 9.99092 4.30243 1.81204 1.67897 5.99463 1.5748 3.28167 0.173673 4.00639 8.36372 2.27314 3.64676 7.09524 3.73119 0.876178 9.06249 -0.059952 3.343 7.05748 6.1716 0.683027 1.98621 3.52361 1.49253 3.23486 2.54834 4.05437
5.16436 6.25572 2.40729 0.0707898 3.08128 -0.038446 2.99583 4.74844 4.89468 2.2101 1.761 2.41534 7.46795 1.41241 0.0646703 8.11411 4.64086 2.57589 1.19573 4.74819 2.12732 4.09345 1.55836 4.73847 9.18666 1.50296 2.66461 6.43416 4.54137 0.163319 1.3021 4.61715 3.71903 4.03183 1.4696 1.28324 9.12071 1.41087 1.13871 6.49579 4.66836 3.57312 4.88425 4.45883 0.670748 0.524555 1.40088 3.05476 5.55309 1.79459 4.40058 9.90498 4.94502 1.794 2.17962 5.80502 1.53445 3.72987 0.235518 4.00634 8.73048 2.91634 3.28456 7.32342 3.56096 0.984215 8.31593 0.453525 3.42061 6.89583 5.88745 0.849383 1.59336 3.33464 1.42502 3.1701 2.71748 4.09296
5.07496 -0.122525 2.40645 0.462444 2.69212 0.202126 2.84804 4.98471 4.98237 2.54303 1.82095 2.36836 7.39315 1.53889 0.0936806 8.0319 4.52347 2.52712 1.15829 4.75927 2.23688 4.12836 1.78931 4.59132 9.26041 1.46343 2.75082 6.16026 4.3483 0.385493 1.38921 4.82317 3.75517 4.14109 1.80392 1.25403 9.05192 1.45529 1.15973 6.37524 4.43463 3.68703 4.72007 4.40154 0.736336 0.587446 1.41404 3.06699 5.53974 1.6154 3.95906 9.85665 4.67338 1.68457 1.8551 6.0067 1.50048 3.48228 0.485479 4.0089 8.54209 2.72377 3.4715 7.13271 3.26915 1.06369 8.39853 0.32421 3.3777 6.9362 5.60313 1.02412 1.87647 3.52564 1.47762 3.18279 2.96796 4.02497
4.90917 -0.125982 2.49702 0.138195 3.12338 -0.0445623 2.97502 4.57434 4.93829 2.42839 1.57383 2.55043 7.40869 1.50237 -0.0979693 8.04849 4.46952 2.31956 1.26059 4.83095 2.17893 4.0114 1.52806 4.83006 9.08915 1.57818 2.87838 6.36694 4.65379 0.0619196 1.37471 4.77017 3.70569 3.94078 1.81438 1.31341 9.09123 1.79595 1.4163 6.56147 4.61702 3.56886 4.88872 4.58275 0.54125 0.469895 1.61361 3.34406 5.41598 1.38332 4.21674 9.90523 4.86198 1.84138 2.2015 5.90274 1.49045 3.15891 0.35176 4.10877 8.49464 2.76117 3.67334 7.26221 3.57133 0.812927 8.34606 0.240846 3.43995 6.93872 5.99593 0.819683 1.88182 3.5044 1.45992 3.22938 2.79871 4.2486
5.24232 0.15118 2.46039 0.410415 2.95099 0.0132645 3.06939 4.76817 4.94652 2.31099 1.52967 2.37309 7.41287 1.46487 4.96712 8.01643 4.47267 2.68011 1.19838 4.71048 2.2123 4.00891 1.66877 4.64582 9.09397 1.48513 2.67359 6.33029 4.67274 0.296355 1.37996 4.87698 3.77627 3.85437 1.42158 1.11047 8.71965 1.58728 1.19708 6.38773 4.70292 3.84077 4.80924 4.6811 0.660441 0.396006 1.60791 3.00392 5.59666 1.73023 4.27364 10.0171 4.39667 1.94203 1.78883 6.01306 1.44323 3.36593 0.322471 3.82281 8.42438 2.53904 3.6402 7.37433 3.64901 0.892294 8.44451 0.0615293 3.23633 6.85726 6.00376 0.962976 2.2598 3.64626 1.63147 3.2989 2.91245 4.12805
5.03 0.136587 2.22757 10.2505 3.09547 5.04037 3.00556 4.46973 -0.125382 2.28341 1.61937 2.48741 7.38729 1.46442 4.91858 8.00717 4.75119 2.61357 1.32974 4.82994 2.06188 4.07297 1.43344 4.68743 9.23618 1.58917 2.74564 6.28787 4.59569 0.333938 1.49525 4.72665 3.67566 3.81613 1.71012 1.04365 9.06984 1.49981 1.18308 6.37035 4.83542 3.76801 4.82476 4.83449 0.684141 0.487782 1.74251 3.13612 5.57364 1.13725 4.33655 10.0802 4.75389 1.84001 2.0446 6.13952 1.72662 3.23791 0.210494 4.15404 8.55798 2.77078 3.62345 6.88766 3.29427 0.83465 8.52223 0.225713 3.44186 7.05317 5.60924 1.23664 2.0376 3.63 1.41584 3.71355 2.67693 3.80031
4.68187 5.61028 2.3969 10.1112 3.16341 4.88923 3.03814 4.77037 0.217175 2.40549 1.85675 2.49906 7.36815 1.48673 -0.107808 7.95215 4.59227 2.42553 1.41783 4.7584 2.45677 4.15106 1.6342 4.69738 9.21372 1.54163 2.63025 6.30806 4.42981 0.136515 1.45618 4.71732 4.04805 4.11579 1.67415 1.30641 9.12324 1.4976 1.1424 6.40118 4.82148 3.54996 4.87741 4.31928 0.649554 0.542322 1.87262 3.10968 5.49861 1.84459 4.1518 9.99655 4.65987 2.06877 2.07452 6.04156 1.81887 3.57389 0.289555 4.06017 8.24713 2.66195 3.23905 7.09133 3.21308 0.609135 8.55168 0.338802 3.36029 6.82651 5.71631 0.987664 2.16919 3.57386 1.70094 3.11609 2.67582 4.16897
5.25417 -0.101086 2.39065 10.4786 2.99756 5.07114 2.92838 4.72336 4.94462 2.30839 1.6197 2.41417 7.49247 1.47848 -0.0192394 8.15645 4.65492 2.4683 1.17696 4.61303 2.25755 4.13939 1.54642 4.5852 9.16999 1.62533 2.7502 6.32635 4.56845 0.214412 1.40285 4.69079 3.77867 3.85508 1.57023 1.08595 9.14017 1.63699 1.27586 6.42506 4.77185 3.6267 4.73172 4.70358 0.737001 0.494461 1.50294 3.1447 5.62518 1.70703 4.24407 9.94107 4.68044 1.95851 1.90235 5.84326 1.68849 3.32389 0.388833 3.81574 8.56298 2.88464 3.554 6.98348 3.35057 0.951364 8.46996 0.407138 3.45914 7.01114 5.88157 0.954152 1.83662 3.34804 1.53938 3.19211 2.83833 3.94832
4.70006 6.07255 2.45816 0.472912 2.74545 4.94409 2.87666 4.787 4.91124 2.49403 1.61088 2.44061 7.34037 1.72515 0.112419 7.89475 5.02353 2.34667 1.40916 4.68395 2.15298 4.02469 1.45312 4.85963 9.09361 1.23364 2.66315 6.25425 4.77468 0.146904 1.58613 4.84015 3.65926 3.95238 1.34912 1.33285 8.95492 1.54861 1.23965 6.43561 4.90024 3.71855 4.78947 4.7395 0.566928 0.78818 1.51147 2.97871 5.54067 1.34807 4.4993 9.86974 4.38139 1.96034 2.1333 5.86276 1.42547 3.42383 0.223166 4.2294 8.3067 2.35496 3.53559 7.12518 3.51069 0.830936 8.79899 -0.119822 3.35912 6.93514 6.03068 0.945052 2.17319 3.40852 1.46468 3.14876 2.54811 4.22092
5.19592 6.18287 2.49105 9.86263 3.32703 0.167409 2.97095 4.82046 -0.0769457 2.48868 1.76679 2.54342 7.48851 1.08479 0.0793811 7.9301 4.75255 2.35054 1.24407 4.86164 2.25336 4.14848 1.56133 4.78682 9.13908 1.53075 2.67297 6.28143 4.41801 0.0432388 1.34145 4.79353 3.87542 3.83629 1.40175 1.15026 8.98509 1.40893 1.13301 6.35064 4.52719 3.63674 4.83207 4.74226 0.479904 0.680705 1.23772 3.17164 5.63873 1.3863 4.31965 9.71837 5.08711 1.68076 2.35019 5.7935 1.68251 3.32386 0.442777 3.92954 8.78263 2.93615 3.15519 7.03653 3.23685 0.894378 8.20217 0.442214 3.28206 7.07094 5.69669 0.748072 1.88953 3.51475 1.78656 3.39773 2.81741 4.15819
4.87714 5.95189 2.69862 10.1826 3.09447 0.0949159 3.1292 4.67331 4.73261 2.39345 1.74261 2.57453 7.42304 1.40861 4.81827 8.04334 4.69897 2.47451 1.3111 4.78161 2.19093 4.12121 1.60976 4.80785 9.12444 1.5944 2.667 6.34938 4.46967 0.289009 1.37938 4.93127 3.771 4.07223 1.63898 1.42228 9.0906 1.53074 1.09456 6.39443 4.53363 3.55981 4.72931 4.49802 0.747347 0.52909 1.64335 3.17165 5.50682 1.42518 4.28807 9.88772 4.83286 1.71238 2.21313 5.96279 1.6766 3.36085 0.38628 4.16878 8.42944 2.81525 3.27936 6.90788 3.23336 0.713815 8.42777 0.319748 3.31476 7.11743 5.66127 0.934124 2.01891 3.43942 1.58816 3.15833 2.7364 4.10042
5.34776 0.150799 2.31799 10.3898 3.06868 -0.0728946 2.96658 4.7737 4.85537 2.38514 1.74872 2.55815 7.39016 1.3531 0.0704034 8.12806 4.68411 2.45618 1.2305 4.71584 2.14794 4.08306 1.5757 4.78193 9.2328 1.50462 2.78851 6.2348 4.52068 0.100779 1.27066 4.65504 3.77807 3.86338 1.55921 1.25485 9.03108 1.39641 1.29057 6.40459 4.59153 3.57644 4.77275 4.76443 0.645603 0.354378 1.39318 3.31264 5.52654 1.4919 4.45202 10.0337 4.72651 1.68821 2.12687 5.82163 1.39066 3.37249 0.433409 4.01814 8.64759 2.72929 3.48209 6.89147 3.2792 0.894457 8.36098 0.37032 3.42147 6.96944 5.7298 0.868826 1.9309 3.45716 1.38469 3.32178 2.81788 3.94892
5.42562 0.228566 2.72726 0.12718 2.94345 4.81568 2.96801 4.98366 4.88861 2.09875 1.40146 2.34494 7.49318 1.72219 -0.0411648 8.18073 4.61796 2.46295 1.1379 4.50707 2.15448 4.03918 1.69096 4.91073 9.18605 1.35103 2.76314 6.37837 4.65907 0.256779 1.51437 4.64857 3.69563 3.78316 1.43931 1.3719 8.97241 1.4884 1.1883 6.74071 4.53265 3.82739 4.87025 4.83883 0.459382 0.38521 1.58872 2.97208 5.65942 1.55496 4.4908 10.0202 4.34525 1.78747 1.90465 5.72851 1.42784 3.44413 0.455751 3.9418 8.56483 2.54324 3.57623 6.80461 3.53326 1.14051 8.52596 0.0779328 3.21091 7.01917 5.90592 0.943049 1.81367 3.22601 1.52655 3.30029 2.89728 4.17698
5.25878 0.0411355 2.33757 0.2533 3.08032 5.03682 3.00511 4.84953 0.0424283 2.29466 1.48668 2.41374 7.52561 1.58756 -0.164815 8.03604 4.52598 2.43203 1.1848 4.69855 2.28097 3.99238 1.63393 4.81048 9.18066 1.38827 2.6323 6.34284 4.68573 0.201384 1.48398 4.74421 3.90379 3.85161 1.26433 1.31664 9.08876 1.4223 1.07742 6.40133 4.53775 3.66607 4.71982 4.68327 0.503697 0.368569 1.58007 3.05868 5.52485 1.78515 4.36835 10.0398 4.78745 2.0348 1.9012 5.90563 1.61202 3.47668 0.284648 4.1394 8.37498 2.75238 3.18674 7.04286 3.4898 0.74677 8.3784 0.390608 3.48397 7.16865 5.8614 1.04532 1.90324 3.40887 1.63898 3.1366 2.71547 4.17912
4.82637 5.99749 2.52963 9.85 3.28463 5.18444 3.02476 4.62835 -0.174331 2.15483 1.62293 2.20922 7.50455 1.62716 4.93919 8.15014 4.88076 2.44301 1.31944 4.87752 2.26935 4.20688 1.46478 4.90328 9.17028 1.38092 2.60626 6.36016 4.57825 0.219115 1.23938 4.55994 3.83972 4.14964 1.275 1.25201 8.85595 1.58542 0.998709 6.4819 4.8793 3.90913 4.90548 4.77106 0.796952 0.475967 1.66089 3.09521 5.70963 1.49707 4.39138 10.0289 4.79447 1.83576 1.96098 6.12338 1.73649 3.49125 0.0631428 4.38493 8.39849 2.68194 3.39735 7.05559 3.22878 0.745649 8.48487 0.238719 3.36125 7.25526 5.50816 1.01676 2.18133 3.75301 1.52904 3.4933 2.73219 4.31899
5.33335 0.0219455 2.45354 0.0869969 2.99465 0.0665266 2.94921 4.79369 4.8997 2.31479 1.70824 2.4448 7.38762 1.53569 4.99564 8.17876 4.68339 2.50443 1.22613 4.65293 2.24699 4.05612 1.61302 4.61075 9.25786 1.54107 2.73593 6.31297 4.55052 0.277218 1.19458 4.62822 3.79242 3.8422 1.61977 1.2108 9.00177 1.54038 1.24196 6.53744 4.64409 3.69519 4.89199 4.88652 0.615029 0.290072 1.68026 3.22762 5.53821 1.46024 4.25335 10.0585 4.63144 1.81614 1.97795 5.78626 1.54963 3.2142 0.297296 3.9614 8.45816 2.65026 3.39085 6.98643 3.39038 1.04254 8.54209 0.299104 3.3654 7.13081 5.73612 1.09074 1.79408 3.44145 1.44853 3.3439 2.92111 3.97967
5.08927 6.19957 2.45478 10.4598 3.14657 0.118913 2.94592 4.82045 4.79228 2.23846 1.63421 2.57211 7.5251 1.45997 4.86145 8.149 4.46614 2.48591 1.09661 4.82008 2.16827 4.05629 1.67333 4.77106 9.26429 1.43519 2.77451 6.30763 4.52084 0.22123 1.32328 4.73108 3.66595 3.8713 1.57816 1.32684 9.14636 1.48074 1.2328 6.57352 4.60032 3.58194 4.82082 4.70417 0.572768 0.361564 1.61099 3.19651 5.49801 1.51525 4.25484 9.98698 4.64456 1.78307 1.78194 5.90897 1.50869 3.29094 0.452719 3.89664 8.55439 2.66914 3.48003 7.06086 3.34892 0.784548 8.48586 0.290099 3.43102 7.06621 5.71934 0.897053 1.93385 3.58354 1.66993 3.27878 2.87484 4.09681
5.0675 6.3303 2.37452 -0.0436431 3.01009 4.9658 3.04623 4.69798 4.93455 2.29955 1.63235 2.40681 7.40056 1.47032 4.93749 8.18574 4.53092 2.35441 1.05995 4.672 2.26374 4.13223 1.63951 4.66801 9.21812 1.4915 2.87807 6.35185 4.63052 0.140435 1.0596 4.66046 3.76331 3.89224 1.60858 1.27521 9.0449 1.58863 1.27154 6.4825 4.67248 3.65248 4.79235 4.69288 0.532261 0.32002 1.53504 3.36547 5.59846 1.66638 4.15625 9.93553 4.63267 1.85588 1.92223 5.94082 1.6745 3.49084 0.396864 4.00999 8.45633 2.66857 3.45655 7.04569 3.48957 0.980985 8.45829 0.170375 3.34668 7.06865 5.88192 0.85615 1.82755 3.5457 1.43918 3.20395 2.72313 3.98726
5.46637 0.321141 2.49556 10.5825 2.96773 4.84362 3.01643 4.71817 4.96613 2.30459 1.625 2.42195 7.39531 1.39324 4.9342 8.0182 4.78605 2.56639 1.10672 4.74774 2.1609 4.11419 1.44481 4.74584 9.20361 1.521 2.63045 6.25098 4.62528 0.362532 1.42183 4.67679 3.73135 3.94698 1.54568 1.32226 9.05014 1.50961 1.07884 6.40054 4.82972 3.74443 4.83392 4.83824 0.895616 0.33127 1.31195 2.98364 5.55559 1.35455 4.27461 9.99317 4.80637 1.84563 1.9158 5.78624 1.38254 3.18492 0.392236 4.00116 8.44162 2.90547 3.17486 7.02831 3.39255 0.841206 8.46628 0.414352 3.48743 6.94194 5.84483 1.10052 1.86469 3.41588 1.58938 3.44249 2.91116 4.0859
5.07444 5.92724 2.49239 10.5603 3.16678 0.137758 2.83822 4.63315 -0.149889 2.20998 1.54714 2.53162 7.46762 1.40924 0.203834 8.16172 4.62896 2.49711 1.11487 4.75133 2.19773 4.09444 1.6468 4.69427 9.44162 1.60276 2.61642 6.24213 4.61248 0.326084 1.32562 4.65417 3.7438 3.67722 1.90244 1.21685 9.16969 1.75481 1.10889 6.60548 4.67046 3.77366 4.77082 4.3807 0.60333 0.436688 1.24032 2.9888 5.61405 1.69199 4.54616 10.0677 4.96957 1.77746 2.10753 5.88736 1.57405 3.53949 0.420238 3.91819 9.03147 2.8937 3.48765 7.25417 3.57291 0.885789 8.3349 0.555818 3.30748 6.84935 5.886 0.952324 1.74517 3.48296 1.46396 3.25193 2.74822 3.7797
5.27211 6.22579 2.46179 -0.0375894 3.34526 5.04161 2.9513 4.72313 4.82242 2.20766 1.6686 2.37527 7.6149 1.61305 5.11272 8.18877 4.7212 2.59596 1.11453 4.63578 2.23675 4.00726 1.46119 4.62152 9.33508 1.61699 2.7755 6.26435 4.67122 0.30502 1.18598 4.4115 3.70595 3.9682 1.57249 1.19834 9.20954 1.6319 1.25652 6.63927 4.66513 3.75359 4.80278 4.60463 0.641741 0.464407 1.71521 3.2183 5.46763 1.31684 4.19415 10.1072 4.56739 1.80189 1.82542 5.92181 1.62486 3.43396 0.185908 3.89029 8.42538 2.68372 3.43236 7.03753 3.36173 0.928798 8.71111 0.382385 3.49127 7.00625 5.89214 0.982417 1.93878 3.48146 1.38098 3.11424 2.53413 3.9434