-30088.9183703055
-30088.8638426659
-30088.6584991377
-30088.3602765373
-30088.4125573342
-30088.253832325
-30088.0313279464
-30088.3229849875
-30087.7405446624
-30087.7057308439
-30087.9002261512
-30087.4784813466
-30087.6226094967
-30087.5628122392
-30087.2319636144
-30087.3847969538
-30087.9559372134
-30087.4347266883
-30087.7277238894
-30087.1776920337
-30088.0871134316
-30087.3418059826
-30087.1430848856
-30086.2502505864
-30088.2765825269
-30088.4110643823
-30087.9791516412
-30087.5727336407
-30087.3188742809
-30087.8412758476