-0.256108224828646 0.0973614557382243 -0.222858478825406 -0.256770797770785 0.152123353660681 -0.0351749870551361 0.237399345236996 0.427599945700918 -0.227921749663412 0.592002110381285 -0.476795922377188 0.567139555664624 0.117125258411596 -0.0832247665346445 -0.0810367588755051 -0.183744049543086 0.397148329821581 0.171244895096388 0.388320708791159 -1.25839493851221 1.81957519435033 -0.554343696066498 -2.01975012726181 -2.0160009465702 -4.58165204281235 -1.6985619157482 0.469531017040332 0.273423053006917 0.614394093347456 -0.564731718798838 -0.739180463888238 -0.618381100958534 -1.44774553271043 0.645388725933738 0.332871298238791 0.836309749131021 0.928203756823229 0.201617063929112 0.265855014764054 -0.0639538440824918 0.812935348154795 -0.439261949391076 -0.24037282450585 -0.098466258195489 -0.0632712165460622 1.69193438655552 0.452258354932108 0.407828686832234 -0.125234770700305 -0.308798071784593 0.581547496111493 -0.0527872917153842 0.134125383725614 -0.222540690638955 0.165751478921867 0.67445863168849 -1.15406425414783 0.214641494480114 1.34632764961166 1.14685925548366 1.0115061706332 -0.354722835599849 -0.388544137540371 0.800472703354113 -0.712923343537832 1.27421364253437 1.0128891663087 1.23877768864327 -0.297668029063501 -0.403143625073733 -0.547022483599519 -0.511434063369776 -0.0104600135836393 0.598062197399607 0.582360221400628 -0.611306457157255 0.696980712407366 -0.45020970099227
0.101740299268519 0.375320703707562 -0.271793745775899 0.0518987189222014 0.361506687783914 0.405586943144803 -0.0517179704634029 0.233938899281138 0.53228724188942 -0.135059207911043 -0.313172801551956 -0.141751528869884 -0.271739495527241 0.911747933767071 1.16538790083688 0.141492618915389 -0.721072193684573 -0.11994190046869 0.526120197034882 1.61014429484321 -0.929409603582496 2.46085632799707 -1.87454020931753 -1.26067807693914 -1.35849744591367 0.581912078351289 -0.0653047009850909 -0.379128248410758 -0.4202180552307 2.54035505375659 -0.182495522493406 -0.262633681278583 -0.324257849990985 0.0438838231809142 -0.332059858500572 1.24457655171545 -0.0981078466000906 -0.384577441633766 -0.978789414039763 0.270532877437424 0.476877169195084 -0.750101733140561 0.449784697859419 -0.318146083825838 -0.892341257138182 0.223389154243557 -0.207923719613134 0.336919755183657 -2.29449164128824 0.0135561344098857 0.915188839349006 -0.681323987800634 0.0942239401724806 0.0297821009622513 -0.691779887621342 -1.81742806721032 0.648515957092153 0.261937941122809 0.363163505804536 -0.377279369083276 0.720588312319767 -0.434259356556308 -0.50409870984272 -0.212251655327153 0.138742568395747 0.148751867828214 0.442031797394826 0.260150768239298 -0.123022594683944 0.658591076731523 0.308455086800187 -0.996682225909897 0.507091472375315 0.214696258949138 0.423437588944889 -0.50334563411609 1.1415962100333 -0.655337090252784
0.406581445333469 -0.455829358266748 -0.427593517946338 -0.270799243587233 -0.10718255051658 -0.544037177262237 0.504966713821246 -0.486738887382387 0.310685260529374 -0.0910370594515601 0.635250614299481 -0.723865952935361 -0.150241564229748 -0.639455908456106 0.053225921687945 0.0723268943089941 0.120604216300646 -0.158918518692808 -1.14773857231025 2.05031101496901 2.02987666893782 1.40977961461652 1.70656241331922 2.54886025861727 0.692448116987511 0.774079571716787 -0.667524112937062 -0.111643926415686 1.44677211355679 -0.372449297181443 0.152246766548624 -0.973086195955741 -1.52972562884814 0.644760605756149 0.0191138281302098 -2.40033361930955 -0.582864157359725 -0.473346017938841 0.987278678069078 0.45975903030697 -0.427221736621412 -0.076103071569838 0.436809375353411 -0.230696482760643 0.38977415265686 -1.09672894040159 0.321397242092561 0.371264276347016 -1.92306975639891 -0.323738230310712 0.673737951844945 0.579709672521889 -0.857680490449472 0.160745286544534 0.522192324765942 -0.73517982943745 -0.163038195158424 0.0453012716209654 -0.269244755419529 -0.098290909050538 0.0622772285777622 0.215154429295623 -0.0523939131350689 -0.484327965194402 -0.499920155145149 -0.313519128968743 0.124309945371289 -0.155735237514452 -0.635408737062157 0.283413840506194 0.851430399005756 0.303729401632739 -0.142456524992253 -0.475837158503988 0.456098552628572 -0.395975136055582 -1.02978259089669 -0.122074886548622
0.276539228427454 -0.0267255751042196 -0.0398687905598658 -0.199253707125021 0.0424753735972754 -0.526045377971567 -0.109750052806141 -0.322291471309775 -0.215227962808022 0.5110645960365 0.15798392317683 -0.270929084229755 -0.0777375210045206 -0.172715565344364 -0.384594153795675 0.814043750154625 -0.629803992178305 -0.150299671131154 -0.429420285798063 -2.52709665293887 0.627994193598671 2.31951411853886 1.38917557586441 1.94032184969248 0.00749681872211374 2.11591730619901 1.62742492736711 0.509234228642209 0.0509129584797642 0.893529877515174 -0.279080248368145 0.0730313762109967 -0.847147714683983 0.636534365444261 -0.714383729378479 0.417908948675268 0.192735706870398 -0.737511047468638 0.952983264950712 -0.591002980209321 -0.58379052534984 0.76913071491031 -1.70801122920163 -0.0792652697131701 -0.660556941192367 -1.20417631440688 -0.738365681717637 -1.39690765040417 -1.51366421281304 -0.106765774909593 0.73258687323975 1.57679530430925 0.261118273858727 0.666002020652444 0.41365788890603 2.56191117151714 -0.664460387993901 -1.05644363134492 -2.29770911812096 -0.771735498176437 0.703813672636425 -0.418710618226525 -0.431307731653027 -0.00161028107746068 -0.956236994319268 -0.0855950653136817 0.96900688578889 0.553650527012557 -0.910888928644958 0.0942105704429536 1.74525003969741 -0.197194768777855 -0.752550193415294 -0.799751252180018 0.86801400582297 -1.10194647734953 2.15969674264554 -1.94313669197829
-0.246519300545731 0.214620411445091 -0.436920189842376 0.236129992262476 0.51748386598077 0.498921539193551 -0.787711810740904 0.187650581666819 -0.888652497339631 -0.0758804141511758 0.697597776847077 0.645287424521552 -0.115315459831962 0.307067463141389 0.526348767987758 0.263829243630521 -1.26755860255209 -0.537203702812812 -0.216394985929624 -0.959131797872059 0.236956087281138 -0.964128734282797 2.2509466893288 -0.753278843674519 -0.30276832376789 3.05832023000034 -2.79408783760254 -0.258322457726473 -0.378056870277311 1.0138235047145 0.621581094298798 0.570699503261386 -0.526427957924187 0.0442190948598235 0.0702314463158112 0.407172541644675 -0.801280543549767 -1.47502312337801 2.1376870825218 -0.409986098379571 -0.367289095804366 0.782785836740733 2.67827898332899 0.0985526472170484 0.474594544988522 0.73794016436442 -0.169593733499796 0.594578097306892 1.64406432709408 0.179759355923657 -0.595258410851673 0.930690783625445 0.0649624873312349 -0.212748906421486 0.52530130110135 -0.424624152440415 -0.600800420850821 -0.999923613989658 -2.2222909880792 -0.710838437062161 0.333207598358433 0.0889336410426976 -0.240342742614414 -1.63413961691189 1.24324035009329 -1.10722854895345 -0.860343380617005 -1.71389776684628 0.872641989120797 -0.191931723327492 -0.473270170434794 -0.0559638880289762 -0.862729877337584 0.702157883056536 0.314784111070149 0.712134272385552 -0.801487774357436 0.954170856886972
0.0430677554593973 -0.260389109379136 -0.0937927663952331 0.203807128469717 0.229157935424299 -0.158099622759276 -0.244149001766694 -0.211043237466053 -0.26668702331693 -0.339475173294607 -0.0917417984637459 0.16005108904986 1.30505272345981 -0.666824259018358 -1.09282600782043 0.0570013276182391 -0.278870446458643 0.868685320511338 -1.3370104907924 -3.46647287566342 1.38136122606603 -2.37356844923711 -0.244254931162178 -1.46341691259761 1.22087510658618 0.49041659144306 2.66252995616649 -2.02823836285039 0.624213902574896 -1.32810573670702 -0.338344145598655 0.996671427282202 -0.505574779404544 0.0570437507984692 0.269325745127241 2.05220231747672 0.0060744851885815 -0.182327629543768 -1.26336384991298 0.355882916746504 0.427168000593121 -1.90623675270398 0.697182543901188 0.165666632561407 0.806003657615383 -2.14199676341281 -0.0485519156673226 -0.160644242242531 -0.01510907991649 0.0288976419319999 -0.269864133850888 -0.736997598432763 0.312448265055663 0.16341486157683 1.97055672168737 3.7426043273403 -1.16324231635797 0.0769728753196463 0.0241364755592685 0.122589878245597 0.769509952430549 0.01233280415816 0.143951363597451 0.779530564711078 -1.32465043295482 1.90245363346819 0.596337759400799 -0.0527263566019628 -0.935562507376958 -0.582223438783159 0.710596496379758 0.706113009004896 0.943636281350201 -1.38235238582232 -0.136889832415517 1.05458086806755 0.176569132770355 -0.225049828916927
-0.659376805451421 -0.0153610478960383 0.0216144817721358 0.136234972778874 0.250244055769933 -0.815756361085004 0.336999716450636 0.628055642932459 -0.222849479968994 -0.00932384368402266 -0.146121630653949 1.15608488307769 -0.291459846579649 -0.344715078828481 0.577033669735012 -1.18037639607744 0.950909414212919 0.249482495407257 -0.263929516601974 1.11203316694714 1.08232099995472 -0.893952823766559 0.364635718713612 -0.701693542065654 1.73346230912766 0.352444068046035 2.40010119170392 -1.4348226606818 3.56621954257131 -1.66503783317947 -0.416813145074416 0.897311968310232 -0.436360203863339 -0.154956193659318 0.904177581532559 1.08918918427888 -0.807998318416746 -0.052510126937881 -1.80316462268642 -0.0592618403490446 -0.663709369148737 0.957831591675553 2.03822966457003 -0.69928030588602 -0.0147946341624209 -0.639645398661134 0.165319019593703 -0.737341611857901 1.40899517144754 -0.217739929298009 -0.856379770032599 -0.249839621451739 -0.644729752534164 -0.281283425528094 -0.723183068288748 -0.465683877368922 0.180533000464944 -0.439374049430957 -1.84649385920215 -1.01672859267462 0.111589419056845 0.444609326981532 0.237085413703294 1.45767898463885 -2.66780662845656 1.00372473093827 -0.380037390018598 -0.397238318385706 0.664158026418443 -0.32405499005643 0.0243388212734568 -1.01003370061395 0.713540922197909 -1.90117682429836 -1.36781100519036 0.991675519312197 0.402268679120261 1.3100748566685
-0.0581159002624659 -0.139584090025402 0.191775657446282 0.557578656391679 0.170791095623017 0.548559745384947 -0.282317779795158 -0.127723083053437 0.714138960484061 -0.179026334791318 0.0389102837968492 -0.466001151335006 -0.190436884722294 -0.497432357012383 -0.360333236907732 -0.144056007442019 -0.175042412502438 -0.0237166146300822 2.47153745633827 0.929215999614537 1.49762130871112 0.714777879289344 -2.33138566702833 1.12499871926619 -1.3418089381417 -3.25559213183316 -1.48091968831981 -1.96091174738451 1.02826204127317 2.50032814043405 -0.303851528969765 -0.386099019698018 -2.25322854220481 -0.619132634024064 0.245261774639638 -1.44277893530131 0.389064528551193 0.0341702004591412 1.32088916808461 -0.11694553839353 0.224608370732351 -1.41274846590208 2.00224195222576 -0.0357871664013654 -0.658676437312349 -0.960644377079899 -0.18240861925148 1.10485053686891 -0.0936140748179003 0.733748239937322 -0.496140121231557 0.187240490924595 0.143436114790293 -0.47693373343539 -0.00874251755977892 -0.204741981095878 -0.155487126187652 -0.315013453353575 2.25174681621896 0.44605685731302 -1.17625697672201 1.00248211742281 0.827785775226973 0.6155068662204 -0.156326333825658 0.540231432330323 1.82701622016269 2.51014409300874 -0.671166850012819 -1.15136562566483 -0.909177346155312 -0.519196734021332 0.0517873902128703 -0.278925982258217 0.00910375736719266 0.0854883645876485 -0.632550443155382 -0.409012422115745
0.477115253224738 -0.629925091074598 0.730073364088664 -0.175105404497325 -0.126074235448494 0.0286564725801464 0.0271387511686423 -0.022717484458118 0.59386641631976 -0.0684643280265909 0.665953426827816 -0.474367773806928 0.406874293832148 0.297566984761499 0.394329373772838 -1.35553553660306 0.0183188434437164 0.051060282614745 1.22015519807318 -0.670026309240088 -2.67712044484343 0.712060224652787 1.90872892170986 2.2710300799599 -3.7674892506429 -0.428827132605392 0.401341025579229 -1.01122952007607 1.68786124703307 -1.2206097688771 2.03681144479943 0.407929988244419 3.21878372378407 -0.994795294275299 0.912816740798686 -0.172353811316584 -0.0260360055928433 0.0775670569530507 0.49613240792606 -0.941096546960426 0.575701581875788 0.811354891858587 1.4818846228374 0.364703338691797 -1.01573923268962 2.66485731754493 -0.42911509601059 -0.153733891848325 0.291582488137042 0.587694743481924 -1.21765377310071 -0.686867026240515 0.257596635679264 -1.64742501429885 -1.36102946699794 -0.754032433621515 0.983469076484417 -2.45016980034202 -2.12417799927545 -2.00377587157881 0.933662463123016 -0.843508320040608 -0.596986962613411 1.60574976759174 -2.14761976311967 1.05193366162119 0.374899300117277 0.763757626301533 -0.348582273094182 -0.0848111363650664 0.247380876769677 0.413534733128271 -0.312498401541389 0.445437221771477 -0.381921236330997 1.00233710727948 -1.04299136944906 0.464704544681065
0.306971303932867 -0.328856265617743 -0.195073866876534 -0.221731050672019 -0.115190761393104 0.276392161402657 -0.126251384364728 -0.185908145955187 -0.122851102191741 -1.02504250755898 0.503029388590739 0.877260459341846 0.791176627569877 -0.0583156748748221 -0.189431841016116 -1.02043252197398 0.734540910632166 0.728653087436597 2.43527000811466 -0.562818561925553 0.14152630034939 -3.02395771112415 1.37876852697852 -0.798601198330508 1.81054548471591 3.3889176457788 0.193285922662473 1.96181934633125 0.956709048615647 -0.750862265062504 -0.678438954434805 -1.02217624323653 -1.3815684568737 0.588332119626108 -1.16299189103952 0.202309718762687 -1.01290125048732 -0.74947104186114 1.37866542579505 -0.666725528708004 -0.386678031830613 0.415229603456009 1.5269771209896 -0.232370270053357 -0.0908696807222887 -0.766390691687813 -0.808035085172946 -0.632831721695816 0.329083293909519 0.518913141489248 -0.275953274319913 0.109798646630769 0.639343037085676 0.342781610250722 -0.0674811386859858 -0.0133807852649347 -0.142215869860766 0.6743665862429 -0.258539972941471 0.312960428540622 0.53769735436458 -0.15943890970363 -1.13823115195541 -1.06535069942196 -0.167652037396174 -0.513158758478767 -0.906862583175848 -2.84234227678788 -0.699385721061137 -0.545654143204461 -0.745486091131528 1.27100696432934 -0.846070680126505 1.53614335613132 0.691210645675709 0.901252696088332 0.14328699088403 0.0997530946624682
0.379197411050042 -0.321032402742582 -0.211516834423531 -0.424298650948468 -0.0157659964345982 -0.579922045533223 0.642778029133397 -0.0492756808330662 -0.0912010957484498 2.03428276614753 -0.426642981599001 -0.196039829834864 -1.16441782411562 -0.158349533857358 -0.424148241491289 0.641001140657214 0.421471467373862 -0.999542062477771 -1.58008554332382 -0.994549239829965 1.77194450446946 -0.254219493422766 0.740649591475115 1.74190863575638 2.28866783852829 1.22065244916751 1.38860427703731 -3.38032348079473 1.6070306905245 -0.116721338313769 0.639536383943452 0.460848920373608 -1.43299152195696 -1.72686100517368 0.659354436865481 -1.25209599613369 -0.355131640791157 0.305279004706962 -0.290212347970702 -0.184716183145813 -0.598434750055082 3.30421938078416 1.25985301036121 -0.151377219908998 -1.42996070711725 -3.07915978168027 -0.341582962576584 0.318490097250976 2.62967436007411 0.378813031326139 -0.451255368107396 1.72778634472306 0.023333006236729 -0.100335706337628 -0.565973560983755 -0.48360111470646 -0.299407122342752 -1.63601369303733 -0.551800619244342 0.403673272051151 0.320742125345735 -1.86783271885788 0.0146349687386459 0.0074675081612275 -1.34573681041064 -1.40095456468793 0.21230744823691 0.00971876492543726 -0.136256570034264 0.646556006165523 0.801123192117641 -0.330358303308071 0.559994206562962 1.87562624273142 0.556547644556997 0.361355764106368 -1.19791850965767 0.242896360954082
0.111604074337288 0.465088410184601 0.612572981919761 -0.615859364281584 0.000237055588922041 -0.918974786796812 0.494739899173781 -1.91707857490969 -0.151465151591657 -0.8561285733836 0.0797568643834726 0.602445926023382 0.0589247688988528 -0.699100842978138 -0.30318767047671 0.122440240118967 -0.313019049662395 0.0663079449199866 -0.600952887189466 0.0250836694742238 -0.941212503653055 0.493429151459763 0.958482594659447 -2.38816973654176 -1.80267688466887 0.835357413012402 -2.07815373381929 4.5055368870639 1.23146238971051 -1.69687270184449 -1.40520253913497 -0.736919694047249 -1.38875571493523 0.137422050494767 -0.596997761241106 1.68980525712834 0.388870153252684 0.203433033153143 2.23500045865577 -0.403446757979741 -0.247325340970103 0.484869696350431 -1.83891142278902 0.00596521336071613 1.0232962151946 0.319388440231121 0.81942866583183 0.794038263909034 0.55323863649905 1.04128955714637 0.937411900924806 0.53018562325184 -0.217109238018589 1.01532477107428 0.568752922064283 -0.69564528211576 0.238743003054465 -0.835632520908439 0.427444394040074 -0.88046842309779 0.852476066120882 -0.514790379701434 -0.555731319725297 -1.77723866025199 -0.125418090260936 -0.508933409727851 -0.0109356674225826 -0.21093730807057 0.526432843017668 -0.68893547766446 0.568256956520866 0.121855057341975 0.508902042285499 1.32942445483671 1.57329012118151 1.19000928620168 -1.71636910992732 -0.10946903137589
0.492470901806929 -0.276173360636743 -0.327697727132187 0.276079001199504 0.209881613658299 0.26468387787952 -0.621677510617503 0.722943698708177 0.631114225671956 -1.78587113465336 0.522793448374294 0.0600154302960408 -0.0580228263761429 -0.659221253790577 0.7299242401824 0.829167485351558 1.25328101696811 1.10261059295277 1.47589884066203 -1.54044300972518 -0.294743400729458 -1.0398433123658 1.15487158012311 -0.260398622455915 2.62591926584829 -3.14543275961534 1.76083785877504 0.5577115823564 1.80199837089537 0.739599296376691 0.434785146880978 -0.226725930201291 0.530868507898453 0.70363395261836 -1.86403725833329 -0.834839078883045 -1.27054570866066 -0.219678025859066 -3.20991470801415 -1.20960571014578 0.0260977120368144 1.63394627005412 0.17716100041211 0.0827277725504945 -0.626276183354444 0.733045300696418 -0.591015835718481 -0.414847023503389 0.69688172498683 0.445774293221669 0.761523338809415 -0.983535410911686 0.141453023947174 -0.902908742778405 -0.75638653445901 0.204909874045516 0.713938671651338 1.12040596006346 0.613602708203527 0.99889054527351 -1.54656403185692 0.856740752729829 0.164087976036481 -1.21352329800739 -0.6795846374112 -1.22747152544668 0.497086800926146 2.50834432172626 -0.423794714989371 -0.235472304413818 -1.01440508794893 -0.884721025528127 -0.301693346091878 0.867171712862766 0.515895696379065 0.402494678971304 -1.19587448370113 -1.20032403253181
0.164298806386715 -0.279832295654042 0.0177182340557317 -0.360817118272538 0.00616730196472126 -0.250595782500568 -1.17488812210658 0.658038289837616 0.183799842452843 -0.443053810373096 -0.405631937426865 -0.315703279975134 -1.55206156179438 -0.761490685816147 0.0146056581777596 0.375906143594737 0.689623504514737 -0.418412370413998 2.42875920694517 1.82937803430568 1.22950269589406 2.24802643186787 -2.68241640039725 0.383513519695632 1.38367650326586 -3.26561043012204 1.70587978578279 0.352070744060011 1.68791035507806 0.561037816796622 0.206538152835802 -0.784151863144142 -0.551659722863941 0.115122370084369 0.341724887397718 -0.756262607350702 2.099321358093 0.273461105314033 0.898871341571417 0.501456645600027 -0.290125958949142 -1.32166461239717 0.442360384208972 -0.683872206826454 0.544388132662322 -1.80962374470909 0.0118172982408187 -0.687617530865312 -2.11635876438358 -0.315131209817486 0.33813485790952 -0.670558013098971 -0.430960375795507 -0.762556664635747 -0.635868707179924 -0.913665204403288 0.429140807028911 1.08957510666389 2.80600438037408 1.25454805595098 0.15873622757291 0.781863582513549 -1.18764335829576 -1.63440495462097 -0.251524721592515 0.150843459168649 0.991579874324042 2.5171287482459 0.0339421437266316 0.107797558074825 0.220478409859407 -0.569483629204974 -1.58821588153737 -0.455624698560911 -0.236855814309685 -0.679375349722065 -0.30355816625072 -0.687471235171064
0.186992122487611 -0.29219621014437 0.501051954171651 0.406542621695804 0.457440410674759 0.227329110691107 0.445703845031469 0.807914243386836 -1.54902946140375 0.895819700806866 -0.259711881156554 -0.194889004654804 0.290172238782121 0.226483475298521 0.281850353482078 0.906862840286032 -0.0447335723364319 1.11923302340765 -0.888615987693615 1.32697393768052 5.22691735585815 0.267749402593964 -0.868544424130938 -2.02018798590382 -1.08787355147138 -2.12667736736646 0.0669903153462329 -0.500046139134923 0.324088671490431 -3.54197302385362 0.366192777983147 -1.23978067546798 -0.332899066138578 -0.0425823314334919 0.181873058739848 2.6343918177157 -0.366325961058051 0.591872526848946 1.54138583276702 0.915143845066944 -0.802818319555561 2.8933616788835 -1.71843576157998 -0.389882396043992 -0.000969048280528387 -0.250786815366695 -0.211520948186462 -0.0819361302963828 0.628262616629945 0.10804206985906 0.521763207870161 -1.54036484822948 -0.300394939666655 -0.887001335743039 0.153456984181005 0.15378068590167 -1.43257243235832 0.454985779755628 0.975504317228856 -0.466626700410763 -0.525506475027553 -0.705223921991346 -1.58882934643451 0.585924025650138 -1.90289252055093 -0.0822685737632767 0.869202883310145 2.59455465170836 -0.525952046975061 0.379933260394397 2.20399785565381 -1.16334233221924 0.533662267149241 -1.19163242278831 -1.10374290619963 -1.36606908369909 0.383483952024563 -0.042055255557906
0.610135063162539 0.511664176983752 -0.0473753794689417 0.119936244044659 0.397770536464956 0.323671895883443 0.0314528029327669 -0.589675263223211 -0.661748132671191 0.620124050890532 -1.03073158458293 0.294273146204362 0.338260841899294 -1.57441729222471 -0.442786672892738 1.48090837547175 0.106085718474995 0.00495939832398834 -3.81852279379859 0.406997963830274 1.04215576135361 -2.57521430950674 -0.843506006048959 1.46636853750089 0.079026928573332 0.844922426048278 1.69175878030039 -0.295335268371213 2.74290157099802 -0.385644191783915 -0.227814534717013 0.0100085281019179 -2.40520328617959 -0.321367417311309 -0.723335791737577 0.35887336528745 -0.184138199453951 -0.178204096425404 -2.0604393564163 -0.469704823524184 -1.0367297080471 1.53111736626987 -1.21782500848273 -0.316762316819787 -0.276232238868698 -1.23414379181123 -0.601365034813156 -0.0348937085147015 3.09427143269859 -0.0128498527366006 -1.47813569925598 1.84199057434318 -0.356565287172751 -0.244213279312497 0.0651699752490875 -1.46225657434077 -0.198015207372486 0.102104110177764 0.830050915941076 0.928217897883306 0.627708801295305 0.721849437768425 -0.0983680421055017 1.17077641605665 1.2176018368437 1.30041342731392 -0.190414773246538 -0.51246276121281 0.619211052629944 0.784352923307414 -0.858071812148321 -0.863277264917644 -0.364617463890604 1.69101470343017 0.122104711329875 -0.067119898878572 0.616066080868887 -0.486792880520862
-0.571341764499051 0.613246867709961 0.137374228000689 -0.158099365649093 -0.0627929916052868 -0.637455077010346 0.519052238098367 -0.179882768811599 0.0905148686694553 -0.0686396771715419 -0.521352860017753 0.431497478968238 -0.118959225348451 -0.0845049181368602 0.212316189983139 -1.25135320481438 0.309083978308325 0.586378339343875 0.909309500789483 0.771308695272305 0.828283540541673 -3.1842034325827 2.65765643264369 -0.549336989468799 3.21906114567176 -0.45020327323769 3.90713247601044 -2.16428307409368 2.00789837625644 -0.168881024071931 -0.829407369152495 -0.780366172806519 0.516861402227212 0.436551236729466 -0.678034263006428 0.438738473058055 -1.08909199662963 0.148342805526723 -2.85319438340092 0.289213474908921 -1.09081000687386 2.83558156452031 2.35308036717763 -0.441253781980425 -1.62429383955595 -2.11339942617481 0.741732282456623 0.0427715645283364 -0.366614952903982 -0.72885337626932 -0.457462779260698 0.307005756697418 -0.473368129414598 -0.925433651709296 0.755859458583424 0.163477082241168 -1.84711066653167 1.71449400536115 0.294437953831801 0.818943756026291 0.344981959198655 -1.17916566422469 -0.767062263486365 0.11617240807261 0.729395878755898 -0.746999441669917 -0.434143656973863 0.370383931079696 -0.165174266560554 -0.0870371963313213 -1.4805383939181 -0.760264527352406 -0.513497372590058 1.41915102368444 0.0629526570290618 1.98529016362618 -2.07498896457412 0.593322371172082
0.352893753756474 -0.0765774398578653 0.0735656511717126 -0.045381747108311 0.224261529095198 0.0466230750728615 1.75147004924969 0.203293679433841 1.49177925112816 0.106817711166601 0.238629360353486 0.558251256630964 -0.582854901393129 -0.476623401444253 -1.09275993050334 1.18934465637808 -1.00173572656094 0.333103982954598 0.42548007224033 -1.2518813091307 -1.31000492269867 1.80548967007321 -0.583642686994493 1.14203381156512 2.59249082826772 1.52618213630311 5.95166931048486 1.99247793590808 -0.2361495326364 1.30680621490932 -0.439281746875184 -0.467158404269646 0.44717168706743 0.6712421832965 0.45630886875844 -0.721641435630205 -0.721254484804471 -0.405875163660184 -3.55612333989691 -0.0407990152027291 -0.291946813266654 -0.221223515170357 -0.529239714887801 -0.489387893600027 -0.106676043455651 -3.46064984423402 -0.572911422167564 0.258814823727326 0.207551681178026 1.17543705234774 -0.0141456880599923 -1.57376448946954 0.375062307973433 -1.09244548474927 -0.551721429307912 -0.0553159703672804 0.148780921278917 -1.26038034334698 -2.55088551553043 -1.48841702126229 0.647434551661561 -1.27024463263612 -0.3044513670272 -1.58207814724372 2.72600326131655 -0.743282913971579 -0.404421205574117 0.584026552498029 -0.942696543630558 -0.421943007449874 -1.00029385265348 -0.628678620906383 -0.495585534566367 1.50298719823476 0.716740401317806 0.366663032508243 1.71843730424108 -0.252793303236486
-0.500545704220905 0.325230497814078 -0.0953626811739293 0.0845733094455947 -0.12298068572408 -0.657255646439917 -0.614651974861218 0.337041368300317 -0.243423179719485 -0.444610355422265 -0.501631737634795 0.698615161842049 -1.15344024773317 -0.130935417682495 -1.14397345078728 -0.124067233358337 -0.686360004959219 0.227381561168483 2.71898980973888 -0.0638633412980009 2.99860459017792 -1.03626510994603 -1.10066478308621 -3.56688751482729 -0.224727926967545 -0.593917838356402 0.291126888892389 1.23419778494971 0.636021173518569 3.55710781478843 -0.317713110277307 0.334884470973346 -1.43741330288785 0.655821228727773 0.163842435811513 1.95409369954608 0.841877984368857 0.14302448138697 -0.300804001968146 0.931326359998346 -0.186742211389529 -1.61034484078611 -0.313528384935339 -0.552448794016221 0.3779375711523 1.37616760036514 -0.0589378815181966 -0.34303434956082 -0.467130893480042 0.231658074845858 1.02094108591637 0.0727976630544565 0.0426882608289755 0.0322187341685574 -0.535496234086096 0.932507524180025 -0.718953348664717 1.10211874117228 0.0317443658805301 0.837546706222457 -0.758762489662078 1.09384776368851 0.468536257741483 -1.26914265839087 1.73511784159737 -1.94657374090748 -0.951212547118927 -0.389642512243055 0.877736370290972 -0.171928293963367 -0.369131804487451 -0.234985337726813 -0.649889182580692 -1.61896831633106 -1.1382082691491 0.515242379403522 0.368616812790476 0.0953739940219907
0.44843461228737 -0.237809693089404 -1.08799233637603 0.494317981363129 0.535482607246386 -0.445907476296573 -1.88836553808924 -0.421363738207096 0.844117156954456 -0.407036273247572 -0.72134164515658 -0.578368071585886 -0.00582148876830027 0.0767805569026032 0.389581062909267 0.333327154593627 -0.696760626090536 0.257183973835208 0.869709647481258 0.375024255666318 1.61426319997827 -2.75376344779802 0.0757649716789134 -0.069313305851559 1.39857989503578 -1.44076319146493 -1.91319029760897 -5.54499376282433 4.00358864679357 -4.4826689931486 -0.426122076367812 -1.74129157131667 -1.26145712079427 0.125260995938993 0.321385415024133 0.411113269422775 -0.601967443972423 0.0172022139180239 1.50856571787993 -0.381017751147187 0.588880792757084 2.3613757701288 3.96668150843413 0.489962277749324 -0.320872223098441 0.181443170513516 0.00330052342190048 0.0110076582738821 2.2977697961242 0.468358080384516 -0.96637793416554 0.361754799110714 -0.610675765877835 -0.228167804108747 -0.605494738575917 -0.808371128182405 -0.520442947079364 -0.17173803242779 0.920869688847089 -0.414261583616213 -0.779161611598168 0.521048955781196 0.528187877128278 3.04685311582905 -5.1476410304071 2.81924992568264 -0.267610048874663 1.5387226854893 0.429760699680637 -0.485276444660274 0.403235670519323 -0.0152749159846621 -1.07207953002682 1.8692139147621 0.350979568442456 1.86631576877692 -0.382802610039049 0.778909643618619
-0.324350923877308 0.00549984392910128 0.550414795356826 -0.15985825641245 -0.139150602256505 0.241514907939681 -0.282241675180927 -0.318538948185786 0.44205930818443 -1.05150197362358 -0.358478186935852 -0.492574002990397 0.927843802566731 0.636705600826281 -0.2327417942681 0.229454383465543 -0.40515859757957 0.0678837732328968 0.75155106324333 -0.200205529023275 0.251129029020551 -2.68949361530036 1.92562594584041 -0.645634523268889 -0.88482129849958 -0.890302373385306 0.0889845488589737 0.332518800177607 -0.540883463754951 1.32292522362547 0.594249510492747 0.21535986033201 -3.10938154105582 0.243578731380329 0.404523535427035 0.134312559938993 0.169273374211513 0.749236814484233 -1.62662762868897 -0.295289502758602 -0.169861642310704 1.61455244893439 0.223513338462049 -0.773741214715679 -1.24474393044472 3.34345799428497 -0.0664077036710731 -0.500074421255076 2.5399413634718 0.0416467074767811 -1.01110405030666 -0.383358996475522 -0.0455802361697511 0.396066924390989 -1.39271264065487 -0.0668237079475111 1.80531817758101 -0.718440928069575 -1.19220577849687 -0.744669766299828 -1.40575069804558 2.63985283800713 0.306426744564823 -0.0854194590585475 1.00099190680091 -1.21963866371511 -0.946721089328386 -1.44721022930898 0.686056872053212 0.859229836413511 -0.183479226054377 -0.216824617045772 -0.771895163600212 -0.0718723235050742 1.43429661324695 1.17724350849499 -0.749543804042989 1.70207326952033