9.010874712 -0.012152642 -0.194338537 -0.007262297 7.729355850 -0.502892081 -0.092383778 -0.400044516 5.516220412
9.853524893 -0.192566508 -0.036310947 -0.115075805 7.030033324 -0.397974527 -0.017261335 -0.316583882 5.497513091
9.566186044 -0.625473728 0.408046900 -0.373776796 8.831626193 0.797983522 0.193975497 0.634786159 5.365327664
9.247228626 0.220092955 -0.237290709 0.131525332 8.758974690 -0.106421588 -0.112802188 -0.084657075 5.538212343
9.938636496 -0.112764648 0.075098308 -0.067387017 6.942641936 -0.368875146 0.035699895 -0.293435680 5.583374036
8.840769979 0.071420778 -0.132693252 0.042680337 7.827617461 -0.527399453 -0.063079120 -0.419539832 5.523666127
9.455789396 -0.626553816 0.448169011 -0.374422246 8.867742409 0.793139264 0.213048565 0.630932611 5.366574679
9.737121012 -0.572555210 0.357479291 -0.342153223 8.791782208 0.765314980 0.169936894 0.608798732 5.255802408
9.179525732 -0.616151145 0.478776342 -0.368205714 8.943154425 0.741508938 0.227598540 0.589861316 5.265734079
9.558701274 -0.626255034 0.411845577 -0.374243697 8.834870395 0.798304218 0.195781294 0.635041269 5.367414118
9.886087689 0.183376751 0.106692602 0.109584099 6.813449486 -0.040793640 0.050719048 -0.032450843 5.200869831
8.765426486 0.283301925 0.043565046 0.169298375 8.600716056 -0.316803173 0.020709755 -0.252013060 5.472052497
8.830342462 0.080159872 -0.114518869 0.047902731 7.836353450 -0.530490138 -0.054439464 -0.421998435 5.530853400
10.406010101 0.000033900 -0.000021619 0.000020258 6.218565412 0.000080085 -0.000010277 0.000063707 4.947229790
9.445757780 -0.625902508 0.450031192 -0.374033030 8.870199607 0.791923097 0.213933800 0.629965165 5.364266676
9.947426612 -0.287548754 0.339808571 -0.171836237 8.875786670 0.583216503 0.161536667 0.463941614 5.110822297
9.944164967 -0.344965915 0.360756858 -0.206148154 8.902754192 0.622353831 0.171494970 0.495074882 5.148854251
10.203965883 0.028798204 -0.060139427 0.017209517 6.443624840 0.016297557 -0.028588810 0.012964508 5.395586572
9.816878047 -0.523280266 0.350090587 -0.312707013 8.831667561 0.726223394 0.166424486 0.577701852 5.207620607
9.667144461 -0.209910601 -0.139569403 -0.125440459 7.098146617 -0.418261276 -0.066347874 -0.332721744 5.459912856
8.906594657 0.031315359 -0.189643457 0.018713743 7.783857621 -0.515743946 -0.090151852 -0.410268018 5.493170018
8.844545941 0.068486121 -0.138364219 0.040926616 7.824664168 -0.526339635 -0.065774959 -0.418696760 5.521141888
9.311853091 0.186156222 -0.266422942 0.111245082 8.769478738 -0.063958923 -0.126650937 -0.050878543 5.536483096
8.626805744 0.238360714 0.215035796 0.142441960 8.381069359 -0.388089002 0.102222748 -0.308720068 5.386720999
9.937402964 -0.102036647 0.076846839 -0.060976072 6.936683338 -0.363115926 0.036531104 -0.288854290 5.593910794
8.750893008 0.153636361 0.108696548 0.091811541 7.941354232 -0.529442138 0.051671675 -0.421164763 5.562013787
9.879205629 -0.188872290 -0.014318937 -0.112868177 7.024251753 -0.393145905 -0.006806872 -0.312742772 5.514407802
9.541142684 -0.206851679 -0.173347610 -0.123612479 7.198326387 -0.454083681 -0.082405206 -0.361218030 5.474202730
8.715774387 0.173954795 0.191323289 0.103953632 7.990342468 -0.526086938 0.090950403 -0.418495742 5.521363240
8.636497801 0.194507041 0.290018167 0.116235447 8.116422605 -0.479254244 0.137867529 -0.381240905 5.438663111
9.936280435 -0.139917150 0.064772394 -0.083613078 6.955640587 -0.381848686 0.030791209 -0.303755972 5.556741259
9.234613700 0.226528589 -0.229404505 0.135371202 8.757152063 -0.113099134 -0.109053280 -0.089968981 5.538543967
9.645684865 -0.211438654 -0.146506377 -0.126353609 7.112666711 -0.422814276 -0.069645542 -0.336343599 5.462902453
8.782692959 0.127577311 0.012387101 0.076238916 7.893919383 -0.534108976 0.005888524 -0.424877176 5.565885818
9.142572582 0.266632640 -0.161049711 0.159336978 8.741039845 -0.152940233 -0.076559086 -0.121662090 5.544395316
9.828212099 0.151209836 0.222951940 0.090361474 6.801861751 -0.215532001 0.105985889 -0.171453078 5.479313299
9.869653880 0.192048662 0.217860405 0.114766345 6.858692369 -0.132176386 0.103565498 -0.105144703 5.343899992
9.870196304 0.170755850 0.044374338 0.102041975 6.736875668 0.015454787 0.021094473 0.012294095 5.184141105
9.675898396 -0.598068851 0.365608939 -0.357399918 8.788203145 0.783983610 0.173801530 0.623649399 5.301475344
10.358385539 -0.007953739 -0.056415375 -0.004753074 6.314781943 -0.010472732 -0.026818487 -0.008330931 5.082873602
10.369688051 -0.007962288 -0.051195739 -0.004758183 6.285973876 -0.014552756 -0.024337200 -0.011576540 5.023384129
9.434776934 -0.167841323 -0.175883725 -0.100300283 7.328985761 -0.472333049 -0.083610813 -0.375735179 5.522900267
9.623750817 -0.212398837 -0.153160105 -0.126927404 7.128210182 -0.428724849 -0.072808561 -0.341045388 5.465149841
9.490900732 -0.192991675 -0.178835256 -0.115329880 7.255366196 -0.464269021 -0.085013898 -0.369320343 5.491219655
9.909856001 -0.178361067 0.018825880 -0.106586776 7.003480206 -0.389761033 0.008949362 -0.310050148 5.530587644
8.647712853 0.251309181 0.177241017 0.150179834 8.444734378 -0.372596901 0.084256036 -0.296396290 5.399015130
8.950336711 -0.581015713 0.392007939 -0.347209134 9.040178124 0.589727370 0.186350967 0.469120930 5.278300217
8.998865220 -0.602003279 0.420134325 -0.359751092 8.998516786 0.656464841 0.199721562 0.522209774 5.231411834
9.125199740 -0.615860119 0.476213111 -0.368031800 8.957642816 0.726718861 0.226380043 0.578095990 5.249415831
8.857083384 0.059512510 -0.154343178 0.035564076 7.815433660 -0.523204111 -0.073370965 -0.416202489 5.513213862
9.639220097 -0.610208031 0.374897622 -0.364654169 8.798649521 0.790424553 0.178217142 0.628773091 5.327533265
9.602727373 -0.619542076 0.389636181 -0.370232100 8.814617193 0.795038208 0.185223492 0.632443197 5.349877725
9.240439080 -0.615637205 0.473632444 -0.367898589 8.925114093 0.755426815 0.225153257 0.600932817 5.287257782
9.789805709 -0.043237360 -0.040500560 -0.025838210 8.748295573 0.312916014 -0.019252974 0.248920873 5.166161231
10.373452710 -0.007098098 -0.048604216 -0.004241752 6.277130676 -0.014905142 -0.023105253 -0.011856859 5.006538234
9.940557572 0.093086585 -0.062615947 0.055627605 6.498632640 0.076767206 -0.029766087 0.061067376 5.288687959
9.370164598 -0.133383518 -0.164574619 -0.079708646 7.412481527 -0.480609372 -0.078234741 -0.382318894 5.553529422
9.333501754 -0.617847975 0.463240475 -0.369219723 8.898248858 0.773926355 0.220213169 0.615648976 5.324904326
9.805021029 -0.059781597 -0.005463033 -0.035724880 8.741871366 0.336790004 -0.002596992 0.267912340 5.133758239
9.811915157 -0.527067878 0.350110369 -0.314970452 8.828539250 0.728728572 0.166433890 0.579694691 5.210109846
9.266937612 0.209850569 -0.247972254 0.125404585 8.761736344 -0.095103503 -0.117879932 -0.075653676 5.537778060
9.189081946 -0.616059842 0.478328740 -0.368151153 8.940401950 0.743829677 0.227385761 0.591707435 5.268884472
10.255035527 0.018999766 -0.065459731 0.011354069 6.440779885 0.008831559 -0.031117952 0.007025398 5.357939847
9.543319421 -0.627448544 0.419340605 -0.374956926 8.841136646 0.798626574 0.199344247 0.635297699 5.370596183
10.391345426 -0.000746359 -0.026818605 -0.000446016 6.240887790 -0.009191129 -0.012748908 -0.007311431 4.958490225
9.873919233 -0.133052700 0.150450638 -0.079510953 8.768893232 0.430328504 0.071520546 0.342321077 5.071036027
8.785042732 -0.508708952 0.503574050 -0.303999342 9.317682310 0.501081733 0.239386762 0.398604407 5.303783707
9.338201853 -0.117870468 -0.160451182 -0.070438204 7.449947749 -0.482249586 -0.076274560 -0.383623664 5.559131583
8.624814942 0.196980347 0.299287351 0.117713470 8.149001051 -0.466569768 0.142273872 -0.371150560 5.424030553
9.717474104 0.004385661 -0.143426061 0.002620827 8.781369136 0.236256542 -0.068181235 0.187939198 5.288035057
9.928688313 -0.073746328 0.079150982 -0.044070062 6.910413438 -0.351023054 0.037626437 -0.279234558 5.616310388
8.847436839 -0.533617663 0.415278372 -0.318884537 9.133850992 0.522020959 0.197413161 0.415261306 5.338071749
9.821791407 -0.519441310 0.350227172 -0.310412892 8.834777625 0.723784765 0.166489415 0.575761953 5.205202770
9.904131383 -0.441755616 0.372026615 -0.263988704 8.886089576 0.682020647 0.176852336 0.542539106 5.175183673
9.854649549 -0.114586113 0.112127788 -0.068475506 8.754378801 0.408274846 0.053302803 0.324777660 5.075354173
10.377245301 -0.005910323 -0.045367655 -0.003531950 6.268752507 -0.014651541 -0.021566671 -0.011655122 4.991957047
8.756799549 0.149292346 0.091317636 0.089215602 7.932495991 -0.529935239 0.043410166 -0.421557019 5.565831317
9.945504801 -0.332968590 0.357090478 -0.198978674 8.899054457 0.614510837 0.169752062 0.488835876 5.142372357
10.197222578 0.030369581 -0.059513205 0.018148556 6.443554215 0.017626345 -0.028291119 0.014021543 5.398716195
9.824937218 0.131656168 0.212971413 0.078676399 6.795425710 -0.232618134 0.101241390 -0.185044888 5.524649036
9.888464679 0.184234858 0.117537308 0.110096895 6.822983486 -0.048659639 0.055874356 -0.038708150 5.205779047
8.811364261 0.287882350 0.007778213 0.172035591 8.638858300 -0.287704266 0.003697572 -0.228865235 5.498721256
9.887318721 0.127075691 -0.031681420 0.075939152 6.591130082 0.069869709 -0.015060571 0.055580501 5.219196639
9.937029902 -0.136608016 0.066671274 -0.081635574 6.953693198 -0.380548945 0.031693890 -0.302722044 5.559787616
9.863651290 0.191086472 0.222862754 0.114191350 6.854785687 -0.144318472 0.105943492 -0.114803584 5.363456026
9.943276265 -0.351030282 0.362488446 -0.209772159 8.904136220 0.626286259 0.172318124 0.498203080 5.151736071
9.841937901 -0.193747508 -0.045391512 -0.115781558 7.031441548 -0.400299569 -0.021578013 -0.318433425 5.489852768
9.845108642 0.065378006 0.159040360 0.039069238 6.815965326 -0.288860083 0.075603890 -0.229784673 5.608792600
9.704150352 -0.587201196 0.361226165 -0.350905516 8.786217707 0.776911403 0.171718067 0.618023545 5.280369245
9.793755436 -0.047272269 -0.031902772 -0.028249431 8.746401256 0.318891214 -0.015165796 0.253674071 5.157693622
8.610621551 0.211315724 0.281539978 0.126280147 8.260375905 -0.426212897 0.133837206 -0.339047161 5.385905742
8.610849927 0.206714169 0.292004330 0.123530304 8.234655729 -0.435410871 0.138811702 -0.346364037 5.391858796
9.723605375 0.001447394 -0.137336251 0.000864948 8.778902067 0.241025886 -0.065286288 0.191733152 5.279807262
9.497887048 -0.195451572 -0.178499053 -0.116799890 7.246772238 -0.463152394 -0.084854076 -0.368432080 5.488085958
9.925393498 -0.066951498 0.079859684 -0.040009541 6.901591941 -0.349108338 0.037963337 -0.277711425 5.619653976
9.934003950 -0.087778507 0.078162844 -0.052455551 6.925590338 -0.356232215 0.037156700 -0.283378382 5.606575223
8.870335977 -0.540140499 0.399839426 -0.322782519 9.101131627 0.533091689 0.190073864 0.424067936 5.336076928
9.867693142 0.191876879 0.219698562 0.114663689 6.857606581 -0.136151404 0.104439312 -0.108306781 5.350467850
8.765546262 -0.508054278 0.515903240 -0.303608116 9.392768143 0.495382909 0.245247757 0.394071062 5.253899653
9.946148797 -0.256961721 0.322341324 -0.153557735 8.856571678 0.559226293 0.153233166 0.444857695 5.090649906
9.830247191 -0.089375920 0.057456578 -0.053410149 8.741506121 0.376507085 0.027313449 0.299506794 5.092208149
9.085782997 0.279195091 -0.129883967 0.166844172 8.731664083 -0.171810828 -0.061743655 -0.136673418 5.546353773
9.179816723 0.252598884 -0.188131210 0.150950547 8.747704737 -0.138502509 -0.089432967 -0.110177056 5.541335508
9.403215155 -0.622684858 0.456053657 -0.372110195 8.880430409 0.785909252 0.216796733 0.625181224 5.351669462
9.067149065 -0.612071696 0.459382669 -0.365767877 8.972025811 0.704595567 0.218379263 0.560497180 5.235475000
8.729470805 0.167395071 0.164119290 0.100033607 7.972278928 -0.528174152 0.078018289 -0.420156096 5.539067098
9.945772827 0.091144966 -0.063786719 0.054467313 6.494218667 0.076413394 -0.030322643 0.060785923 5.294102857
9.887253723 0.188917284 0.187402810 0.112895065 6.859468116 -0.093859852 0.089086704 -0.074664367 5.272633015
9.295892616 -0.099776392 -0.158750877 -0.059625366 7.497760645 -0.480583805 -0.075466277 -0.382298555 5.562809297
8.971177933 0.002480143 -0.198651146 0.001482108 7.748841753 -0.509313762 -0.094433886 -0.405152885 5.498638297
10.405789669 0.000058080 -0.000136443 0.000034708 6.218543335 0.000090037 -0.000064861 0.000071623 4.947434832
9.939512775 -0.369475843 0.367214729 -0.220795040 8.906265062 0.638148646 0.174564883 0.507639465 5.158961234
10.104258013 0.055033625 -0.056954284 0.032887540 6.448767632 0.041706613 -0.027074671 0.033177102 5.401965446
9.624614627 -0.614320741 0.380139034 -0.367111884 8.804618237 0.792442600 0.180708781 0.630378423 5.337085915
9.836489194 -0.507505132 0.351686030 -0.303279952 8.844013512 0.716757853 0.167182920 0.570172129 5.198284734
9.841444618 -0.503355220 0.352541602 -0.300800006 8.847071574 0.714469652 0.167589638 0.568351894 5.196081639
9.938127984 -0.129911756 0.069877961 -0.077633956 6.950310388 -0.377632735 0.033218270 -0.300402234 5.566207715
9.659964946 -0.210474790 -0.141946863 -0.125777613 7.102929931 -0.419636781 -0.067478060 -0.333815941 5.460989970
9.933986531 -0.387680654 0.370933337 -0.231674051 8.905322338 0.649696506 0.176332618 0.516825646 5.164205464
9.796490274 -0.538208098 0.350961149 -0.321627735 8.819079305 0.736699751 0.166838330 0.586035666 5.218167625
9.846369533 -0.499176408 0.353568223 -0.298302791 8.850075196 0.712223918 0.168077669 0.566565440 5.193969044
9.034859376 -0.020013116 -0.189857881 -0.011959637 7.717538390 -0.497682360 -0.090253784 -0.395900247 5.529390890
9.922921234 -0.189104316 0.248490980 -0.113006833 8.814441884 0.493278826 0.118126522 0.392397290 5.071835153
9.906744387 -0.180083892 0.014850111 -0.107616319 7.006860313 -0.389961904 0.007059379 -0.310209939 5.529241312
8.850896688 -0.534628375 0.412229218 -0.319488528 9.128016979 0.523668897 0.195963668 0.416572220 5.337813949
9.729649385 -0.001545184 -0.131036156 -0.000923386 8.776432694 0.245924632 -0.062291378 0.195630045 5.271451601
8.878853971 -0.542697365 0.396144282 -0.324310476 9.091888979 0.537221936 0.188317283 0.427353497 5.334795351
8.791648369 -0.510995059 0.497025998 -0.305365497 9.292055661 0.503329492 0.236273979 0.400392472 5.316629484
8.772032947 -0.507036617 0.512516624 -0.302999972 9.368593100 0.496866892 0.243637843 0.395251552 5.271524058
9.859475977 0.189635667 0.225335441 0.113324363 6.851068911 -0.152726061 0.107118947 -0.121491718 5.376169340
9.191807886 0.247259884 -0.197594694 0.147760015 8.749931482 -0.133351466 -0.093931675 -0.106079465 5.540478584
9.861009951 -0.486414205 0.357562353 -0.290676227 8.858829718 0.705598421 0.169976380 0.561294938 5.188204974
8.953017006 -0.582934187 0.392812978 -0.348355595 9.037920240 0.593272999 0.186733663 0.471941434 5.274066183
9.674630143 0.023684681 -0.179943899 0.014153727 8.797710167 0.206462163 -0.085540920 0.164238132 5.341504442
9.752463048 -0.014121255 -0.103841402 -0.008438720 8.766617952 0.266731495 -0.049363658 0.212181651 5.236985483
8.931732402 -0.567834930 0.388641403 -0.339332431 9.053278412 0.569829835 0.184750599 0.453292683 5.304052159
9.556784649 0.081617772 -0.262444089 0.048773958 8.822129196 0.126881771 -0.124759488 0.100932901 5.478042000
9.631153840 -0.212153458 -0.150956150 -0.126780769 7.122878312 -0.426609354 -0.071760854 -0.339362538 5.464476816
9.874966811 0.141374498 -0.013836846 0.084483975 6.635117200 0.060625623 -0.006577697 0.048226943 5.198422866
9.580829478 -0.623528205 0.400513322 -0.372614171 8.824969017 0.797057825 0.190394218 0.634049778 5.360167207
9.907411304 -0.168060380 0.215159404 -0.100431189 8.798544324 0.470192045 0.102281508 0.374032037 5.070383625
10.050822458 0.067258748 -0.061354864 0.040193150 6.457680695 0.055570265 -0.029166599 0.044205468 5.376766459
9.831737798 0.098488699 0.185984926 0.058855854 6.805491795 -0.261681720 0.088412676 -0.208164616 5.581991912
8.862115328 -0.537802378 0.404276438 -0.321385281 9.111406647 0.529104985 0.192183111 0.420896562 5.336931927
8.631899786 0.242291469 0.204221986 0.144790940 8.399748768 -0.383295512 0.097082128 -0.304906905 5.389729102
9.861846361 0.031690019 0.134352193 0.018937636 6.821476272 -0.313523299 0.063867740 -0.249403960 5.618862939
9.844787373 0.179095889 0.228766544 0.107025898 6.832177859 -0.181793165 0.108750009 -0.144614246 5.417210597
9.380544477 -0.620924173 0.458522607 -0.371058028 8.886003131 0.782247092 0.217970411 0.622268021 5.343541809
9.875112087 -0.473442629 0.362383618 -0.282924543 8.867235572 0.698970010 0.172268292 0.556022117 5.183413716
9.836820253 0.084783941 0.174517636 0.050666029 6.810434690 -0.273179301 0.082961407 -0.217310802 5.595776337
9.681567304 -0.208653428 -0.134577896 -0.124689185 7.088790051 -0.415943628 -0.063975034 -0.330878082 5.457622997
9.777087689 -0.031626310 -0.065520296 -0.018899564 8.754727500 0.295106292 -0.031146743 0.234753456 5.192476570
8.963463918 0.005589964 -0.198858510 0.003340506 7.752756385 -0.510246662 -0.094532462 -0.405894996 5.496263535
9.571109454 -0.210994774 -0.167255011 -0.126088350 7.169968000 -0.445388194 -0.079508933 -0.354300876 5.469433731
10.342175510 -0.002611667 -0.061771368 -0.001560706 6.354640800 -0.003216193 -0.029364595 -0.002558442 5.164436289
9.883328158 0.182316045 0.095776252 0.108950231 6.802740323 -0.032133373 0.045529683 -0.025561706 5.196613716
10.176641920 0.035554583 -0.057871722 0.021247060 6.443487482 0.022207370 -0.027510798 0.017665692 5.405783209
9.938499503 -0.220966291 0.289892707 -0.132047229 8.834939932 0.526316215 0.137807889 0.418678129 5.076774523
9.123195281 -0.045639299 -0.171031996 -0.027273585 7.663165721 -0.477635897 -0.081304419 -0.379953530 5.566809974
9.317525996 -0.108723014 -0.159154986 -0.064971778 7.473448498 -0.481967331 -0.075658380 -0.383399134 5.560991805
9.297707343 -0.616368835 0.467045806 -0.368335804 8.908240449 0.767109220 0.222022130 0.610226028 5.310113065
8.816706021 -0.522590262 0.458721606 -0.312294674 9.204658765 0.510380620 0.218065010 0.406001558 5.338897984
9.938788946 -0.116218291 0.074327594 -0.069450879 6.944267139 -0.370733695 0.035333517 -0.294914132 5.579903557
9.830727092 0.157696336 0.225006801 0.094237741 6.806921528 -0.209461710 0.106962719 -0.166624235 5.464935724
9.933117321 -0.149891629 0.057603774 -0.089573727 6.963109793 -0.385171137 0.027383422 -0.306398941 5.548254102
8.777025074 0.132796477 0.029739145 0.079357836 7.902288507 -0.533046274 0.014137261 -0.424031809 5.568111170
8.610611678 0.208146628 0.288865635 0.124386327 8.243191445 -0.432353479 0.137319644 -0.343931919 5.389622927
9.243029482 -0.080416185 -0.160008988 -0.048055902 7.555154912 -0.474767555 -0.076064351 -0.377671799 5.568338169
9.459733133 0.119253413 -0.295948861 0.071264638 8.816086710 0.068063456 -0.140686836 0.054143649 5.522666284
8.866559403 0.053383903 -0.164057003 0.031901682 7.808899276 -0.521240683 -0.077988679 -0.414640606 5.507847324
8.854473572 0.289113933 -0.018005436 0.172771573 8.667137603 -0.262427861 -0.008559343 -0.208758163 5.515454519
9.883753158 -0.187927878 -0.010035019 -0.112303806 7.022495695 -0.392436871 -0.004770402 -0.312178745 5.517199537
8.711069134 0.272291327 0.098627596 0.162718553 8.545874129 -0.346194164 0.046885142 -0.275393235 5.435912221
8.894139737 0.037696888 -0.183914449 0.022527280 7.791299347 -0.517100879 -0.087428422 -0.411347442 5.496242539
10.217259494 0.025907731 -0.061468179 0.015482199 6.443678705 0.013934220 -0.029220466 0.011084502 5.388227627
9.840822332 0.075092362 0.166664904 0.044874439 6.813436064 -0.281103455 0.079228411 -0.223614370 5.603105009
10.404727181 0.000187966 -0.001204843 0.000112327 6.218921482 -0.000137131 -0.000572753 -0.000109086 4.948214038
8.861706369 0.056461529 -0.159304053 0.033740841 7.812206086 -0.522204335 -0.075729243 -0.415407179 5.510518473
9.876019135 0.178115251 0.069417177 0.106439879 6.771999838 -0.008488216 0.032999225 -0.006752272 5.188608758
9.833963956 -0.093474431 0.066343130 -0.055859378 8.742808896 0.381800504 0.031537898 0.303717644 5.088319666
9.455763784 -0.178231571 -0.178130395 -0.106509390 7.300832130 -0.469330446 -0.084678824 -0.373346646 5.510160280
8.611775333 0.216796599 0.268451401 0.129555463 8.286587011 -0.416989853 0.127615217 -0.331710342 5.382360733
9.364931153 0.158191416 -0.283381909 0.094533596 8.786680106 -0.013604494 -0.134712815 -0.010822209 5.532442574
9.785723098 -0.039282218 -0.048974977 -0.023474657 8.750332065 0.306953020 -0.023281504 0.244177383 5.174805961
9.921630892 -0.060123426 0.080923274 -0.035929153 6.891989347 -0.347518270 0.038468941 -0.276446545 5.622016252
8.926673474 0.021650351 -0.195590584 0.012938032 7.772377774 -0.513860728 -0.092978971 -0.408769942 5.491139623
10.043171814 0.068830751 -0.062160825 0.041132563 6.459160241 0.057454733 -0.029549733 0.045704540 5.372130247
9.251449194 -0.615642696 0.472373075 -0.367901870 8.921816375 0.757757762 0.224554584 0.602787057 5.291493401
9.851270633 -0.494963942 0.354757340 -0.295785463 8.853030249 0.710006727 0.168642946 0.564801691 5.191950251
8.778291996 0.285058416 0.032481213 0.170348036 8.612145189 -0.308670098 0.015440772 -0.245543298 5.480289247
8.668444342 0.259741724 0.148846890 0.155219036 8.486819582 -0.363004606 0.070758164 -0.288765737 5.410671737
9.481990563 0.111288046 -0.292060214 0.066504615 8.818676739 0.081597575 -0.138838268 0.064909876 5.517092237
10.362192413 -0.008421170 -0.054953424 -0.005032406 6.304879648 -0.012218199 -0.026123511 -0.009719428 5.062090452
9.888181130 -0.460326310 0.367122195 -0.275086364 8.875361720 0.692131106 0.174520895 0.550581853 5.179539034
10.183559296 0.033753738 -0.058372587 0.020170893 6.443463354 0.020583526 -0.027748897 0.016373944 5.403825273
8.888202560 0.040867419 -0.180539269 0.024421958 7.794945199 -0.517836176 -0.085823944 -0.411932362 5.498193571
8.738911244 0.161806893 0.141551379 0.096694168 7.959028812 -0.528807036 0.067290057 -0.420659547 5.550516559
9.229666006 -0.615678359 0.474819100 -0.367923182 8.928348712 0.753099040 0.225717364 0.599081101 5.283208099
8.978986508 -0.000577000 -0.198200169 -0.000344809 7.744936512 -0.508274381 -0.094219503 -0.404326071 5.501441754
9.776805809 -0.199316229 -0.089887899 -0.119109370 7.042350407 -0.409335043 -0.042730505 -0.325621034 5.457845393
9.918054569 -0.172379590 0.030408301 -0.103012305 6.992432517 -0.389229482 0.014455361 -0.309627305 5.534150846
9.873376765 0.175567705 0.059262527 0.104917491 6.758363990 0.001249403 0.028171953 0.000993885 5.186373852
9.149480290 -0.052901733 -0.167076848 -0.031613542 7.642472117 -0.474003947 -0.079424239 -0.377064358 5.570934495
9.323388567 0.180050566 -0.270308304 0.107596403 8.772271488 -0.054344327 -0.128497943 -0.043230249 5.535872463
10.396688303 0.000478926 -0.016734422 0.000286201 6.230912200 -0.005593741 -0.007955134 -0.004449753 4.952920730
8.913978344 0.289321875 -0.048088224 0.172895836 8.694434083 -0.233424211 -0.022859963 -0.185686113 5.528465526
9.919397886 -0.183788305 0.240495696 -0.109830039 8.810629218 0.487518308 0.114325760 0.387814868 5.071372729
8.854470707 -0.535650781 0.409401910 -0.320099508 9.122359184 0.525392299 0.194619635 0.417943165 5.337548773
8.747931357 0.155745043 0.117174064 0.093071668 7.945778900 -0.529256018 0.055701679 -0.421016707 5.559603389
8.793860298 -0.511902301 0.494472026 -0.305907656 9.283605509 0.504050530 0.235059884 0.400966048 5.320269871
8.803006212 0.107077130 -0.048011180 0.063988214 7.865668778 -0.535996919 -0.022823338 -0.426379012 5.551620636
9.856824939 0.041205585 0.141108008 0.024624042 6.820270650 -0.307019943 0.067079289 -0.244230620 5.617212630
9.825288673 0.125049168 0.208181498 0.074728123 6.796203377 -0.238448995 0.098964382 -0.189683267 5.539095611
8.887340343 0.289340241 -0.034917931 0.172906812 8.683684650 -0.245593324 -0.016599128 -0.195366494 5.523575101
9.228428126 0.229639049 -0.225236208 0.137229981 8.756213898 -0.116233327 -0.107071774 -0.092462194 5.538733514
9.936741202 -0.098464516 0.077258914 -0.058841402 6.934289365 -0.361272980 0.036726995 -0.287388249 5.597270680
9.034389607 0.284886372 -0.106525770 0.170245225 8.723232512 -0.188669052 -0.050639741 -0.150083930 5.543273548
8.711967230 0.175491138 0.197900991 0.104871735 7.995219541 -0.525174561 0.094077281 -0.417769958 5.516530912
8.663876951 0.258080428 0.154728210 0.154226263 8.478672547 -0.364887216 0.073553999 -0.290263330 5.408118518
8.615576127 0.225248354 0.248145170 0.134606146 8.323265037 -0.404805191 0.117962133 -0.322017592 5.381400071
10.293062230 0.012500877 -0.068125158 0.007470398 6.424974485 0.005171398 -0.032385031 0.004113784 5.307214613
8.908832944 -0.554439120 0.388763982 -0.331327230 9.067597679 0.553093110 0.184808870 0.439978823 5.323926343
10.236619823 0.022166620 -0.063531085 0.013246549 6.443054062 0.011057266 -0.030201121 0.008795920 5.374570058
9.158366573 -0.055356034 -0.165983808 -0.033080208 7.635064255 -0.473150231 -0.078904635 -0.376385238 5.571685527
9.891627744 0.185651867 0.138876652 0.110943685 6.838685863 -0.062295682 0.066018557 -0.049555455 5.218221233
9.465412317 -0.627110330 0.446161589 -0.374754813 8.865330656 0.794218486 0.212094286 0.631791118 5.368497776
9.868310175 0.165011802 0.029950813 0.098609390 6.714696418 0.028503703 0.014237882 0.022674348 5.183474812
9.911261260 -0.431978914 0.373415795 -0.258146245 8.891128848 0.676478583 0.177512718 0.538130462 5.173202544
10.162635564 0.039327763 -0.057042917 0.023501875 6.443757186 0.025716852 -0.027116805 0.020457442 5.408454024
9.740262129 -0.202782488 -0.109850183 -0.121180771 7.056074247 -0.411261250 -0.052220085 -0.327153308 5.452192338
10.297815008 0.011537784 -0.068182660 0.006894864 6.421287045 0.004732190 -0.032412366 0.003764400 5.298486491
9.286908606 0.199342276 -0.257014001 0.119124935 8.764751086 -0.082323150 -0.122178158 -0.065487061 5.537330646
8.791294179 0.119150049 -0.013698715 0.071202869 7.881491714 -0.535440723 -0.006512034 -0.425936565 5.560664849
9.303198254 -0.102730410 -0.158797562 -0.061390658 7.489580606 -0.481164045 -0.075488469 -0.382760129 5.562168953
9.273608264 0.206350023 -0.251172522 0.123312694 8.762699775 -0.090995318 -0.119401262 -0.072385666 5.537636769
9.504899294 -0.197748891 -0.178009835 -0.118172744 7.238340647 -0.461954764 -0.084621513 -0.367479380 5.485190472
8.959878296 0.288722121 -0.070817440 0.172537430 8.708403837 -0.214904749 -0.033664875 -0.170954107 5.535014389
9.632962426 0.043689898 -0.210758507 0.026108643 8.810882990 0.178775879 -0.100189429 0.142214031 5.393289168
9.019801017 -0.605712966 0.433940004 -0.361967964 8.987675719 0.675602294 0.206284444 0.537433385 5.229487325
8.820948910 0.088858315 -0.094599556 0.053100833 7.845214187 -0.533157880 -0.044970311 -0.424120591 5.537600285
9.724084666 -0.578639372 0.358891335 -0.345789057 8.788593752 0.770352358 0.170608146 0.612805905 5.265385692
9.968562097 0.084306879 -0.066586705 0.050380941 6.480122081 0.073624969 -0.031653688 0.058567765 5.315922714
9.917861010 -0.421691957 0.373986687 -0.251998864 8.895785634 0.670487091 0.177784106 0.533364303 5.171230719
9.917513462 0.104149092 -0.054197341 0.062238448 6.526153181 0.076640100 -0.025764088 0.060966264 5.262235829
8.923076977 0.289270336 -0.052575686 0.172865037 8.697625216 -0.229533249 -0.024993193 -0.182590900 5.529910086
10.392807083 -0.000324121 -0.024229305 -0.000193692 6.238140163 -0.008278398 -0.011518018 -0.006585364 4.956651824
8.780678570 -0.507655994 0.507076326 -0.303370105 9.334829020 0.499576860 0.241051659 0.397407299 5.293812999
9.947292772 -0.298436001 0.344581445 -0.178342346 8.882340372 0.591060958 0.163805575 0.470181783 5.118906801
9.889938723 0.124580338 -0.034413517 0.074447954 6.583699010 0.071002317 -0.016359343 0.056481478 5.223377456
9.772521755 -0.027941224 -0.073547445 -0.016697394 8.757034286 0.289265306 -0.034962653 0.230107022 5.201401816
9.890216789 -0.014489275 0.102151085 -0.008658645 6.836243653 -0.337085014 0.048560122 -0.268147017 5.622107431
8.840952302 -0.531641126 0.421948533 -0.317703379 9.145809729 0.519032059 0.200583992 0.412883672 5.338584430
9.797593245 -0.051380860 -0.023190044 -0.030704684 8.744678273 0.324868885 -0.011023979 0.258429236 5.149442407
9.899324687 -0.027337943 0.093972217 -0.016336879 6.847550778 -0.340944854 0.044672089 -0.271217473 5.623146932
9.851995610 0.050807988 0.148071631 0.030362342 6.818854457 -0.300045092 0.070389624 -0.238682211 5.614705726
9.936570538 -0.215725829 0.283891836 -0.128915581 8.831773030 0.521097965 0.134955222 0.414527076 5.075613671
9.106391645 -0.040958951 -0.174136687 -0.024476656 7.675331331 -0.480757062 -0.082780314 -0.382436379 5.562445720
8.741951479 0.159832669 0.133613212 0.095514392 7.954614715 -0.528952939 0.063516447 -0.420775612 5.553839003
8.699663821 0.179838042 0.217068266 0.107469402 8.011005375 -0.521210975 0.103188934 -0.414616973 5.501691868
9.870572734 -0.477717546 0.360762800 -0.285479191 8.864509302 0.701159965 0.171497794 0.557764200 5.184878696
9.883906127 -0.464773540 0.365589801 -0.277743983 8.872646246 0.694474668 0.173792432 0.552446128 5.180758869
10.403045748 0.000417002 -0.003833143 0.000249196 6.220515156 -0.000979647 -0.001822182 -0.000779297 4.949169003
8.919792091 0.024885391 -0.193958662 0.014871259 7.776245155 -0.514483599 -0.092203195 -0.409265428 5.491432847
9.099651523 -0.614754398 0.470822189 -0.367371032 8.963880272 0.718148470 0.223817330 0.571278349 5.242745480
9.589859998 0.065956594 -0.241788306 0.039414996 8.819608440 0.148957091 -0.114940235 0.118493549 5.446134631
9.440135818 0.126189055 -0.297166244 0.075409308 8.812847859 0.055117324 -0.141265550 0.043845159 5.525972538
9.876630750 0.139067212 -0.017040915 0.083105164 6.627850797 0.062493201 -0.008100834 0.049712579 5.201319126
10.006852731 0.075996812 -0.065718156 0.045414929 6.467091249 0.066044852 -0.031240801 0.052537874 5.347364802
8.948330210 0.011950631 -0.198464929 0.007141576 7.760625135 -0.511855452 -0.094345364 -0.407174769 5.492856035