4.5767155292 -0.0693354062 2.9832153042 -0.0831065269 3.9227048982 -0.8354035657 2.5828760728 5.4928793851 4.7856686130 1.7222458491 1.3190962976 3.1837455572 6.5244117058 2.0260690348 -0.8569005755 6.9666822217 5.6620958322 2.4759952978 1.1829321923 5.7883302174 2.2129174237 3.0444431964 0.9859821713 5.9083483675 7.7584762953 2.3377025838 1.9240920086 5.8656120479 5.5725354555 -0.3910794700 1.5874495046 4.6189889651 3.2863066346 2.9089898888 1.9888970404 1.8408452820 7.8165312937 1.6929775415 0.6063644371 6.2625236287 6.2653015900 4.1224873280 4.4167925284 5.1060258402 -0.8347542690 -0.0704003251 1.8755246298 2.9610733042 4.5663743584 1.0742714420 5.6861551878 8.7461040749 6.2842919365 2.0041452970 2.0751972530 7.0163352137 2.5029517516 2.6558081437 -0.4668880063 5.7231220736 7.5855720310 3.8332362877 2.1289309993 6.6742187425 4.2526275401 -0.5331229898 6.5596714537 1.6354073316 2.8379333811 5.8327459817 6.2575073348 1.0693474928 1.4609890094 5.3270943136 0.7900720324 2.1931112371 1.8675596062 4.8777781292
4.9338441879 -0.3328195202 2.6363976090 -0.2252075273 3.6493972315 -0.4072364383 2.8706166682 4.5749925098 5.0849659810 1.7913084903 1.4727195224 2.8672527208 7.0455462495 1.8716263383 -0.3457896345 7.7967841992 5.2444351092 2.5848932830 1.2911345195 5.3103896029 2.3126043210 3.5709039673 0.9572656521 5.5363423870 8.3326811835 1.7209687397 2.4355226951 6.2091534378 4.9342060170 -0.2484549128 1.5771024129 4.4504757323 3.6453602816 2.9189371312 1.7248758508 1.3839657681 8.4016581574 1.1024002403 1.0398881928 6.5908268630 5.4559451006 4.0656047178 4.7587999717 4.3628910241 -0.4793970874 -0.0882599603 2.0797419734 3.1122428717 5.0917645882 1.2684255791 5.6045287339 9.7213389437 5.6259737515 2.4292634328 2.3381391760 6.4716060856 2.2435304241 3.3991484794 -0.5610134385 5.3403002084 7.9460283118 3.2332064271 2.5692987778 7.2475435696 3.7270970470 -0.1240512995 7.4569546900 0.7373084693 3.4481892705 6.4113925718 5.7072723550 1.2130765375 1.4209589117 4.6284368443 0.8760533359 2.6551655182 1.8767676378 4.5218432702
7.3407458907 -0.5032892612 1.3060839918 1.1917581846 4.1220224286 1.1401994450 2.9551732525 7.7212078684 6.5507935145 1.5596535238 1.7588711253 3.1078922417 6.3580077241 2.6281532135 0.0748003508 7.3361669632 5.4048021489 3.6529802803 0.8273328008 7.3652052451 4.0232352596 3.4284261111 2.2688077113 5.8340489863 8.1592914270 2.4853869071 2.6457630531 5.8244350591 5.9419892877 0.6891433666 1.5446806928 7.0500191962 5.4208062673 2.9605749414 2.2052311141 1.8914842984 7.3417274053 1.7815126097 1.5190441892 6.3705615962 7.4450924503 4.8956677900 4.2283245172 5.8049998876 0.9532046129 0.0567325003 2.6419300373 2.3422441097 4.6783321729 2.8703099342 5.1003268312 9.1048122368 5.9118397206 4.3724924759 0.3844243564 8.9191817762 3.8356393727 3.8188411405 0.7336107420 5.9800039787 8.1168978856 4.0961344654 2.4490334129 6.2659535391 4.4923531779 0.2004282370 7.2774831969 2.1493932632 3.9172334911 6.3265162648 6.2353304922 2.1642604029 1.8773408778 6.9243755101 2.9518336921 2.2223806352 2.4737041570 4.8374813054
6.3450944223 0.3232984286 2.2466010204 0.8599194001 4.1773411404 0.7039746277 2.6542490865 6.9238856149 5.5086513544 1.8574336453 1.4392056936 3.1216049799 6.1160782613 3.0931221497 -0.5533777307 7.3940357405 6.2429648330 2.1137171019 1.2445656011 6.9845081195 2.9402486392 3.0951066076 1.5236341953 5.8914095510 7.8120188047 2.9931124159 2.1280408931 5.9497386086 6.2970940892 -0.5236607144 1.4912115065 6.1215147740 4.2399339001 2.9621782889 2.0871873378 1.7722130527 7.0750795605 2.3402750038 0.9715740935 6.2391121850 6.8310686069 3.5940295426 4.4160653396 6.2410834290 -0.4315035992 -0.1067543967 2.1944216667 2.5921109679 4.5617961480 1.8112394224 5.5198398415 9.1112604989 7.4881985102 2.1375115762 1.9225855948 8.4184132970 3.1869209616 2.9142814422 -0.0150252925 6.0274369465 8.1768059946 4.5133050936 1.8801888018 6.6340638662 4.8991136355 -0.3291025365 6.8395501414 2.6157221054 3.2966535223 6.6560862604 7.1955683716 0.5656330840 2.1262827130 6.3873646460 1.6929854319 2.0271206328 2.2443615379 4.9339483919
4.8202508605 -0.3586073926 2.6531208965 -0.2598946216 3.5567811745 -0.4063114834 2.9968409001 4.5692689546 5.3144799152 1.8687088987 1.6161566875 2.7782265559 7.1443213850 1.7742042716 -0.0856433768 7.8688146004 5.3386357123 2.5527984491 1.3566683760 5.2496764740 2.4928654469 3.5549688294 1.0485503720 5.5792163412 8.6232430656 1.8414240778 2.6628091096 6.3698207338 4.8457113684 -0.1398707384 1.7374469245 4.1938157896 3.6578966354 2.9543883596 1.8066026087 1.3698615322 8.4406980589 1.3508160617 1.2309719567 6.6466887314 5.3181186434 4.1494081626 4.8409818149 4.4117408522 -0.0328397762 0.0795107857 1.7345481067 3.2125039598 5.0699209497 1.3503997703 5.5143840732 9.8084953934 5.4152174997 2.5004056278 2.1870385164 6.5758669088 2.6624309850 3.2933221284 -0.4683889365 5.3821853486 8.0052837223 3.2480025143 2.6826684637 7.5347003027 3.8001455380 0.0993564127 7.6903921460 0.9349773421 3.6121901585 6.5465076651 5.8068044095 1.2306248704 1.7147553157 4.3810996163 1.2198665247 2.8695384010 1.9157901685 4.4342129552
4.4842498460 -0.1151717049 2.8609020989 0.0999626295 3.9934455271 -0.7781925255 2.5434249119 5.6659545876 4.7783326646 1.7247728222 1.2303050609 3.2790587666 6.4745009217 2.2368654069 -0.7688860001 6.9097785191 5.6903349313 2.3924114204 1.2156830454 5.9324043163 2.2526696933 3.1124940131 1.0798271063 5.9324629255 7.5508446022 2.3385353865 2.0664661742 5.6979319783 5.6297774964 -0.4141045055 1.6109525780 4.8449418142 3.3397546381 2.9109734769 1.9443820681 1.8753609221 7.6952128609 1.8764480297 0.5809812729 6.2857743733 6.2298194445 4.0831178437 4.2435297459 5.3929154115 -0.8845465562 -0.0490120725 1.7450009986 3.0084109254 4.4880321247 1.0855500828 5.2160462704 8.6268483648 6.4712156533 2.2035047297 2.0510733595 7.2454451002 2.6690063897 2.5461098932 -0.3970129551 5.9611647307 7.6905403300 3.8792345853 2.0691103484 6.5572130201 4.3483029954 -0.3841788158 6.2874085104 1.7815805987 2.7419970721 5.7105361991 6.3965346476 0.9774876464 1.7175445574 5.3093000204 0.8552964338 2.0236958759 1.9153634797 5.0459909394
7.1933921926 -0.5073957003 1.2886081073 1.0871617583 4.1768832438 1.1082802298 3.0120168640 7.7373931850 6.5941749121 1.5753049365 1.7521725266 3.0857625185 6.2946578386 2.6428361386 0.0980781617 7.2759813642 5.4009268131 3.7583276076 0.8937086847 7.3444696845 3.9641257626 3.3964091838 2.2795609040 5.8157331951 7.9956866353 2.5585871978 2.7087614557 5.6608938571 5.9525910612 0.7536780334 1.3751878710 7.1126819951 5.4192166317 2.9682086368 2.2938900681 1.8595195552 7.3582381141 1.7314033747 1.5096031283 6.3664857263 7.5398476897 5.0049928710 4.1366921284 5.7759927230 0.8907937616 0.0600069327 2.6191223106 2.2388970903 4.5693400195 2.9510970227 5.1548132943 8.9659667473 5.8845625231 4.4468656142 0.2941164221 8.8018253564 3.8435396539 3.8486951512 0.7690165637 5.9355827398 8.0711582654 4.0351075037 2.3948358208 6.2604951201 4.5162962141 0.2865133839 7.2356909902 2.2338593132 4.0216429988 6.2510345392 6.2064935954 2.2408915647 1.9828310530 7.0903804373 2.9141748463 2.1384814532 2.4970497422 4.8349762622
7.5895126617 -0.3913817290 1.3703534608 1.4425154778 4.1262267828 1.0972463969 2.9068998455 7.6996037614 6.3985194986 1.5827811490 1.7843205365 3.1549236329 6.4439666161 2.5766259711 -0.0269635812 7.4745272553 5.4878181914 3.4346850512 0.8559782638 7.3131175959 3.9644361560 3.5963796267 2.1329964911 5.6532807761 8.1957862606 2.5380426131 2.6500960273 5.8547727775 5.9354257115 0.5442924425 1.6699292142 7.0031898342 5.2047548469 2.9579845074 2.1711281137 1.7322520806 7.5002862594 1.8842126382 1.3971530879 6.5063252885 7.4268584277 4.6884284981 4.3768523954 6.0255591427 0.9660570929 0.0227042423 2.7082154314 2.3753924240 4.7949683728 2.7868083339 5.0892158733 9.2074715118 5.9806824066 4.2051483890 0.6589052460 8.8373217961 3.8175012557 3.7028101483 0.6155781620 5.9102818610 8.2836305812 4.0384592224 2.4554653772 6.3744929124 4.4906176062 -0.0365355580 7.4349222472 2.0706713925 3.9261519868 6.6800408410 6.3135439893 1.9163884778 1.6761050811 6.6814155431 2.8331128245 2.2990631533 2.4323883491 4.7675017136
6.8755445598 -0.4829864321 1.2049563584 0.9035157965 4.3818610147 0.9101358953 3.0339161245 7.7925771508 6.4635235078 1.5301638112 1.6739875387 3.0023809872 6.0770062422 2.6609080829 0.1167210659 7.1202772971 5.4195950934 3.8075492440 0.8225662042 7.3770906891 3.9368629845 3.3522240148 2.2639317484 5.5730183054 7.7766006201 2.5324623090 2.6524102838 5.4710344267 5.9395228908 0.8061741429 1.4029856399 7.1774360437 5.3911677553 2.7751420013 2.3481765680 1.6688221506 7.1109757017 1.7873578781 1.4555517749 6.2076128892 7.6834072453 5.2802432301 3.8738863908 5.7541711458 0.7186991063 0.0346604723 2.5837299292 2.2130689904 4.4997769085 3.1943207897 5.0812896558 8.9085078031 5.6962787798 4.2049275430 0.3509355255 8.9179935752 3.6892013331 3.7272994213 0.7408670114 5.6653414486 7.8301271471 4.0908569216 2.3472854328 6.1337071606 4.6112333684 0.2640363161 7.1525694540 2.2849737408 4.0627508086 6.0121693677 6.1536788715 2.2802502999 1.9875868113 7.1731934881 2.9476205821 1.9941313308 2.4020515459 4.7868025596
7.3300245877 -0.5049493402 1.3052503663 1.1829468346 4.1249121207 1.1397360460 2.9598368951 7.7226756269 6.5570247192 1.5609836519 1.7592987426 3.1062992333 6.3543975923 2.6301335172 0.0780294719 7.3317727823 5.4041425596 3.6629445112 0.8349676370 7.3621427158 4.0196489107 3.4262943435 2.2741798981 5.8380882831 8.1494816184 2.4893264692 2.6492188753 5.8159481779 5.9461106586 0.6910310158 1.5306060708 7.0547799327 5.4231814049 2.9626575548 2.2107104888 1.8919466689 7.3423697628 1.7766173108 1.5208807874 6.3686490491 7.4486290739 4.9077167649 4.2191892278 5.8001625884 0.9502909626 0.0621775175 2.6378564243 2.3360343054 4.6656011982 2.8725323836 5.1062522778 9.0926335638 5.9098577530 4.3821911438 0.3728218488 8.9161050194 3.8371038707 3.8249929027 0.7362132732 5.9794293433 8.1128983032 4.0971528336 2.4459168593 6.2652278997 4.4915625402 0.2093341698 7.2718386882 2.1543872577 3.9276127624 6.3208571250 6.2331605980 2.1772369270 1.8871597324 6.9389542587 2.9503162480 2.2154727107 2.4764625093 4.8355984344
4.6922924907 -0.2262463128 2.7403133963 0.1204269140 3.5368944704 -0.0789623765 3.0854264844 4.8639285688 5.1065806802 2.1571840259 1.9417448194 2.6247568994 7.1870164415 1.4432523626 0.1433349057 7.8957169988 5.5151568164 2.7368377236 1.3539563776 5.4665957124 2.4436628029 3.6655365574 1.3813894857 5.2102065156 8.7297484348 2.2363597101 2.6944229637 6.2620508225 5.0253941242 0.2232602246 1.6868944735 4.7153621505 3.8080502727 3.7632735681 1.7370537383 1.5623621467 8.6705306341 1.7713520658 1.1934304529 6.2559492492 5.3463886959 3.8837907803 4.7866052545 5.1238468826 0.8342775083 0.3350296511 2.2339436090 2.9884495275 5.1204763344 1.1403974038 4.7179020955 9.6866117776 6.0014412388 2.4737801553 2.2044347315 6.7802696561 2.0623216424 2.8198576385 0.0765538504 4.8422915674 7.8173270290 3.4507712242 2.8284337079 6.8354546246 3.6067647388 0.2649605632 8.1756082521 1.1087622070 3.6693948958 7.1215581559 6.1431040208 0.7803334525 1.7656457865 4.3464262811 1.4528881402 2.9754502930 2.6041111844 4.3861657931
5.2148318877 0.3106828585 2.4805981465 0.5500550164 4.1422170663 0.3334048058 2.6597303485 6.6507839534 5.1088698913 1.8719431070 1.4786544164 3.1874283345 5.9163661788 2.9849997054 -0.2228084006 7.3139437964 6.1562473295 2.1842944936 1.3187262385 6.8775562058 2.6331981933 3.0530126911 1.3720613372 5.9123010431 7.5735112838 2.7432620950 2.3041748082 5.7079336227 6.2255500176 -0.4644164032 1.2843916403 5.9992569518 3.9825663136 3.0071929080 2.3864999366 1.8099801774 7.3258604306 2.1932859404 0.9164168830 6.1969965508 6.7635763843 3.7761036029 4.1958128004 5.9334547070 -0.6323669850 0.0306344999 1.7238128938 2.6848699517 4.4839091477 1.5116176077 5.2222826777 8.6522869282 7.5034578395 2.0573717401 2.1478246967 8.1908024150 2.9524040419 2.7072391387 -0.0569155070 6.3006258617 7.8455905436 4.2475209765 2.2666820311 6.5387567526 4.8822232944 -0.2089524948 6.4458221312 2.3416479451 3.4125992776 6.0041078109 7.0614527935 0.8739674868 1.9413942387 6.1775152346 1.4172916710 2.0056509193 2.0658913761 4.9630051939
4.4798498485 -0.1156665479 2.8588929354 0.1232612029 4.0019840293 -0.7669736232 2.5402652317 5.6833502578 4.7957487153 1.7274728584 1.2258304044 3.2881980181 6.4633511248 2.2611405730 -0.7477267217 6.9160200502 5.6880545828 2.3908571336 1.2290922685 5.9577869852 2.2339666482 3.1250856327 1.0803742265 5.9398558957 7.5658851898 2.3366090446 2.0828391065 5.6946645930 5.6362919589 -0.4205464231 1.5998443767 4.8708323228 3.3531939326 2.9357802385 1.9388660011 1.8948314223 7.6852233433 1.9074511286 0.6339826789 6.2887849075 6.2344528247 4.1023160236 4.2343964546 5.4107660770 -0.8856815546 -0.0490273229 1.7422634835 3.0150453673 4.4832985240 1.0970249894 5.1886965031 8.6307835048 6.4777506663 2.2422656382 2.0715471371 7.2289011506 2.6928009372 2.5541042790 -0.3821119613 5.9997938426 7.6977716030 3.8663002035 2.0818392916 6.5566046677 4.3466061364 -0.3602830139 6.2356857575 1.7883965577 2.7310943779 5.7052129704 6.3971053345 0.9874169545 1.7318337995 5.3155199012 0.8782071592 2.0202600200 1.9302789771 5.0671739409
5.2015723055 0.0034908425 2.4775566592 0.0014265950 3.1058404026 -0.0039040749 2.9275436484 4.6910222687 4.9155065793 2.2613819053 1.5784317048 2.4647676407 7.4745846670 1.5211459043 0.0134252676 8.1486875226 4.6468042407 2.5009120162 1.1509110069 4.7111914328 2.2086119958 4.0701376234 1.5839430531 4.6891363746 9.2687689991 1.5225626110 2.7485798717 6.3223370581 4.6200310859 0.2484521602 1.3167271088 4.6664885458 3.7696656966 3.9164438314 1.5509116316 1.2732414936 9.0706666406 1.5541426926 1.2055992732 6.5223461586 4.7069722507 3.6782341470 4.8202572602 4.6386486843 0.6294998596 0.3625571133 1.5537233682 3.1002617568 5.5800596665 1.5270231335 4.2991814804 10.0253468193 4.6425995545 1.8112101428 1.9011210707 5.9245229185 1.5735791960 3.3629014589 0.3437292758 3.9668166556 8.5594082795 2.7446001463 3.4676404489 7.1161052899 3.4419813708 0.9202312256 8.4950726042 0.3610986206 3.3708288122 7.0551864634 5.8481718498 1.0266524471 1.8210436453 3.4745067058 1.4890608679 3.3233356909 2.7697325611 3.9966568875
7.1809704572 -0.5064241572 1.2861553285 1.0795627787 4.1828287818 1.1032156578 3.0155709833 7.7386955657 6.5933912498 1.5756733594 1.7503201311 3.0834866769 6.2879858341 2.6431772422 0.0982860304 7.2707216517 5.4011578606 3.7638610928 0.8932071335 7.3450130270 3.9592172227 3.3916423352 2.2750975398 5.8084158954 7.9820287212 2.5628284696 2.7131002278 5.6468277533 5.9509168102 0.7603718981 1.3659922949 7.1168424959 5.4179614780 2.9659484221 2.3014960518 1.8540964039 7.3584435127 1.7300363053 1.5068295314 6.3656424601 7.5485700884 5.0125045579 4.1297328694 5.7760214142 0.8840353087 0.0535556657 2.6199759992 2.2305166586 4.5691758283 2.9638396315 5.1544150402 8.9586598486 5.8818379285 4.4460849053 0.2933259453 8.7899086119 3.8420185436 3.8460168016 0.7713564537 5.9285127629 8.0667811163 4.0288800752 2.3894694380 6.2592275390 4.5216074447 0.2902050227 7.2339555265 2.2415093765 4.0262435857 6.2433777067 6.2040247235 2.2380939813 1.9890698897 7.1001516075 2.9103344876 2.1329291684 2.4970743572 4.8367611023
7.8913432567 -0.1121991235 1.8121454039 1.9305246047 4.2623852924 0.9179840878 3.0587630860 7.5463626699 6.1378271678 1.5899517127 1.6674364348 3.0329679643 6.5699342397 2.7797301119 -0.0650257573 7.7556765718 6.0261454622 3.2593481071 0.9596921007 7.0897020450 3.6678555840 3.6032469093 2.1176725087 5.6233088774 8.5367985939 2.7197027683 2.5871862422 6.1461678095 6.2980305617 0.1837207534 1.8205607564 6.4430349661 4.8286491044 3.0161945286 2.3927326246 1.8658605129 7.8893296680 2.1513207676 1.2844975391 6.6350120360 7.6182419494 3.9716482223 4.6794381459 6.4682549456 0.5767830957 0.0996921424 2.7154216483 2.2768473265 4.9609946698 2.7510510908 5.1782742291 9.3906928806 6.6062093422 4.0187426473 1.3368813911 8.6084372269 3.3841310476 3.6006274283 0.6144811349 5.8804000188 8.3571170575 4.1918043665 2.6640650813 6.3229453936 4.8334502876 -0.5278706182 7.8758115518 2.1796908724 3.8407373157 7.0836196591 6.6130781436 1.3005786725 1.4108040636 6.3318552390 2.3795922169 2.4022265407 2.5012158278 4.7333875782
7.8960423414 -0.1334884946 1.7421677185 1.8730157907 4.2855522697 0.9420702158 3.0355076529 7.6140652978 6.2279636395 1.5775100911 1.7462045065 3.0577003712 6.5536021333 2.7386745528 -0.0698674270 7.7522104672 5.9679936670 3.3250186751 0.9072567609 7.1544827854 3.7481618618 3.6162580465 2.1463154466 5.7196881239 8.5880232663 2.6610355550 2.6039888435 6.1383451361 6.2959939798 0.2299601322 1.7347701575 6.4567750788 4.8862180485 2.9696100503 2.3922102229 1.8437027314 7.8515513912 2.1131442808 1.3565134617 6.6147278239 7.6863037886 4.0930344214 4.6383120346 6.3767143767 0.6554938921 0.1045731355 2.6652668603 2.3835898713 4.9703788765 2.7423103550 5.1358231169 9.3544170292 6.4661470210 4.0981587299 1.2410465101 8.7667220557 3.4659664902 3.7265027077 0.6216227716 5.8818936955 8.3147204642 4.2131142446 2.6243596935 6.2690201268 4.7764458494 -0.4273516505 7.8339498346 2.1226878197 3.9213428655 7.1218499259 6.5273582617 1.4719411227 1.4425505806 6.3400993040 2.4587844925 2.4153861528 2.5357258968 4.7157259385
5.0060968058 -0.0113032149 2.6399824156 -0.0242916927 3.1224779871 0.0290206088 2.7567533363 4.9002237651 5.2773372826 2.3522303719 1.7777736894 2.9813675814 7.3374120431 1.3387392918 -0.1759678336 7.9429078590 5.0158299709 2.7428912491 1.0807394312 5.1773275526 2.4746305287 4.0508475400 1.5265051822 5.3050182846 9.0799513400 1.8408361567 2.7365463085 6.2157014910 4.5451248385 0.1695621001 1.1620686522 4.7234969945 3.9754751569 3.9434248558 1.6712909382 1.4240461385 8.9106925721 1.5687003368 1.1628851743 6.6346863146 4.8897971092 4.1393841346 4.7073943062 4.4125123219 0.4337330022 0.2850817420 1.7584219283 3.4410714667 5.4821914074 1.3487816592 4.7019002889 9.8535412419 5.2059072655 1.8843372282 1.7406641911 6.4679818669 2.0586220232 3.3043961497 0.2689617145 4.7209944806 8.2481074059 3.1085368992 3.0791292647 6.9750538867 3.2399945944 0.5890404236 8.2448812154 0.6314139452 3.5018907609 6.7904531613 5.5734038783 1.1329845031 1.9534298853 4.0568167222 1.7677931747 3.3744299369 2.7005979671 4.4191815017
7.7108757184 -0.2958052798 1.4431130140 1.5819765331 4.1749832133 1.0521832817 2.9070062238 7.6895247972 6.3718377654 1.6139069906 1.8297151748 3.1686247482 6.4951740675 2.5897560547 -0.0867132216 7.5708508638 5.6036603749 3.3650721678 0.8704837478 7.1863123637 3.7878607359 3.5384845511 2.0887233818 5.6320360446 8.2726156496 2.5699932629 2.6814778013 5.9126363303 6.0368616015 0.4649374953 1.6333383478 6.9303060270 5.1758643515 2.9808849789 2.2479811973 1.7193707193 7.6841251055 1.9216590117 1.4016005449 6.5924959598 7.5397311332 4.5502887369 4.4034140327 6.1371517826 0.9141641653 -0.0523143719 2.7009141527 2.3578980613 4.8514939213 2.7531505934 5.0688769253 9.2601869613 6.1515424625 4.2402977192 0.7584456036 8.8020678687 3.8017068290 3.7687286636 0.6053922619 5.8601296383 8.3277995536 4.1482518602 2.4214578123 6.3746152955 4.5576968835 -0.1161210528 7.5361039801 2.0284356857 3.9883586245 6.8539375000 6.3258366960 1.7005123998 1.6951713053 6.6223581087 2.5762474051 2.3710718816 2.4226887287 4.6678380772
4.8202090648 -0.2119567577 2.7453415451 -0.0970576062 3.7679801907 -0.4380811758 2.7554364415 4.6119040965 4.9210385147 1.7241674291 1.2956362065 2.9348281500 6.7997177871 1.8488429821 -0.4953778887 7.6564939608 5.1778850549 2.5661972974 1.1977928981 5.4589633574 2.1853475701 3.5203139688 0.9630233711 5.6437561987 8.1811966022 1.8020534878 2.3380991046 6.0292883026 4.9462165670 -0.3558077725 1.5386200657 4.4897848073 3.3473175681 3.0267302688 1.8216487394 1.5403039970 8.1044429884 1.3378169714 0.7947620414 6.5044855387 5.6861766594 4.1167968520 4.6178450348 4.4557353522 -0.5890119667 -0.0164265904 1.9239454804 2.9907836731 5.0257956535 1.2065124330 5.5191531670 9.4320741718 5.8446061921 2.3618893723 2.2553729681 6.6747022570 2.1151587689 3.3661508632 -0.5589330096 5.2680041653 7.5146486110 3.2164842009 2.4035636891 6.9305702460 3.6618057053 -0.4634043064 7.2288068804 0.8694549752 3.1909006544 6.3111712475 5.6147663988 1.0541323178 1.3317363204 4.5859162277 0.8473233924 2.7475887688 1.7167772885 4.4845189552
4.5165976493 -0.1019936825 2.8888261896 0.0048697737 3.9548593798 -0.8156350623 2.5521766408 5.5929143540 4.7305157365 1.7200471476 1.2693854639 3.2323743756 6.5129629020 2.1310442641 -0.8477562068 6.9052322730 5.6841972461 2.4079351484 1.2119832923 5.8228498326 2.2737998117 3.0214312084 1.0534829782 5.8761889962 7.5860320209 2.3573050170 1.9688298006 5.7545011616 5.6200727940 -0.3866050213 1.6257410024 4.7324198315 3.2736950109 2.8775873634 1.9827043867 1.8231913222 7.7525562824 1.7433859062 0.4575631366 6.2683226345 6.2088011254 4.0341784557 4.3572431888 5.2596552465 -0.8732721715 -0.0835659207 1.7796850122 2.9751962188 4.5213046701 1.0574034041 5.3907887746 8.6302073577 6.4286095461 2.0408571408 2.0001771279 7.1789443382 2.5483544586 2.5715382629 -0.4466641649 5.7915037191 7.6438747216 3.9145925230 2.0648979528 6.5675522804 4.3300940359 -0.4854753432 6.4551563975 1.7160495528 2.8457474054 5.7550299087 6.3424680887 0.9577410893 1.5969484583 5.3333472642 0.8399093482 2.1096735492 1.8390059078 4.9587539758
4.4859175382 -0.1147347656 2.8617983926 0.0923994894 3.9905861368 -0.7816614265 2.5442203762 5.6604132019 4.7728986004 1.7240454296 1.2322269006 3.2758942864 6.4780177569 2.2288169716 -0.7757793703 6.9080257046 5.6907977091 2.3930205779 1.2128389477 5.9233308439 2.2584816144 3.1070195997 1.0796458956 5.9294319851 7.5467188280 2.3393494199 2.0611097306 5.6996865577 5.6280781587 -0.4115249539 1.6139591873 4.8368500165 3.3346959486 2.9043161110 1.9465772080 1.8690814701 7.6988062371 1.8654937605 0.5634697616 6.2847857263 6.2281624960 4.0769057604 4.2487623732 5.3858130133 -0.8839797900 -0.0495387208 1.7460035427 3.0064420302 4.4899163848 1.0821624505 5.2260237316 8.6248668177 6.4693954696 2.1904173969 2.0449962040 7.2488521374 2.6606192676 2.5445465681 -0.4020848515 5.9478912892 7.6878026360 3.8842357192 2.0660494852 6.5571010867 4.3487952420 -0.3922421829 6.3047210808 1.7791122455 2.7468826954 5.7126947030 6.3950083797 0.9740032874 1.7116361958 5.3084355996 0.8490862865 2.0266484066 1.9096970000 5.0391454730
6.5192362911 0.3334020304 2.1866852651 0.9627233995 4.1725850710 0.7329841224 2.6196564780 6.9573207077 5.5658341272 1.8100035955 1.4783458793 3.1212149495 6.1190536310 3.0709520919 -0.5963017477 7.4188008748 6.2478098747 2.1033049012 1.2503086626 6.9611940830 2.9761676992 3.1189827709 1.5566102843 5.8912851189 7.8868636571 3.0184095147 2.1121178076 5.9763609618 6.2814107551 -0.5437587282 1.5667760473 6.0954466529 4.3029451337 2.9299201371 2.1000942278 1.7912796767 7.0948275804 2.4030297196 0.9762403143 6.2114724925 6.8693143341 3.6156875616 4.4633048449 6.2915983657 -0.3901852126 -0.0305523752 2.1901015825 2.6309676748 4.5951343818 1.9282895029 5.4453833075 9.0318812121 7.3425546115 2.1973334081 1.8836125410 8.3678315156 3.2097089977 2.9707311126 0.0441879794 5.9595963528 8.1228514626 4.4818739408 1.8847257026 6.6052792109 4.8576114046 -0.3694306872 6.8791055254 2.6206795796 3.3438029359 6.7208367416 7.1643023096 0.5999923857 2.0435736964 6.3277277628 1.7857067895 2.0925547776 2.2538019975 4.9264527486
4.8463123101 0.2564905457 2.5907820274 0.5745690070 4.0830023936 0.0522816173 2.6076921782 6.4883787704 5.0185035851 1.9301675019 1.4641622984 3.1576123462 5.8901983573 2.8725569863 -0.1771895600 7.2136952240 5.9895106985 2.2367259839 1.3645101506 6.5841083016 2.3913801392 3.0660863335 1.3320849313 5.8823741893 7.5094037777 2.5670796930 2.4904898652 5.6355230155 6.0210563531 -0.3405174883 1.2838089363 5.7343843891 3.7187529940 3.0836149923 2.3349361319 1.9585669766 7.1843455638 2.2069795729 0.9874893081 6.3251834730 6.5428193229 3.9156150788 4.1619726730 5.7137957220 -0.6221022915 0.0806118498 1.6552689675 2.8699986033 4.4697737995 1.3888495262 5.1583068578 8.4770407362 7.3050235799 2.4433289403 2.1732827196 7.7940192728 2.8884650558 2.8925203586 -0.1946109780 6.0499182754 7.8054730642 4.1326811521 2.5071719116 6.3835898157 4.6559831876 -0.2414198043 6.1837515549 1.9990893356 3.2593068402 5.7954090572 6.6449486825 1.1018358245 1.8858666198 5.7441706207 1.2668727364 2.0482458856 2.1159154073 5.0718439973
4.7943583942 -0.3511399393 2.6622378378 -0.2445824359 3.5561661787 -0.4033511240 3.0043583367 4.5733439298 5.3359652526 1.8755431812 1.6245659165 2.7810000361 7.1342388111 1.7626157285 -0.0706687242 7.8647257358 5.3483990842 2.5524146991 1.3582942032 5.2394067162 2.5037803553 3.5835624243 1.0570956835 5.5847123531 8.6246407241 1.8550581599 2.6780507601 6.3599923636 4.8546333652 -0.1534586255 1.7420618774 4.1890700494 3.6691194496 2.9619650133 1.8309469287 1.3548233164 8.4567701385 1.3878806948 1.2200882764 6.6653661927 5.3084493087 4.1735545458 4.8530243041 4.4093490917 0.0109748780 0.0747864340 1.7142272535 3.2097595855 5.0962213278 1.3598987069 5.4990224260 9.8043844947 5.4118199804 2.5209582252 2.1654175157 6.6139223863 2.6968844416 3.2599300890 -0.4668525383 5.3893121722 8.0138349957 3.2755342558 2.7043665673 7.5237911199 3.7873609584 0.0907930891 7.6820423013 0.9458512862 3.6631285246 6.5797234836 5.8295466570 1.2402176914 1.7576346805 4.3524428274 1.2204165910 2.8727040516 1.9217367489 4.4279341392
4.4728884137 -0.0474093128 2.8632912402 0.3592069396 4.0818858180 -0.6086161677 2.5092126213 5.9061681294 4.9598534636 1.8161432528 1.2506803003 3.3406952916 6.2836577914 2.4889933502 -0.5362923973 7.0011817545 5.6546856574 2.4124427793 1.3755841976 6.0858464573 2.3568648298 3.1487735194 1.1698280202 6.0312905461 7.4999516713 2.3877787570 2.3501496721 5.7067543782 5.7294813314 -0.3418320457 1.4829186263 5.0761073128 3.5192579733 3.3195405640 1.9444047071 1.9635977835 7.6569719256 1.9553808474 0.7723437998 6.4120909120 6.3024807113 4.1672375249 4.2582836352 5.4501731867 -0.8457609853 -0.0720706666 1.6715596750 3.1943991008 4.4422899145 1.2507951779 5.1535654527 8.6602826365 6.7007552803 2.4355782530 2.4272608027 7.2393795608 2.8244236979 2.7313635679 -0.3745231806 6.1886659660 7.6973920353 3.9578015498 2.4483394464 6.4905813738 4.3848494378 -0.2292954878 6.2096295053 1.9488070528 2.9060391776 5.7194944710 6.2709860499 1.1213437066 1.7788844080 5.4477049327 0.9105856170 2.1229442566 1.9963344504 5.2032930462
4.9440000253 -0.3515534778 2.6288742193 -0.2503308361 3.6306788208 -0.4093429902 2.8851589945 4.5758778419 5.1222826167 1.8052839589 1.5049510384 2.8551871509 7.0829850435 1.8658291770 -0.3062966419 7.8237528911 5.2596228245 2.5861142425 1.2934828126 5.2830220912 2.3777951073 3.5476621237 0.9761870370 5.5368105699 8.3861359373 1.7398848753 2.4845801549 6.2426441312 4.9210448035 -0.2155817647 1.6174146312 4.4262619100 3.6795175407 2.9226912289 1.7142656529 1.3983501620 8.4177305606 1.0687363719 1.0484778442 6.5668549541 5.4258176106 4.0806767310 4.8100351558 4.3902378809 -0.4344915177 -0.0617795580 2.0564314262 3.1494296532 5.0659326643 1.2721303751 5.6253359403 9.7187228419 5.5960448636 2.4257637050 2.3620607590 6.4787998348 2.2868407394 3.4152797358 -0.5715830577 5.3608810277 7.9758340659 3.2521020588 2.5936943222 7.3282708406 3.7402256842 -0.0635815813 7.5038168025 0.7322080982 3.4649760447 6.3996455420 5.7277399326 1.2307523938 1.4550672122 4.6217307818 0.8967618188 2.6696262379 1.9052408864 4.4997464678
4.7669684923 -0.1445807075 2.8634053954 -0.0768111093 3.8307885403 -0.5401477097 2.6554582957 4.6939854066 4.8362351156 1.7414581096 1.2120434939 2.9781865934 6.6576462353 1.7969067155 -0.5610111252 7.5402171331 5.1843512174 2.5453094945 1.1457659877 5.5374741840 2.1794709045 3.3619554768 0.9260898670 5.7061998625 8.0458949054 1.9225590805 2.1923196607 6.0411685341 5.0217152874 -0.3666621028 1.6289459582 4.4835172683 3.2749352707 3.2028628695 1.8635900008 1.6577173625 7.9872772438 1.5377128239 0.7605752958 6.3633339856 5.7938939046 4.0789151228 4.5374279713 4.6109348951 -0.6408188995 -0.0852935357 1.8840440428 2.9710072451 4.9198396234 1.1780342067 5.5890396621 9.2973775859 5.9694005169 2.1889145726 2.1267368186 6.6485037206 2.0563668470 3.3250604900 -0.5692692113 5.3970205675 7.3932628358 3.3015384004 2.3241283605 6.9276026277 3.7773141633 -0.6620019985 7.1223385682 0.9460389274 3.0551986871 6.1529527593 5.5892999268 1.1086988152 1.3512522342 4.7691423996 0.8932440619 2.8081298789 1.7432909817 4.4641415978
4.4940867673 0.0021214959 2.8382915034 0.4404005617 4.0942155748 -0.5224812960 2.5257926987 5.9927637105 4.9523194035 1.8664269382 1.2767180472 3.3118506663 6.1716688048 2.5625972845 -0.4573911791 7.0338656240 5.6498113323 2.4015176134 1.4074467583 6.1300162213 2.4183942848 3.1941884494 1.1816637822 6.0277105329 7.5292763184 2.4238244760 2.3459798656 5.6697503410 5.7569106933 -0.3426476074 1.4756371459 5.0658593494 3.6050471633 3.4015622388 1.9751613145 1.9592077685 7.6213955109 1.9811707441 0.9243066032 6.4681874370 6.2791594803 4.1602053340 4.2178937171 5.4828045876 -0.7942415672 -0.1362440759 1.6679012699 3.1799177304 4.4735637797 1.2989544616 5.1679072912 8.7028637730 6.8488740764 2.3829914978 2.4888941783 7.2798734465 2.7779472493 2.8053305957 -0.3234470100 6.1383629784 7.6835884563 3.9309857531 2.5912871828 6.4933289550 4.4112558643 -0.2512160091 6.1777028154 1.9715480449 3.1112573709 5.7255915498 6.2712185479 1.1842860469 1.7320554585 5.5273478024 1.0083336340 2.0871220931 2.0097558633 5.1745391995