-30086.9660436312
-30087.1525607009
-30087.2698591206
-30087.4018304551
-30087.0435753548
-30087.7569097163
-30087.1260522007
-30087.4489092543
-30087.442573359
-30087.2794391554
-30086.6802724094
-30087.5245810808
-30087.7352622552
-30089.634138452
-30087.082227201
-30086.5394088074
-30086.2898421772
-30086.9352707011
-30087.4090886798
-30087.6655445486
-30087.1402359912
-30087.7286322049
-30087.7813195396
-30087.5300315182
-30086.9052715264
-30087.7431565457
-30087.0280244651
-30087.1000701044
-30087.6102575756
-30087.4538011784
-30086.876089509
-30087.4450664647
-30087.5454077109
-30087.7557156814
-30087.2777423905
-30086.6068281057
-30086.9825632457
-30086.5204294211
-30087.0893874648
-30087.0716378964
-30087.0605617804
-30087.2301667116
-30087.4027897919
-30087.1601076383
-30087.1016040093
-30087.716397837
-30087.426292116
-30087.1521680409
-30087.3183201214
-30087.5735550159
-30086.9675067866
-30087.1080752813
-30087.0282681429
-30087.3523686201
-30086.9827212077
-30086.66821165
-30087.6374830955
-30086.6810823558
-30087.1369436876
-30087.448109104
-30087.4032740182
-30087.3961181082
-30086.9682239422
-30087.2816119833
-30087.5242229792
-30086.4091955995
-30086.6385130248
-30087.3876425828
-30087.3760636007
-30087.714442564
-30086.9167290097
-30086.8732449685
-30087.36231492
-30087.3578698067
-30086.6226709734
-30086.9584658089
-30087.7435234911
-30086.2702158406
-30086.9388703572
-30086.6845533021
-30086.7006763109
-30087.627949592
-30086.8988167173
-30086.9426581799
-30087.0216242148
-30086.311948286
-30087.2352643536
-30086.8541922475
-30087.3070088991
-30087.2988014057
-30087.3682684956
-30087.4088218723
-30087.7038973418
-30087.1894300663
-30087.0044210507
-30086.8069720852
-30086.6503409909
-30086.9886932871
-30086.9100758298
-30086.7968701362
-30087.0141006792
-30087.4348768951
-30087.3049241
-30086.862426272
-30087.1045439257
-30087.8279331605
-30086.6992417275
-30087.0057367204
-30087.1791064807
-30086.8887149044
-30089.5233911696
-30086.4157418387
-30086.9147953698
-30086.9943371973
-30087.2009678232
-30087.1502182102
-30087.0493802203
-30087.6303096341
-30086.5843962768
-30087.5066004879
-30087.1078371818
-30087.1556593957
-30086.4695587174
-30087.1083400479
-30086.8442806421
-30087.6941019289
-30086.5905989725
-30086.6511633186
-30086.8219162975
-30087.0856246766
-30087.3627562884
-30087.0610401563
-30087.5100936114
-30087.822271699
-30087.6343712032
-30086.8500668678
-30087.5277656274
-30087.4516446773
-30086.9853167642
-30087.2268586254
-30086.3758921481
-30087.1191432339
-30086.5629956228
-30086.7338125485
-30087.6445360104
-30087.1782006142
-30087.2802276049
-30086.7623148258
-30087.1393199204
-30086.6255039491
-30087.7087402853
-30087.4877020554
-30086.9076589159
-30087.0867996635
-30086.4154769361
-30086.6597010219
-30086.989681604
-30086.6770901757
-30087.1691027648
-30087.2135013802
-30086.7473620419
-30086.7143696165
-30087.074635773
-30086.6961948704
-30086.6857369967
-30087.8160456015
-30087.4038445046
-30087.2243613019
-30087.5937095252
-30087.4523154376
-30087.3907580126
-30087.0294651711
-30087.5716178385
-30087.2131047745
-30086.9463068164
-30086.7273546101
-30089.0859526156
-30087.5122184112
-30086.5538947802
-30086.9836902046
-30087.072489068
-30087.292124824
-30087.8868694503
-30087.4020376696
-30087.078048623
-30087.0467087441
-30087.1745323855
-30086.9576904209
-30087.0774809938
-30087.5727909207
-30087.6030345896
-30087.4615825417
-30087.1479297339
-30087.2810002717
-30086.9678541397
-30087.2534835902
-30087.833029578
-30087.1043271872
-30086.8783325423
-30087.4479077399
-30086.9857311934
-30086.5201306402
-30087.0045350663
-30087.8695838357
-30087.908276499
-30087.2172030789
-30086.438576668
-30086.8112999175
-30087.7595512601
-30086.657518534
-30087.4162011877
-30087.1404746349
-30086.7060991288
-30087.2105535725
-30087.4626232405
-30086.8621971523
-30087.1806703182
-30087.5314320874
-30087.6205072823
-30087.2537970652
-30086.758172575
-30086.6417562119
-30086.9729859319
-30086.964834494
-30086.7925553654
-30087.1622903984
-30086.5956938934
-30087.2820449162
-30087.0293014947
-30087.4969925613
-30086.710048587
-30087.5366765347
-30087.5984257999
-30087.1721820034
-30087.4348451938
-30087.2065170379
-30087.2697554452
-30087.5329706183
-30087.0701056241
-30087.586189255
-30087.4258646254
-30086.8951121614
-30087.1323768034
-30086.5544647223
-30087.2416778014
-30087.622509767
-30086.6727626155
-30086.4418838018
-30086.8506958586
-30087.5240331799
-30086.6051502526
-30086.9183227797
-30087.2430040835
-30086.724463266
-30087.0467358194
-30086.6424349995
-30087.2802071964
-30087.8102513484
-30087.308202798
-30087.1024419835
-30087.2331786021
-30088.6403473853
-30087.0764468257
-30087.169033784
-30087.4645824592
-30087.7632850682
-30086.9942108005
-30087.2644590242
-30086.9602598545
-30086.7412224766
-30086.8071312717
-30086.7112169072
-30086.660744714
-30089.7829681825
-30087.1005243982
-30087.4388454013
-30087.0435333133
-30087.3505149816
-30087.7274199384
-30086.6482616341
-30087.8853732331
-30086.9840461293
-30087.107490645
-30086.8227670609
-30087.529837093
-30086.9405420877
-30086.5892839831
-30087.0274775165
-30086.9892296232
-30087.2807746895
-30087.2669035576
-30087.0115804982
-30087.8189919126
-30087.84618301
-30087.7680442007
-30087.3960472226
-30087.0192244441
-30087.5894644155
-30087.1185562846
-30086.6169676063
-30087.0798096068
-30087.2225209969
-30088.0013204722
-30087.2576412155
-30087.4520162485
-30087.4492474917
-30086.6509118855
-30086.8105185431
-30087.2331984664
-30086.7434519041
-30086.8224307284
-30087.919690036
-30087.4730194805
-30087.3303101312
-30087.0740967158
-30086.5885422011
-30086.3909103752
-30087.4355860234
-30086.6609501599
-30087.637058462
-30087.0811999718
-30087.5584682161
-30087.568986363
-30087.2731144167
-30087.5867918508
-30086.8940234345
-30086.5617214504
-30087.8946344868
-30087.3750800457
-30087.493784885
-30087.4678052378
-30087.0318452135
-30086.9249590886
-30087.0221443602
-30087.2659273497
-30086.6910452547
-30086.538414776
-30087.8452360543
-30086.788610261
-30087.11350014
-30086.8541523829
-30087.9210367267
-30087.6496536528
-30089.7670182381
-30086.9562898517
-30086.5907678191
-30087.274014841
-30086.9098271179
-30087.8051209167
-30087.259657714
-30087.6518062082
-30087.5066866118
-30087.9039034958
-30086.9749745389
-30087.0003383928
-30086.9681706079
-30086.6124288859
-30087.5953932287
-30087.4513718833
-30087.0462721376
-30086.7784575628
-30087.4359521524
-30087.225060362
-30087.4471308552
-30086.7013725138
-30087.255658459
-30087.3786429665
-30087.0288757728
-30087.3428889951
-30087.2871311294
-30087.0592957714
-30087.3211891521
-30086.7656537969
-30087.4488442192
-30087.5148468935
-30086.933757885
-30087.6819328682
-30087.5772461022
-30087.1030130141
-30087.9083167718
-30087.4608803523
-30087.9062793205
-30086.7349780114
-30086.5664264323
-30086.9818281305
-30087.1669944279
-30086.7146562883
-30086.7428499886
-30087.2616714915
-30087.2610909369
-30086.607324305
-30087.3251479983
-30087.7852115819
-30087.3087350524
-30087.6569231702
-30087.0452397383
-30087.5147736949
-30087.0411172157
-30087.2973831491
-30087.2611254953
-30087.1248369409
-30087.4254070662
-30089.3902853931
-30087.1766910635
-30087.5975993906
-30087.4508869767
-30087.6497658997
-30087.4494196036
-30087.2590296756
-30087.3815036978
-30087.5112945852
-30087.8114482405
-30087.4238852704
-30086.6976037391
-30086.6370085081
-30087.4037198765
-30087.4362581442
-30087.6245570145
-30086.5955968848
-30087.2833984098
-30087.4806460111
-30087.7585360038
-30087.3195181019
-30087.6087442153
-30087.0822741406
-30087.0531596075
-30087.3953839455
-30087.1483019855
-30087.442516079
-30087.2969986525
-30087.1024248403
-30087.091290492
-30086.5678484985
-30087.0991371626
-30087.4441191008
-30087.1935523167
-30086.3667311683
-30086.6712413639
-30087.4466542481
-30087.5484581055
-30087.2839404603
-30087.1831178448
-30087.7034546128
-30087.0537970338
-30086.9225001331
-30086.6501867025
-30086.7047216892
-30087.3800496582
-30086.8564328317
-30087.0086190848
-30086.931146818
-30087.2051536122
-30087.1617634502
-30087.2213838338
-30087.4999413214
-30086.3405346464
-30086.9537257243
-30086.8091506275
-30087.4467871756
-30087.0882304374
-30087.6701469436
-30087.2346546828
-30087.83045443
-30086.9500342299
-30087.194144028
-30087.1398559844
-30087.2533472613
-30087.3101529008
-30086.9167521394
-30087.1107339682
-30087.0752658523
-30086.5729251878
-30087.5397896515
-30087.6440125997
-30086.4417284249
-30086.8768563254
-30087.0013373222
-30087.0180183001
-30087.4343743011
-30087.5837613205
-30087.8786033164
-30087.1518766071
-30086.7343238501
-30087.091118244
-30086.5033804094
-30086.6836949195
-30087.436987681
-30087.4051250717
-30086.7945521357
-30087.1970916996
-30087.0956776451
-30086.6921335734
-30087.5913256732
-30086.4878146894
-30087.0385549931
-30086.6312610587
-30086.7636626049
-30087.4016022877
-30087.2238090471
-30087.2894602866
-30087.2526196293
-30087.2559056743
-30086.783163225
-30087.0630103955
-30087.4471443249
-30087.4655156731
-30086.374518246
-30087.5673202108
-30087.3667748635
-30087.2826808459
-30087.4504956772
-30086.9518372552
-30086.7713704976
-30086.601810193
-30087.4457478374
-30087.1754239661
-30086.970135677
-30087.5513255036
-30087.200292301
-30087.1990501019
-30087.499629207
-30086.5903557029
-30087.3769608956
-30087.4524973456
-30087.3416778171
-30086.9682063909
-30087.6832983348
-30086.5696502994
-30087.696105366
-30086.9661618646
-30086.2754231444
-30087.4427671039
-30086.8693163269
-30087.0006922767
-30087.2819566153
-30087.5286686367
-30087.3885549801
-30087.1289537491
-30087.6032828933
-30087.6105734996
-30087.2503555072
-30086.5342919814
-30087.6268091635
-30086.5542791407
-30087.0718170833
-30086.6360442732
-30087.0291998602
-30087.7139391536
-30087.2694680932
-30086.3542516259
-30086.6565453193
-30086.9681021713
-30086.8090031419
-30086.6821336671
-30088.7799882444
-30087.8283733044
-30087.2111716788
-30087.0803784605
-30087.4870417715
-30087.5286595209
-30087.8181680883
-30086.8417887609
-30087.1194496339
-30086.9748454209
-30087.2515469571
-30087.2066480606
-30086.3630843005
-30087.2551251161
-30087.4442782873
-30087.3540968142
-30088.3965892941
-30086.6674929977
-30087.6953101137
-30087.7061847295
-30087.3278408355
-30086.9381156499
-30086.950142259
-30087.8562732581
-30087.2269257014
-30087.2732186363
-30087.507081857
-30086.8791363661
-30087.195479562
-30087.3645394495
-30087.4805949898
-30087.6362655227
-30086.7474478938
-30086.7018404133
-30086.817990241
-30087.68174579
-30087.6945813932
-30086.5125683284
-30086.3960308748
-30086.9264202031
-30086.8294513979
-30087.6620853032
-30086.9870646866
-30087.4711195826
-30086.6237471831
-30087.039047655
-30087.24060717
-30086.6601442951
-30087.3625969659
-30087.2493262372
-30087.214908208
-30086.9192789872
-30087.7442169728
-30086.6073139647
-30087.1528714548
-30086.938556338
-30086.9089883274
-30086.9812999579
-30087.7938544572
-30086.9658590021
-30086.6143637503
-30087.2118984945
-30087.0019486256
-30086.3626675583
-30087.4517180119
-30086.7693809382
-30086.6076052624
-30087.7278384493
-30086.8404409818
-30087.6860340298
-30086.7897096003
-30086.9419792562
-30086.8856015155
-30087.316576961
-30086.9406502529
-30087.7276803512
-30087.0879558746
-30087.2719026944
-30087.5037324095
-30086.6396999847
-30086.7171344277
-30086.5732739015
-30086.9765966086
-30086.6373931409
-30086.9156869503
-30086.6826825204
-30087.3061260262
-30087.0344747843
-30086.4632124817
-30087.8856526939
-30087.1144008363
-30087.1677805644
-30087.6516451169
-30087.094464154
-30087.2780946417
-30087.0930094342
-30086.3345228384
-30087.745744347
-30086.3293638348
-30087.3880078955
-30088.0947726159
-30087.2583907526
-30087.8998607025
-30087.0795878342
-30086.8059790063
-30086.8516902981
-30087.1650047325
-30086.3187673192
-30087.5567129467
-30087.7855668263
-30087.4867668006
-30087.36385141
-30087.406966329
-30087.5894540752
-30087.4973528398
-30087.4377570825
-30087.2668611079
-30087.4264674933
-30086.9903607998
-30087.2413552106
-30086.9874313598
-30087.9144359286
-30087.25080259
-30087.0741967176
-30087.074994827
-30086.938431846
-30087.0247252225
-30088.9299080624
-30087.585938094
-30087.0634636009
-30087.1270194288
-30086.6404993187
-30087.7438187344
-30087.1353201212
-30086.3879058318
-30087.9024540821
-30087.1714935558
-30087.2997440076
-30086.6973442787
-30087.6127031975
-30086.807699173
-30086.5185801364
-30087.214005879
-30087.1826522583
-30087.2755642564
-30087.5146886594
-30087.3446279377
-30086.5126424794
-30087.3563602559
-30086.5913081008
-30086.4934549261
-30087.6328971633
-30086.5925854025
-30086.864630529
-30087.5675530041
-30087.8975998459
-30086.8448950748
-30087.0387596226
-30087.0293330599
-30086.9863562386
-30086.2754967512
-30087.1128496522
-30087.5927609369
-30087.4273417946
-30086.6014107301
-30087.2811533357
-30086.9762681674
-30087.8282304448
-30087.4731019309
-30086.7322970112
-30086.6891103902
-30087.4175579466
-30087.3583560739
-30087.6393712924
-30087.8145176831
-30087.5247046204
-30087.1033983271
-30086.7399816381
-30087.8814414623
-30086.9952812958
-30087.063851635
-30086.4900755461
-30087.8146719715
-30087.4993184532
-30087.4584967723
-30087.5951228838
-30086.6719574311
-30087.3895879237
-30087.8806279784
-30087.3318468933
-30087.0406037372
-30087.3858961571
-30086.6210812852
-30086.8426519056
-30086.6416061412
-30086.6427192223
-30087.3196142941
-30086.9328691617
-30086.570214255
-30087.488285195
-30087.1605570341
-30087.6322036815
-30086.7437676921
-30087.0180144905
-30087.4375585756
-30086.9966277144
-30087.7636288838
-30087.3515928239
-30087.3043971518
-30086.9498339542
-30087.7376848835
-30087.0357787531
-30086.9277898874
-30087.2486277213
-30087.2528314698
-30087.8004583846
-30086.6592063192
-30087.6089465318
-30087.138813925
-30087.4600427863
-30087.4970049425
-30086.9438391533
-30086.6860625807
-30087.7605988978
-30087.3536859225
-30086.8918931924
-30087.3823291547
-30087.1877960236
-30087.1087725726
-30087.0154273696
-30086.9304827245
-30087.3137834418
-30086.7795250648
-30086.7903505641
-30087.4823902599
-30086.9381597323
-30086.915631167
-30086.9355730194
-30087.1830669596
-30086.9613073562
-30086.9672624285
-30087.4079413124
-30086.6505463007
-30087.1716991377
-30087.4541811851
-30086.9586090768
-30086.9558088907
-30088.2899965077
-30087.6117743374
-30087.6705899447
-30086.8933924028
-30087.3062622191
-30086.7055248328
-30086.657982896
-30087.1169899982
-30087.1921286179
-30086.9919820532
-30089.7167229188
-30087.1842103813
-30087.3359216599
-30087.1161420919
-30087.0157529536
-30086.6157882655
-30086.6244546787
-30087.3890011105
-30087.3220737938
-30087.1380490134
-30086.6863549669
-30086.9604096531
-30087.1004178657
-30087.4244739884
-30087.2644881404
-30087.6539006673
-30087.3446901157
-30087.7790298389
-30086.971691351
-30087.0894888272
-30087.3385455163
-30086.6581502459
-30086.6306070334
-30087.791666527
-30087.7098564957
-30088.5127082369
-30086.8183767785
-30086.9353394098
-30086.6313362981
-30087.007468452
-30086.8379397126
-30087.6482918598
-30087.4122069668
-30087.4227444337
-30086.8954970662
-30086.6094182199
-30086.5870304735
-30087.2000608683
-30087.595223838
-30087.2039712782
-30087.6431319037
-30086.4031791656
-30086.6062468708
-30087.098027619
-30086.6889370538
-30089.2419004324
-30087.132993413
-30086.8317917118
-30087.4259978251
-30087.4778039196
-30086.9912455775
-30087.4729200229
-30087.0116033557
-30086.8853725318
-30086.7665834734
-30087.7242519907
-30087.5062852441
-30087.4220426525
-30087.4519782887
-30087.7836855683
-30087.1019200694
-30086.9886074352
-30087.1330943672
-30087.5982520553
-30086.9123994087
-30086.7746402158
-30087.3222288986
-30087.3969733616
-30087.0870739541
-30086.9323752753
-30087.4911453821
-30087.0010788142
-30087.6136926029
-30087.6925092474
-30087.0668172661
-30087.6860360707
-30087.2531294343
-30087.3058588106
-30086.7888848237
-30086.9548660168
-30087.0448738814
-30086.5027933241
-30087.3418927869
-30086.6442075482
-30087.3341594516
-30087.4800748445
-30086.5770639011
-30087.586057688
-30087.0075145753
-30087.2359993327
-30086.5486191758
-30086.5366849492
-30086.6770258209
-30086.9866886254
-30087.2681224909
-30086.9211320815
-30087.7193529917
-30087.5481355147
-30086.7723303786
-30086.4119775539
-30087.1711815774
-30087.1074009835
-30087.3443122858
-30086.8612526456
-30087.2838612752
-30086.3602377191
-30086.9767084474
-30087.4438127008
-30087.9130485569
-30087.1940394003
-30087.4071527269
-30086.6090757648
-30087.5231313951
-30086.6371040201
-30087.6530221482
-30087.1833268282
-30087.2342669208
-30086.450846955
-30086.2918479273
-30086.5895028985
-30087.0632140726
-30086.7244032649
-30087.5418892808
-30087.4258293867
-30086.8569465824
-30086.3627285118
-30087.3869356314
-30086.5564044848
-30087.5009217471
-30086.9830194443
-30087.4900961117
-30087.2160955762
-30086.9935501084
-30087.4697956134
-30087.2003543429
-30087.1084467165
-30087.3292223567
-30087.7125724626
-30087.8921692728
-30087.0116746495
-30086.8034780093
-30087.169026709
-30087.0391511942
-30086.764179757
-30086.5763872904
-30087.1398875496
-30086.9256365156
-30087.4771241796
-30087.32812465
-30086.7969617025
-30086.3218707759
-30087.3909222332
-30086.9859200403
-30087.1325521806
-30087.0740927701
-30087.0739018824
-30087.1148924097
-30087.4596635959
-30087.2082173403
-30087.0018065823
-30087.4756021116
-30086.9373183567
-30086.7087024405
-30087.3172526193
-30087.1848320251
-30087.1213571509
-30087.3753993712
-30086.7385897766
-30087.2615136655
-30086.9022132405
-30086.3665304844
-30087.0544352765
-30087.2285000152
-30087.8783450805
-30086.6390915385
-30086.3750683238
-30087.0670348211
-30087.5913590071
-30087.0499198218
-30087.0373874893
-30087.2647861049
-30086.8978688092
-30088.1902672451
-30086.8814485162
-30086.5784146735
-30086.8060947907
-30087.2820498143
-30086.6965151482
-30087.0615973091