-0.074192485798385 0.0968636904235247 -0.280619052814672 0.502975909672631 0.319115132106366 0.337201805054641 -0.489910855712681 -1.59425000042719 0.144882359570864 -0.291322292631631 -0.828926058889521 -1.09379299921949 -1.05089699336248 0.505681223020394 1.11835910589491 1.24130919550718 -0.518479139499986 -0.667164672900931 0.342361492211352 -0.732470916547121 0.592592178251758 1.24195582761796 2.69280519446014 0.157577689087354 -2.3121833929951 -0.608845655593727 4.88328779622319 -1.49078680582096 -1.60235539895296 0.470322916404627 -0.778313405103749 1.96731507649742 -0.618371073661389 -0.393390664493929 -1.04607566320687 -0.606838653503569 -0.31487538518519 -0.459749003009825 -3.60976706563258 0.157708815280793 0.537386251042893 -0.0542885580751627 0.0499755347517709 1.09424628447249 0.551391814053034 1.86584782824348 -0.0612976387797221 0.779985906845547 0.751793261035917 0.345769744800019 -1.18785727396819 -1.0137178324292 -0.0175233445368565 1.06900089269303 1.01676304543917 1.41195502387669 0.773954873277929 -0.649642871025174 -0.367410966031209 0.532915104956825 -0.00444877750012806 0.398096295067086 -0.4490100248774 0.463354201998832 0.728238368711075 0.351115579729376 0.0218564224545389 0.229540772487102 -1.15684850032184 -0.145352099875594 -0.950493409936481 -1.51480398225522 0.729300233767743 -1.11773509948025 -1.86822352633636 0.623832351063008 -0.421401533404028 1.34499813285427
-0.499506979080726 0.326109300420299 0.40969633520309 0.287123169119402 0.198436096742405 -0.0917837074236096 0.0376347601779313 -0.000598552506518993 -0.160199698735756 -0.122119109500134 -0.735588634628758 -0.346641605431293 -0.852155706832599 -0.959920354803972 0.444119274972329 0.407618370702366 -0.294013464919317 -0.687839159843242 1.6868117232652 0.0480855177949749 0.316803968669468 -1.42157942936488 1.25503810796019 0.445655251206842 0.576305276585971 0.959498951213687 2.45291650842928 -0.169945717340614 -1.57779572003213 3.36140479929358 0.0394502151815957 0.0150206340134648 -1.92145921821127 0.532915104956825 0.234775021596945 0.190048648345643 -0.742429822383679 0.562650926086098 -0.928404045655952 0.153993830243553 1.24869699951161 -0.637161200070934 0.759846723304686 0.743146902684659 0.665013689108174 1.23099367784651 -1.60041241729843 -0.083723560290077 -0.189305342805975 -0.12486221804483 -0.528343171678938 -1.89540187247322 0.41490718728626 0.0370794021821921 -0.67725650470221 0.325499949286085 0.54534998185772 0.111151560414833 0.393371124120004 -0.311939444003085 -1.23987529201541 -0.588388426756231 -0.507044164101604 -0.460746333410507 0.735624630054407 -0.205650608483352 0.917032062252457 1.52957059140767 -1.57952298624295 -0.259261938335932 -1.36627322918457 -2.79413206055405 0.0766720564052875 -0.559868222573188 1.3335798696178 1.71203526067909 -1.18271069943083 0.582177416060364
0.0101306554389439 0.446598845579232 0.173857648778194 0.320228419199677 0.63983874551891 -0.501097205563896 0.417468518931425 0.279809412847736 0.704736698194159 0.694329392198078 -0.198903523055486 1.29475057552866 -0.603629661306893 -1.27341428697476 -1.1480900419307 0.390234636994994 0.380981241501171 0.482671661394146 0.78105137144478 0.658111566239831 -0.177439964960896 1.41084327944447 -1.6945170583459 -1.77575230628284 -2.76431704948835 2.18065302234865 2.18806987980378 -3.31357304924944 -1.51901518994606 1.64361515560401 -0.696501973246225 0.457304399387839 -0.609147245838636 -0.0540589586815539 0.565307131388868 -0.901744290758634 0.808188837062507 -0.125483653357655 -0.760251157622879 0.847132545183174 1.28028632795167 -0.371707791413058 0.643964849739106 0.811727187403879 -0.432464727477484 -0.592295215990147 0.463065724373268 -0.563875798998923 -0.117987863076274 0.48321056433816 1.00327890188058 -0.391190572656178 -0.197295298859491 -0.0209315971255231 0.712425578223132 -2.37740453317065 0.513441579680301 -0.678186986455256 0.189995169427535 -0.18526331361569 0.616736624226706 -2.3614539316245 -0.122912808635712 0.556475396595514 0.258121397563201 -0.442439317035218 1.01769558407368 0.519900958813151 0.373069961163719 0.645886748358621 0.00393095759113784 -0.958425259088591 -0.502023830664194 0.0929766986737162 -0.109960368936009 -0.159026762079941 0.0356683814967212 0.704011904587682
-0.0644665217878178 0.164264353622165 -0.202323345602397 0.253092836599929 -0.0461782744559037 -0.0478469195449536 0.023528924196337 1.02237756050998 1.18958376884847 -1.52997759682769 1.33890153618993 0.10413733750661 -0.0151738716826595 -0.704540266014184 0.143750303434179 0.422388065177015 0.0671661787115503 0.521862966621247 2.88355575360595 1.03249381777867 -2.19588011583923 -0.448504803367387 -0.718333456012992 -1.22224576097288 -1.34775641089978 1.20771749296027 0.926577534914409 1.3987832691907 0.988088060925831 -0.889736730982238 -1.14807332976879 0.189313827442021 -1.29059670340868 -0.179326125264944 1.83707257075869 1.58228306405974 -0.160429812349732 -0.284648740716164 -1.80970524863717 0.00455753510762701 -0.459839762904499 0.348709542634872 0.845644134332556 -0.518484795924016 0.00898420113199879 4.24626877808357 -2.1555773232901 0.729892872740048 -0.0627778221044772 0.35368411045967 -0.885329605331791 -1.80347881133031 -1.02173992725562 0.703799017355982 -0.445687389979743 -2.26757503331789 0.660929750958025 -0.0925923189498133 -0.170463280139421 -0.811172086518323 -0.809025473598681 0.317099902490345 0.329755379928437 -0.834458812922074 0.470619621556055 -0.473827071091632 -0.251739922815864 0.465469447476123 0.683212719206514 -0.801163301306222 -0.0119556235193871 -0.0365404992381784 -1.09617718194842 -0.387232618495803 1.40960503680212 1.01299046772089 -0.707699635945501 0.522120333914643
-0.250430974873128 0.180483378199584 0.342094097620811 0.733427623538855 0.2301488380704 -0.0162197959079685 -0.408696690810759 -0.332755598656345 -0.525202313680813 0.597605055493854 -0.411985644274415 1.5039148517758 -1.40059075377869 -0.147772278030174 -0.798868335810866 0.184024042532605 -0.656329278449801 0.345749947315911 1.82307549238459 -1.11432916088323 0.826241571466598 0.665681918474344 0.539542377039314 -1.24537179351213 -3.17252934471394 0.19157382595246 1.84532915007219 -0.631794282106553 0.650493391511241 2.73226003762503 -0.156001089443894 1.51112422131308 0.176673776614922 0.85607817978769 0.131527542434434 -1.03851842359171 0.977308459384459 -1.02740612147326 -1.52740340967337 0.0612269334793387 0.633920583321722 -0.473247544738671 1.42655579696096 0.239820294722126 -0.173007899622677 -0.285632444277135 0.675069782593987 -0.193144254951523 0.901149080684497 -0.550803545953843 0.182195217799413 -1.63294585433124 0.60546774200668 0.219359980562432 -0.586915442516606 -1.1615785563624 -1.03318441573078 0.127036341754076 0.00220883358397967 0.528974634288908 0.948865388256379 0.619937646007703 0.800160314481509 -1.77790457562651 -0.297601951746416 -0.785147136663358 0.249467325906447 0.0420814807965937 0.107338102177424 0.111908492794211 -0.949875831276405 -1.87033594360164 0.414252584759801 0.916354576919692 -1.00493314879937 0.225779507616885 -0.519316033146343 1.07429299159409
-0.0800692532560759 0.323234808571982 0.0876714871533069 0.337905772736277 0.0238230582459323 0.34216043204808 -1.63161530913311 0.90394798213895 1.21790548397007 -0.0470398506798492 1.30659589877945 -0.388422010203345 -1.25997462347787 0.324747130669639 -0.341768596128864 0.0527314988056271 -0.876308894553776 -0.627317222486272 2.54496169690921 -0.768489482113378 -1.09862127135004 -2.64176393799895 -0.143427115933881 -1.07347898075404 1.46403346281695 0.329130345073047 -0.672909028614268 0.843059919881086 0.894769662818626 0.0998819068642577 -0.817913515522158 0.500130214164833 -0.487337439888906 1.31417345009909 0.307018355096395 0.196990109072018 -0.043508699423607 -0.338628252351105 0.343539313960649 -0.348298680562098 -0.0816453386791693 0.0764046618147464 1.78407496291343 -0.96311340616929 -0.037778227660164 -0.64688947807315 0.143466710902096 0.197588404468353 -0.0418649940223287 0.410857701900662 0.600891952076045 -0.799885206585472 0.278184219379649 -0.374274265261887 0.516259507288311 -2.04916276089078 -0.400712391181274 0.744563322683978 0.0168391743393277 -0.245049401628305 -0.576291135525894 0.403545231179911 0.731783403917211 -0.416514383041522 -0.112255591541549 -0.303466377915313 -0.609286085337571 -0.263323765010325 0.88120632932361 0.115337057087352 -1.12581684386917 -0.312846785839642 -1.0949751918419 1.09802734682682 1.35783204475951 1.33878995037042 -0.542146131864708 0.230126212374278
0.159477476231112 0.213905130915393 0.0996147693838998 0.230783128892386 0.573480664113197 -0.579909961354612 -0.478784412534155 0.797106616835493 -0.854246526842484 -0.79250383033562 -0.84273133306694 0.655364601042388 -0.906940744671545 -0.797227458621603 -0.177366945668864 0.411476051891288 0.6069147581178 -0.194752993367885 -3.07688615633012 1.1809268689797 1.33670247279291 -0.621023165201227 -1.59582839984193 -0.922596697947728 1.3500197518426 -2.59912478521497 -0.253660021664096 1.83662597037045 -0.231690727839126 0.0700627820356238 1.78429324945898 -0.226583748269974 0.777082104436344 -0.783617588183426 -0.185420665047816 -0.300307779314546 -0.512340119655418 0.855261083625441 0.215691532468354 -0.515288916346683 -0.605329159617928 1.48878006084098 -0.66677566519373 0.292106735800612 0.0501056325044765 -1.23702342586321 0.516001111554182 0.768645290884405 2.37825891030946 1.52181460562088 -0.621733817747626 1.44307975421567 -0.347140656296909 -1.09006490156291 1.54217618947022 0.796828166507074 -0.250080790803593 -0.888197926535711 -0.188142947667671 -0.10924097464338 -0.204464302098009 1.27120442495005 0.365234785440497 -0.302276214877221 0.58322308317549 -0.528167565423804 0.317118157313353 -0.0627857925201568 -0.156832840886587 -0.422562642991416 -0.0781666379003025 -1.31532607505043 -0.576867576556657 -0.975355964653142 0.597168482402759 0.53224404737864 -0.473245744967388 0.929835120935713
-0.0214846411296134 0.190292903019695 0.175048068926469 -0.100564020180321 0.0584853675957424 -0.110141117394808 -0.099191823132515 -1.25097062486176 1.28955874959905 0.224132974003591 0.649170045398246 -0.677359091665312 0.259107929336188 0.345918097375733 -0.0919055776504524 0.590362261632755 0.528790286287545 1.02187233899997 -2.01549366817872 -1.26300003900373 -2.60160384160151 -4.4851012554818 -0.355519877167808 1.45346520584618 1.96871915520795 -1.04714601289959 0.282588002597715 1.45399253883195 0.18674555382191 1.45260285829169 -0.112994011987735 -0.944431008926511 1.80403879730934 0.153792512970098 0.542193183028236 0.969608523617607 0.672858120797992 -0.32423908094761 0.924979852235926 0.0520267597934413 1.02905471196802 -0.957846761176362 -0.156783218621227 -0.65826428968866 -0.363920181073731 -1.26170111835814 -0.271157140962264 -0.18676072332272 1.44176437851836 0.621722504899565 -1.04483896322562 0.70502569004009 0.993110451244707 0.933537507573975 -0.411026623291032 -0.54280819058648 0.0243339361799758 1.08944860845374 1.18842394481199 -0.250237113794986 -0.536864060260788 0.88107108936724 -0.278368310270829 -0.80443245728577 0.476953016699131 0.620105281847158 0.374616478915743 -0.0423463042853027 -0.632883400842642 -0.940589525679131 -0.863893558026805 -1.4820424884899 1.27870638587583 -0.0259023082975728 -1.86031147466836 0.681672372098887 -0.102252719863661 -0.413519820737645
0.12473340584304 -0.0920762988121056 -0.086871103152966 0.242144056558002 0.0720265896150018 -0.103012223344871 -1.49881250018994 0.492648564943529 0.109719199584156 -0.00334551770396269 0.237206512599587 0.217623201274831 0.0378538180540285 0.738827194496504 0.0564997056507913 -0.388383700786046 -0.144532432611512 -2.46737381403132 1.4347460418472 2.17091857370204 0.393220714662825 -1.20988853134732 -0.221802270192769 0.461745720692654 0.762800405089432 1.43303934445104 0.812555853524373 -0.895518367672141 -0.206211108682755 1.90972188123743 -0.296987972628904 0.273428195210582 -0.317638034103809 -0.0898759498641719 -0.617116890187677 1.17452456830752 -0.552417940794235 -0.249973832967376 0.814692696257053 0.320176740052851 1.131048264767 -1.35473001039905 2.01143981192001 -0.177052242804611 0.455622384569262 0.270635207290343 0.417881180775481 -0.122173359748792 -0.912393280326935 -0.907704104805503 -0.89169359658667 0.502272199101178 0.606429848312261 0.332382788890687 0.0215247503181946 -2.17371824648704 0.667650096926837 0.499430103135945 1.13975195868911 -0.22593840171011 -0.257495334267078 -1.68720844427789 0.691696069701614 -0.560674262997559 -0.34316239043206 0.17546510164364 0.0254158558309345 -0.856825084869923 -1.49994584187754 -0.619618829380519 -0.256288459067078 0.38046573558383 0.351672223276031 -0.594792270089508 -0.451373124571307 0.680567055421256 -0.184741637053951 -1.13283646609124
0.0271937727478498 0.438035019596786 0.17028150323989 0.319628581142242 0.649845730959729 -0.518181920128192 0.344814066249018 0.338274468739004 0.558979135559639 0.593871815633607 -0.353730133182465 1.31007897043143 -0.656949171101527 -1.29098648244643 -1.1217776428909 0.421498721053282 0.369817260235896 0.427249761631383 0.229048663596433 0.806710453509034 -0.0210953763122295 1.161051737597 -1.90153986387705 -1.87513747627313 -2.40064755084325 1.99146877843897 2.19104593017447 -3.21616634211897 -1.82324672776661 2.09323813115819 -0.473066796279872 0.425356659352388 -0.495748028202157 -0.115022097112916 0.556525018860874 -0.825288464017429 0.734793907052447 -0.0741960853409499 -0.713295896193307 0.878551409571756 1.4334106115556 -0.549966395197303 0.730303477702639 0.829994865921136 -0.417572391445442 -0.916634312799027 0.58381855035981 -0.533316196842637 0.226840858453187 0.66156558444111 0.851975215483983 -0.0860131264715854 -0.118689516766261 -0.109114219323057 0.87335367010793 -2.2696103175282 0.479390421235987 -0.754766483194587 0.207863812940446 -0.170158090351948 0.584667528184778 -2.36917109377363 -0.0614421347026876 0.489392264473141 0.404761362346507 -0.444847925231554 1.05912091968272 0.525940219906633 0.221046623364307 0.495963229425506 -0.000918654684618712 -1.21423806431673 -0.510256755840846 -0.0166111176068181 -0.0789099434399702 -0.0405717298007691 -0.00468814708069902 0.846803701258845
-0.297986074360136 0.267818565233249 -0.0723335791737577 -0.0804981130416746 -0.189602305067586 -0.0080089822070733 0.181112012597539 0.442685885700919 0.856937184909804 0.55558913779398 -0.413703654518642 0.364446228508584 -2.07752047143803 0.585557129418694 -1.01516844808288 -0.848203409096254 -0.432362397624566 0.223459088213391 0.0374660958977438 1.74972787064824 0.526980744818094 0.734436009677415 -0.816887131670773 -0.525295644677319 -0.759997904092415 -1.05730752156052 0.248324471142067 -2.4049122374522 -2.51263343380261 -2.73510573313283 -0.67597840998146 1.45262651242854 -0.632502877771487 -0.729564800146269 0.509747934788268 -1.15756095263952 0.976583408667799 -0.0954033045828769 0.795787127375246 0.286861173842708 0.589656237069653 -0.780734868809246 0.626813800747542 -0.336611737184168 -0.693705385783421 -0.54966120540983 0.549591271439996 0.0576469312882861 0.665688860449291 0.434368114163807 0.125889373226764 1.83089138484407 -1.01069395956444 -0.0124022239076274 -1.72132568003929 -2.27704902934891 1.6907876751384 0.968380565382584 1.39340400993753 0.14186645712178 1.08928920014015 0.967107869975681 0.291372429117357 0.133654614980152 -0.0374897500345994 0.746958561150786 -0.539783289280984 0.145363412723655 -0.583210227666329 1.78186690066 1.54170953448769 2.72271765028528 0.290251685828733 -0.356884360910117 -1.63831251518543 0.526547257049198 -1.09273499081557 1.06116803096146
0.175089977886332 -0.0453388097077144 0.136967479690847 0.276636416076709 0.0638975369523682 -0.227427841001461 0.0298026697769083 1.05363418837296 1.65678999561219 -0.743261059606006 0.354573711693586 -1.43435009216505 0.758185020190582 0.366615724234532 -0.820377402407884 -1.00769656904854 0.30981262856755 0.0451997130985964 -0.702492897625262 0.786728107179932 -0.786991902227908 0.817336560271029 1.25934907440211 0.313989640604022 -1.96822267544416 -0.634206489845454 2.81691253700706 1.25001031832746 0.323564166716677 1.89912508503632 -0.529577043448175 0.689200558263352 -1.83878055370577 -0.0564732233019204 0.0405233930863252 0.341004721774539 -1.79325276801339 -0.0230748676127835 -1.84307249399414 0.578476057862835 -0.220481238071422 -0.755974643945503 0.22978708404262 -0.457768740378721 0.0735432825857731 3.249814351796 -0.944278285477682 1.39025800973574 -1.23813157075286 -0.381033691978547 0.652854691433866 0.217327267453953 -0.350893179420897 1.64633023913873 -0.355914541299039 -1.50096836907618 0.912503837705717 0.126805456809551 -1.58718949768598 -1.23227048701634 -0.0228455253293579 1.93719976073773 0.0466251319543272 -0.901032609771502 0.16191025278467 -0.406611784335088 0.639271560454743 0.533450665468457 -2.05666472181656 -0.204545806026087 -0.829699960540991 -0.721211290293691 1.06193241953615 -1.07738731264906 -0.414780946186303 0.112971643401796 0.171860931095365 0.606410050828154
-0.049256140459142 0.380122493489241 0.0964551423423998 0.315786583674495 0.00875717284022204 0.297864975463842 -1.57484615201031 0.85166359794193 0.885246044522247 0.161073616248496 1.18807993138686 -0.302332522007345 -1.21550793151161 0.247531543337039 -0.547784815292744 0.0335415660611863 -0.91373179594074 -0.541294582937908 2.53098518734978 -1.48952053816864 0.218101940435973 -2.77548308763509 0.403984118262655 -0.712678060423047 -0.564934578733393 0.249180390941982 0.93659506187274 0.732767364588365 0.726817834948825 0.675281898495137 -0.681759789561179 0.540129616697771 -0.501971637297002 1.29665036267242 0.302752382936531 -0.119281127297834 0.0693894104657899 -1.04287387009533 -1.68794635050371 -0.134983874627361 -0.0650023394096329 -0.279991703967634 1.81987421349341 -0.974485132462601 -0.0253142973085655 -0.264594146425579 -0.180584936721953 0.572829918239486 -0.0529646977418009 0.335447799384765 0.720217559435574 -1.17176269071945 0.52713963891132 -0.56483996218597 0.625541619561006 -1.20005509528017 -0.445897963219794 0.634250455686784 -0.455166528214426 -0.439393846915064 -0.561401627705868 1.24725152606159 0.925168314000221 -0.587975764912175 0.146186422420119 -0.445842684530403 0.782453907494205 0.1698341315211 0.890247094695916 0.16169813688352 -1.25268657822452 -0.505965329772844 -0.961509552846409 1.01411738165391 0.697923021228841 1.43296812493029 -0.764888911107668 0.20460365581731
0.0170906280985097 -0.0113730118442273 -0.0571491659735864 -0.0566904814067351 -0.0171898726292297 0.0440481165879871 0.234383699898095 -0.00559137515432497 -0.0358321606834276 0.0482009602672374 0.0811614573143632 0.0019203559584151 -0.107917628530385 0.00977738604720974 0.20934631025685 0.050245243333961 -0.00177688847618246 -0.269899872166355 -1.00731630308757 -0.192464455627109 0.700873360581206 0.238527544720933 -0.414744950760653 -0.116482225843381 -0.0251494896811262 0.92321710481982 -1.31424209851801 0.838043443096424 0.550211935422271 1.02397524318847 -0.292508341906791 -0.0670237396700505 -1.04447823763857 -0.106801256114876 0.0044168958374097 -0.0395438032882851 0.255058443950589 0.168937845422421 0.235765667132863 -0.106915155926039 -0.0688746758789982 -0.173841450836652 -0.0363037007594396 0.0955542282604228 0.0185145042931412 0.342567180357922 0.0600151731858576 0.188949759422592 0.0132332040197706 0.0551876723858573 0.0586666302749073 0.780167683745079 0.228064188704912 0.438761098754178 -0.0310162298416719 -0.0808038170495144 -0.114702252045 0.145169551645513 0.2143874696191 0.162581824583221 0.0938655285770822 0.412398049008288 -0.0404742850413316 -0.224596543663924 -0.228825749067588 -0.105821152096469 -0.565530560138079 -1.47875944856046 0.846330104301367 -0.624048837837273 -0.367633109229504 -0.66238190927281 0.267385591684718 -0.0855883804489182 0.0824698910367322 -0.139145202942658 0.217320068368823 -0.0373537387476799
0.162605992940443 0.190711221287782 0.0899222296971502 0.220029495479518 0.555682468790486 -0.570621341765689 -0.553871898880303 0.790450805522668 -0.925832686713642 -0.87560492687214 -0.793162546625011 0.559993692342595 -0.916806833731963 -0.694717371464546 -0.0628971212294879 0.369049786339006 0.625853751323426 -0.253979609621829 -2.91202864951528 0.987792898435503 1.40027065160059 -0.363452240540284 -1.17981718142895 -0.860760670444359 1.56490267278475 -2.9422002724051 -0.536589209474933 2.36637347787009 0.0341573449499806 -0.271690901702614 1.88118496489248 -0.265451608886593 0.795879172820836 -0.815646832146955 -0.292230148688554 -0.308558702204022 -0.657736956702891 0.896227220447258 0.261408808365758 -0.654560874609665 -0.798047640106051 1.63241852134547 -0.930486895250157 0.208609689581946 0.0882486995146192 -1.01566364229575 0.408350877614338 0.9035229790061 2.07792721974788 1.29763278068247 -0.522652551993893 1.42048645397605 -0.419020693107479 -1.13321878893368 1.43078885901738 1.2036170997584 -0.323005466288556 -0.829843685133407 -0.246409257387316 -0.119876337371971 -0.269130598498182 1.69763606197845 0.359450577648763 -0.344895827287279 0.479687640607781 -0.543729930593298 0.19961931780555 -0.163967648470738 -0.084987256840567 -0.426673834820986 -0.074389689308909 -1.11212341262145 -0.643340586214266 -1.0051624910828 0.715154802817934 0.516775270315835 -0.501833054908251 0.824253595529998
-0.238654042931074 0.172526846469886 -0.206537638615435 -0.433672116897851 -0.685245689425176 0.489724707940035 -0.68976774332752 0.406801788760482 0.345144967054812 0.721317733909541 0.303365590723493 0.0898592377022631 1.0742515968546 0.134304589523314 -0.153685812244065 0.267882842779052 -1.03836467170214 -1.46684650533148 2.34234190326557 -0.26623168118246 -1.67663761620529 -0.561039873678088 0.54635836799628 1.4805445645625 0.103226653237671 0.130352548897152 -0.445384514183919 -1.46012178848956 0.456942388249876 -3.16016543022361 -0.622193016534844 1.94673392055162 -0.288755304562436 0.26874621877428 -0.36709574894659 0.145207861062811 -0.197599974426598 -0.270780217433675 0.239717450648841 0.149108993872697 -0.746327869871366 1.29241832905674 -0.914500298278363 -0.186857653861791 0.376959009794993 1.45360815910805 -1.14321266175515 -0.0356989776085235 -1.0942354858448 -0.68449852723276 0.0266713248555617 -0.707243779590665 0.403218187026865 1.01567958312711 -0.614775644859343 0.185180524136695 1.25367439554843 0.607351845429262 -1.31346125489159 -0.48239346817591 -0.546075546794746 3.88744297818002 -0.468124624338159 0.22434817522694 -0.498280306396619 1.49183967202121 -1.35068001079309 -1.60870884869033 1.21443269672542 1.57203670903835 0.109212692523227 2.04608412355699 1.45710357204882 0.261634293996435 -1.05276258485187 -0.810764823988114 -0.135009585645683 -2.07096519020685
-0.362560325314719 -0.129954285223356 -0.101756240099878 -0.247930835451569 -0.678013179971405 0.452180193436411 -0.397462518465467 0.0235430652564137 0.419590963493845 1.56553413539472 -0.272429065038617 1.28583733680723 1.30135239370301 0.235443508073298 -0.0950063264599967 -0.704825144097184 -1.15326438436785 -1.31867416385623 2.78831854220143 -0.460739134325377 -2.79971957905563 -0.611966201887379 0.0496677738624654 -2.30506632601359 -4.15394771037705 2.8670109704264 2.21889301989786 -0.742198166108605 -0.0605890431147881 -0.0230702396294857 -0.33915044313321 2.55828540371348 0.125449971923654 0.568168767728024 0.146451245908828 0.699183632457132 0.390680723162867 -0.472534578200622 -0.0794388190868386 0.401011667434534 -1.28676936122137 1.73262001616746 0.182502721578536 0.257569639110027 0.172621205907125 1.08343248727675 -0.150540326262641 -0.776962805311333 -1.95961719761204 -0.697147062695905 0.863262352527018 0.177560292526639 1.11383885176384 1.07834941895464 -1.00397104249379 -2.68872434163219 1.15392181510633 -0.0233304351348969 -0.449834320124779 -0.037690038867322 0.695154972996374 -0.613963948010941 -0.224060468931925 0.891032823415813 0.69108106214337 0.81915895724964 0.296835763400442 0.00494525726391165 -1.11815007531595 -1.01812804340184 0.127722311722887 -1.4336769777054 0.856845139464214 1.72511188459728 -0.298209503109347 0.366657890304579 -0.686168457872726 -0.409587320485408
0.167208779440316 -0.173062406981518 0.159317553697154 0.0379186098201981 0.270571443964906 0.019089916883171 0.0849402056770391 -0.827671618305627 0.430153564040586 -0.587417064484054 -0.0521694559451243 -0.826158010657054 0.735047931913461 1.0014009691024 0.698567853568338 0.953738140448625 0.209064774606232 -0.736561539562034 0.540875750449454 -2.03315996597744 0.36999209516048 -0.501853366612724 0.781247803624755 -1.05984211374663 -1.68255706395339 -1.85379758817667 -0.936670395156421 0.364701281810331 -3.39976769551037 0.239915939710281 0.442374782379232 0.734565078989388 1.13849109035064 0.105205373207675 -0.209459695847647 -0.141931505998133 0.757176634052023 -0.0358660992276117 1.30546281420203 -0.879035033826379 1.12984678888085 -1.2329006640754 -0.591253148417586 0.909832205791954 -0.34103840320854 -0.22447544476763 0.823586394604561 -0.584100086010428 -0.0852214842174738 -0.220521347260003 0.3766234810059 -1.80046882241544 -0.620789966265053 0.232210861739766 1.60271226788726 2.27111261232871 0.30839929389043 -0.679644801194072 -0.436520126397297 -0.269416762132098 0.88376971785024 -0.0253086408845348 0.650545841988617 -0.230337042724512 -0.438624316136709 -0.6113180271155 0.0109174125995745 0.751505040520535 -0.0399698348618684 1.11964182859895 2.75541203829278 2.07830722859866 0.101450021871671 -0.561198767771313 -1.63718611547278 -0.645415208282609 -0.750227717130335 0.41001566605064
-0.164290064640486 -0.340953299737897 0.129644210342402 -0.245085139943771 0.00458633144814682 -0.0168299183727321 0.915115048726424 -0.245273601708066 -1.24507688813198 -1.41851210487916 -1.4525781757141 -2.3270212216683 -0.38743804953219 1.10233522794655 1.41355424921627 -0.227226266617822 0.355285135570535 0.786354268973541 0.763134648327609 3.00721932397664 1.59374683579864 1.56725163141858 1.80875908316294 0.152070131852756 0.859002293901368 1.26862175315968 -0.263772165169848 1.08413259830564 0.386254314248679 -0.252286024845007 -0.397273542480806 -1.0725744671295 -1.56157952366672 -0.520499768429854 0.287818652164992 1.05015625892464 -0.858701217876826 -0.0132743416490847 0.0102422412584582 -0.800579661190329 -0.440275220623117 -0.195959611457701 1.32344767151775 -0.623210144419634 -0.628773751674171 1.47733017305198 -0.589692232495303 0.552146689550946 -1.3484943171256 -0.670238939361605 0.206696018488294 -0.21144870022498 -0.678432269570041 -0.418532697979742 0.430952148269644 -1.01971595589337 -0.792343907801662 0.183875175736525 -0.131825790246961 -0.0321683405726477 -0.53500515363616 -2.02489824446027 0.627946628214776 -0.731058353200551 0.615742893368589 0.164204446949476 1.0685342377105 0.238102798698266 -2.25830132611959 -0.713587973361436 0.0296648587187063 0.429723675814254 -1.23467395300901 -0.349093151028225 2.19751662215538 0.121097867852414 0.547645461573443 0.678642842810092
0.156462859332944 -0.0875272483405246 0.0549207920156826 -0.593287147076982 -0.39159089321144 -0.532084639065048 -0.773801892718917 0.601446024520868 -0.0726246279011544 1.18605878823662 0.576574213837611 -0.30527566227458 0.42358414174932 -1.20645302507923 0.0765087914389475 -1.17862316173811 0.303862584707643 -0.483356345812042 0.818297123915511 -0.133364851803672 -0.226630028102952 -2.03240534758971 -0.795939850824074 -0.994484190953612 -1.69251031336592 -0.104553598893231 -1.98549353778111 2.28682641539612 0.68378221826233 1.95445853889606 0.311180197632058 -0.123180203226253 0.613494207706212 0.656156757516866 -0.186919360305762 -0.773880825545164 0.858211937198172 0.339528909322899 1.67482498941364 -0.141727617622845 -0.464775249981448 -1.14757145069116 -0.733392142333572 -0.191936865531157 -0.132635687324081 -1.42727416281286 0.791106179379677 0.122088770498515 0.00922871291623399 0.203782188781945 0.48429094132802 0.927873370237801 -0.48650620266658 -0.828174268713807 -1.40300553261942 -2.5632013504165 0.023353575051386 -0.233493584443813 0.488295432431556 0.851076615393655 1.45790729848155 -0.223286567280455 0.0204348602515563 0.684721955981972 1.38907376023186 0.0698470665919084 0.601604918614093 0.172434029693746 -0.196219549852929 -0.557179878497516 -0.752839442371409 -0.0614485624572679 0.289284180209304 1.66512987862506 1.11821409575157 0.0993021234011132 0.497059547246725 0.676365360807195
-0.11081114653226 0.19585625316405 -0.0355030596489154 0.330152100941134 0.197191940565839 0.431966705052601 -0.388920803958777 -0.354335370553747 1.35629375453335 -0.56415244955606 0.026272546961399 -1.44215004379318 -1.72436832194743 0.635684873398927 1.63037320983801 0.933216634065326 -0.439830677116343 -1.04030225404283 -1.21129338138839 2.51649908540721 -3.11717917869229 2.25175658640592 -1.40862133324115 0.472554632794913 1.95350928809964 -1.05596874883653 -0.511863180265558 0.744353777884659 -0.67069556704699 -1.94789425880846 -0.671347341361434 -0.237978871589958 0.71926728019842 0.468400503564746 -0.325110170248335 0.521182395966283 -0.275080128137723 1.24656889852516 3.03629154372305 -0.344102385261885 0.79851892307188 0.625053624433268 -1.36620792319803 -0.00269348627933547 -0.114705080257015 0.186848397895196 0.651907754629094 -0.255073099231032 -0.550700444770375 0.461297577643314 0.0277735562109943 1.06278268291203 -1.11277184450351 0.657668308283973 0.925302268405675 -0.995773084302057 0.464916917692399 0.199592578346496 0.607551620041618 0.554215140974892 -0.368270742483872 -1.5166942563222 -0.151997112560724 0.845780145619475 -0.775530958701022 0.296073431707217 -1.16199584618975 0.0648167058573533 -2.42272945892847 -0.0148722814377511 0.10960427133226 1.30140073041745 -0.117941840353479 -0.220337513479006 -0.126659418225486 -1.03162992756307 1.60457194584244 -0.92897534448305