2.86530570968372 1.41714537181692 3.19215573651691 1.41714537181692 -3.69078095993398 3.78859739132201 3.19215573651691 3.78859739132201 4.61168687495306
-11.5834237083258 0.978113676454416 -1.66255641857385 0.978113676454416 -5.04687710538586 -0.667864544213427 -1.66255641857385 -0.667864544213427 -4.67268349550741
-9.59348861421109 4.90538137329435 0.598896646938265 4.90538137329435 -4.1588497389713 -3.38167688085141 0.598896646938265 -3.38167688085141 -10.894347842677
1.33129115773451 -2.74369039020495 3.82606366340507 -2.74369039020495 -1.64453613602499 5.14337067032304 3.82606366340507 5.14337067032304 -0.685223390010411
-8.51830253476384 -0.00719248736399986 -2.46942066163995 -0.00719248736399986 -6.23588654458788 0.558616518603989 -2.46942066163995 0.558616518603989 -2.76671013935195
5.81651959466665 0.246804585004215 4.29297590646755 0.246804585004215 -2.07885400445858 -0.123402292502108 4.29297590646755 -0.123402292502108 -3.78750113141084
-9.70116408909966 2.71765297793815 -4.54785264365031 2.71765297793815 -2.90564931822278 -3.77098541394469 -4.54785264365031 -3.77098541394469 -11.3240148500861
-5.01233661741371 2.74432352920276 0.365540570993707 2.74432352920276 10.6422152600668 -2.61139968520504 0.365540570993707 -2.61139968520504 1.93016498471677
3.60453613254971 0.372149748198348 -4.1680771798215 0.372149748198348 -5.44136096115727 -1.27594199382291 -4.1680771798215 -1.27594199382291 1.26265093138725
-10.4228568889376 4.83540340972625 -0.18940520268513 4.83540340972625 -4.77412525591636 -3.67390385796597 -0.18940520268513 -3.67390385796597 -11.0189262032702
-6.82990457820816 -1.7331565857661 0.727794631853862 -1.7331565857661 -10.7879708793714 4.25748931787184 0.727794631853862 4.25748931787184 4.35583994379804
1.66454753500795 -2.81534583081591 3.1030454047679 -2.81534583081591 -4.83694908706784 3.56541972004788 3.1030454047679 3.56541972004788 -2.63296485089991
4.22693514459002 0.104544770299022 3.96319720133567 0.104544770299022 -0.784085777242668 1.21176892846594 3.96319720133567 1.21176892846594 -3.57353033022113
-4.79154227476292 -0.0259758338498407 -2.02012061709146 -0.0259758338498407 -0.597444178546336 -0.659386551572879 -2.02012061709146 -0.659386551572879 -0.757295463776125
-9.12621778752397 2.25048940902633 -4.28283321889551 2.25048940902633 -2.0930932172294 -3.63391909482044 -4.28283321889551 -3.63391909482044 -11.0922895166365
-4.20597690636331 -0.363306975300485 -2.80864238597683 -0.363306975300485 -4.52456917701142 -1.85845491211402 -2.80864238597683 -1.85845491211402 0.42478969419749
-9.4067309196377 -1.07996940714066 -1.88078223123452 -1.07996940714066 -16.8593657579478 -0.35810996007014 -1.88078223123452 -0.35810996007014 -8.64821454752063
-5.19219336401641 2.7521946061716 -0.418475286055054 2.7521946061716 -2.28057960125241 2.80754847998841 -0.418475286055054 2.80754847998841 -12.045002942537
-6.39255209577703 0.801504137389545 3.26167655909912 0.801504137389545 -3.51214660203335 2.22640038163762 3.26167655909912 2.22640038163762 1.21060520751546
-0.144374512645491 1.59044826027211 1.73249415174589 1.59044826027211 1.49963203457575 -4.15891741265883 1.73249415174589 -4.15891741265883 -3.1692534146857
5.29141614734515 0.200969782182456 8.24921847099518 0.200969782182456 -1.78272018547732 -1.41388152641305 8.24921847099518 -1.41388152641305 8.1002643971423
6.21507458336768 0.358197046598672 4.42646151624584 0.358197046598672 -2.36267720802832 -0.531365155219222 4.42646151624584 -0.531365155219222 -3.45150134305343
-7.07597685724513 1.65200097145245 2.64996742860973 1.65200097145245 3.03336697147241 4.25404345720434 2.64996742860973 4.25404345720434 -2.14534597145958
7.74561852463152 -0.934899546750395 -0.753248080412883 -0.934899546750395 0.884037136175892 -2.19919375245948 -0.753248080412883 -2.19919375245948 2.56007466558334
-8.81489374426653 -0.225592162254575 -1.40395122254177 -0.225592162254575 -9.47007098145268 -1.16635947718855 -1.40395122254177 -1.16635947718855 -4.43024608002069
-1.83562332443192 -0.950205015000054 -2.81942144602289 -0.950205015000054 -1.0125922129546 -0.909413385568234 -2.81942144602289 -0.909413385568234 -11.8319720428416
-12.4669302073741 2.68712565943591 -1.91835543091705 2.68712565943591 -9.56797621871777 -1.96357720906521 -1.91835543091705 -1.96357720906521 -8.38030951893166
1.1652838779833 5.28931459645726 2.27685727662067 5.28931459645726 6.69746325061342 3.94421737457673 2.27685727662067 3.94421737457673 5.01375648503034
-5.55555418375507 -1.94730765203786 -3.90654733625732 -1.94730765203786 2.16208423130674 4.81576818849559 -3.90654733625732 4.81576818849559 -3.69892997629741
5.87648788115433 0.473337727036193 -5.76052013803047 0.473337727036193 3.81036870264135 -0.362103361182687 -5.76052013803047 -0.362103361182687 -1.63064846963968
-8.13573651854401 2.57332987679057 -4.48719917234234 2.57332987679057 5.87063278298462 3.29252420633 -4.48719917234234 3.29252420633 2.97235131543869
1.9380423385841 -2.99084055421264 3.07741016876034 -2.99084055421264 -2.38206068416749 4.52954563859281 3.07741016876034 4.52954563859281 -0.544550801187175
0.279510869267579 2.15223369336036 1.23683559650904 2.15223369336036 0.994592843143801 -3.67090941638087 1.23683559650904 -3.67090941638087 -4.28117481428175
-3.04493554846909 -1.02296418504823 2.72630735968358 -1.02296418504823 1.73209158264607 0.735480104940999 2.72630735968358 0.735480104940999 -8.74670313726251
-9.61019765224875 -3.66286924026497 -1.63254579260679 -3.66286924026497 -1.52205199953695 0.428163448145604 -1.63254579260679 0.428163448145604 -1.87286979253368
8.05929496477895 0.702991461102214 -2.93521759408262 0.702991461102214 11.3756800069267 2.0610431473224 -2.93521759408262 2.0610431473224 2.21853149412777
-4.76081110994576 -4.37967559238023 -4.2105326112121 -4.37967559238023 -9.19235721655089 -2.13796728196522 -4.2105326112121 -2.13796728196522 -1.75457652465078
6.08068588738703 -3.19198367770865 0.88833508011703 -3.19198367770865 -4.52771269648026 -3.176927150927 0.88833508011703 -3.176927150927 3.46300115977825
-1.19221652419708 3.13303412172721 3.45465532360363 3.13303412172721 15.5293133768089 -3.08867257664081 3.45465532360363 -3.08867257664081 -3.38256781283823
-4.02566069449913 3.36163418819 0.398415903785481 3.36163418819 1.75759515888699 1.22637395383968 0.398415903785481 1.22637395383968 3.76420025763991
-1.76777671246119 3.02054795493368 2.87953455243678 3.02054795493368 2.72012809744028 3.54985913242206 2.87953455243678 3.54985913242206 12.1332836322336
-1.0056464261696 2.09430611865036 2.62321921543296 2.09430611865036 -2.04924177408144 -0.158911109795667 2.62321921543296 -0.158911109795667 -3.12129881329997
0.712895118909976 2.75140240337478 1.02973739398108 2.75140240337478 1.55392498141488 -2.45552763180103 1.02973739398108 -2.45552763180103 -3.56447559454988
-0.0516641000282907 4.46189954789784 3.31824424272613 4.46189954789784 4.23410783413674 1.49121379627112 3.31824424272613 1.49121379627112 5.06308180277249
-12.4037019717446 4.34547403052456 -2.39001071678851 4.34547403052456 -7.14854354252228 -0.102667793028877 -2.39001071678851 -0.102667793028877 -5.78043550983515
7.96168260652228 -0.475836853254874 -0.995823517636489 -0.475836853254874 -5.64381752236838 -1.49128250916992 -0.995823517636489 -1.49128250916992 0.748094021869777
-3.36422945824076 2.02645350896385 2.27448297490474 2.02645350896385 -5.63079659912611 4.42495121683903 2.27448297490474 4.42495121683903 -1.77578543168316
11.70442113026 0.297769249910653 4.18705357549804 0.297769249910653 2.46573835013733 -1.17540493385784 4.18705357549804 -1.17540493385784 7.75767256346174
6.63046242747921 2.11953078394339 -5.82013123112725 2.11953078394339 -5.52978454839528 -2.53129517036328 -5.82013123112725 -2.53129517036328 1.32239716407925
6.89953579230258 0.69895709434384 5.03722977144069 0.69895709434384 -2.7673962243851 -1.54007495363897 5.03722977144069 -1.54007495363897 -1.31735642188195
-0.588960895665068 4.3394194293813 5.28397935639132 4.3394194293813 8.72051062024834 -1.76132645213044 5.28397935639132 -1.76132645213044 -5.58957227395338
-4.14738707813755 5.04366804401694 4.172438409482 5.04366804401694 0.910198372181864 -1.86493244453165 4.172438409482 -1.86493244453165 -8.9043565523235
3.1015813334105 -1.80679846043101 -1.09641034171555 -1.80679846043101 -1.94351466441021 -0.927525619153012 -1.09641034171555 -0.927525619153012 1.57893812046568
-10.2522754906373 -1.43074239839763 0.92074751650252 -1.43074239839763 6.68506804646291 -1.10269163652996 0.92074751650252 -1.10269163652996 5.97934539908373
-1.34289958177375 2.41721924719275 3.44881028955531 2.41721924719275 2.63086236247494 3.58513494406871 3.44881028955531 3.58513494406871 14.2062498180975
11.1901745808448 2.8609667150874 3.99298856733137 2.8609667150874 10.9130317544951 -3.38966995304691 3.99298856733137 -3.38966995304691 0.315516448459713
-2.45084705301674 -1.56442143266855 -1.06131499949796 -1.56442143266855 -4.62378769532973 2.79104283163686 -1.06131499949796 2.79104283163686 -9.70995416019242
-1.43779309134455 -3.2914318215846 0.0462050709883883 -3.2914318215846 2.36189451111232 -1.48399816233294 0.0462050709883883 -1.48399816233294 -3.38655990891363
-5.67914311885083 0.249421826165746 -0.592034224745068 0.249421826165746 12.1229971113307 -2.52710905192108 -0.592034224745068 -2.52710905192108 10.5387573802999
-7.06266481953149 0.815029851170825 2.97082553259536 0.815029851170825 -2.99307890737136 2.30878763300951 2.97082553259536 2.30878763300951 1.4130892982757
-0.989641854971199 -1.58398767155447 4.31461420623421 -1.58398767155447 -0.0224281440220102 5.63507118553006 4.31461420623421 5.63507118553006 -0.961606674943687
3.44681136792681 0.0425860863990957 -3.68901973432167 0.0425860863990957 -4.96926395669448 -1.19241041917468 -3.68901973432167 -1.19241041917468 1.36807802557095
-9.74496448899874 1.28327841525573 1.33849693570563 1.28327841525573 -11.1718110574242 1.26339974789376 1.33849693570563 1.26339974789376 -10.5666160732933
-11.5965890534732 4.68875293302495 -1.70120430052152 4.68875293302495 -5.64376614919333 -4.12632532466922 -1.70120430052152 -4.12632532466922 -11.1455332487523
-4.4877142746034 -1.93276782041282 0.752635444085991 -1.93276782041282 2.10537221558988 0.297040121932604 0.752635444085991 0.297040121932604 8.13448387968139
-0.775430454464911 -1.92219380261725 -2.02594858173579 -1.92219380261725 5.01572445370437 0.595224785469545 -2.02594858173579 0.595224785469545 3.93995121758052
-1.05824214433575 -4.39949399091868 -4.22759678980831 -4.39949399091868 -0.636556822861861 -0.719819529649699 -4.22759678980831 -0.719819529649699 -9.81425582589552
-2.91863820835501 -1.74878075364811 -2.00581308969254 -1.74878075364811 -1.88330235008258 3.83386549838239 -2.00581308969254 3.83386549838239 -5.17908146272708
8.49500359286481 2.08528786996765 -8.31984887960987 2.08528786996765 1.20241343693935 -1.03909350160704 -8.31984887960987 -1.03909350160704 -0.73138927561862
-4.88653461257647 -1.74699942107656 4.89216101972969 -1.74699942107656 -1.52756954210076 4.01162830024988 4.89216101972969 4.01162830024988 -4.67273114075389
-9.02194272057375 -0.273464895013403 1.5904142578411 -0.273464895013403 -9.7895634785061 -2.45638642538355 1.5904142578411 -2.45638642538355 -8.54217974686602
4.5460494549366 -0.0266943596884122 4.78629869213231 -0.0266943596884122 6.09165288089566 3.160612187108 4.78629869213231 3.160612187108 -1.04108002784808
-5.65220709279744 0.829732863868787 3.50826647139152 0.829732863868787 -3.91199554944848 2.06041046732518 3.50826647139152 2.06041046732518 1.09146067998847
-10.2294014645005 2.36755251047538 -4.22335376571736 2.36755251047538 -5.14000711300356 -2.65716997909648 -4.22335376571736 -2.65716997909648 -1.28218995816719
3.87643699175866 -1.08147961049064 -0.961617890436265 -1.08147961049064 10.4061766047211 -0.288757780131003 -0.961617890436265 -0.288757780131003 8.08521784366809
-1.45524926773417 1.53632165033774 3.62798912150997 1.53632165033774 2.39163528680545 3.19830549371102 3.62798912150997 3.19830549371102 15.2476883581673
-1.57932239014731 -1.07768351546526 -1.76173652639533 -1.07768351546526 -0.746457847014915 -1.36090546385034 -1.76173652639533 -1.36090546385034 -12.1281398744899
-7.12758941170789 -1.07857240011226 -1.74599187485535 -1.07857240011226 -15.0943813697172 -0.504084750966302 -1.74599187485535 -0.504084750966302 -7.98650476949963
-5.02787629741951 2.67444939114168 -0.633189177041822 2.67444939114168 -1.32394100654199 2.86263498571705 -0.633189177041822 2.86263498571705 -12.3228355224293
8.13576209437596 -1.11694360956687 -4.09086342598565 -1.11694360956687 10.879858122818 -2.32122025856489 -4.09086342598565 -2.32122025856489 -4.68610703684536
-8.63743628283008 -1.0868007093566 0.138041219131987 -1.0868007093566 -11.1375161404427 4.48962631748321 0.138041219131987 4.48962631748321 5.26966876210206
3.33714003474242 -2.56542640170823 2.3672837121454 -2.56542640170823 -6.20238761144704 0.977677744553442 2.3672837121454 0.977677744553442 -6.33274464405416
5.59235318795634 -0.683391926573792 1.74031484406991 -0.683391926573792 0.169786814055601 -3.31933221478699 1.74031484406991 -3.31933221478699 3.19835910977238
-8.11962970449806 2.15599234426177 -4.36456986765188 2.15599234426177 4.65617858827266 3.17184239560463 -4.36456986765188 3.17184239560463 2.2372603483692
-3.96966087198568 -5.32377639722453 -4.21832983321485 -5.32377639722453 -10.1637786335123 -1.58017821726537 -4.21832983321485 -1.58017821726537 -2.9094268463813
-10.5088707645683 -1.05794000985587 -1.97764252509058 -1.05794000985587 -17.4743477894594 -0.352646669951957 -1.97764252509058 -0.352646669951957 -8.683571600897
-11.1371837581117 0.458339764334676 -1.42463339120521 0.458339764334676 -2.45707914901064 0.304772317521512 -1.42463339120521 0.304772317521512 -2.54685704099372
2.88365086908651 -2.62576339298934 0.166454643662717 -2.62576339298934 -5.55395846249263 0.0328220424123667 0.166454643662717 0.0328220424123667 -10.9109846705111
-2.9276714721114 2.68946925205314 1.68126450669027 2.68946925205314 15.90692267203 -3.54533536830898 1.68126450669027 -3.54533536830898 -1.47629980570991
-9.24853830946626 -1.05697580679614 0.478942162454503 -1.05697580679614 8.0594405268206 -1.54968067506831 0.478942162454503 -1.54968067506831 7.20340022496227
5.25561542584207 3.68702368416185 -5.76975171750053 3.68702368416185 1.75901259044261 -0.0809288607240174 -5.76975171750053 -0.0809288607240174 6.07442507552036
6.45305480012407 3.84998227125547 -7.71896507191874 3.84998227125547 0.363385124924175 0.0475013235195 -7.71896507191874 0.0475013235195 4.65275463873502
-6.29943534687234 -1.86285710748277 4.87489755879728 -1.86285710748277 -1.20256838914423 4.03759526915948 4.87489755879728 4.03759526915948 -4.50682172006389
0.0351897972845517 4.62628534967573 3.18819563398038 4.62628534967573 4.83273216041176 2.066814093846 3.18819563398038 2.066814093846 5.33946524130931
-8.67279555100596 -0.337901125363869 2.31977510178883 -0.337901125363869 -7.97302868145809 -2.08731829923354 2.31977510178883 -2.08731829923354 -8.91723466297131
-9.1789476781635 -0.216088226794328 0.0648264680382983 -0.216088226794328 -11.118939758717 -2.53543519438678 0.0648264680382983 -2.53543519438678 -6.62190366109729
2.60676781384726 -1.94574693671625 3.96079444926076 -1.94574693671625 11.2560127585654 1.51928185469625 3.96079444926076 1.51928185469625 -4.47788336121001
-4.50073449929597 -4.76481972317643 -4.23664927541552 -4.76481972317643 -9.61766785431301 -1.99756771909576 -4.23664927541552 -1.99756771909576 -2.14879600969396
-1.75274756543246 -4.9959995491029 -0.283650751047085 -4.9959995491029 -9.10625948880405 1.06235234118578 -0.283650751047085 1.06235234118578 -1.58683863557473
-8.16798595111543 0.205658713978408 -5.50276018482768 0.205658713978408 -0.705909639871834 -3.04319313251834 -5.50276018482768 -3.04319313251834 4.54672508200914
2.21732628842514 1.15497094139098 -0.719132850300046 1.15497094139098 14.6959156339725 -2.27180604981151 -0.719132850300046 -2.27180604981151 12.9689071980247
-11.7071666996578 -3.14897548528752 -0.326418190548097 -3.14897548528752 -2.35624559395643 -2.04902847344057 -0.326418190548097 -2.04902847344057 -4.86061372816157
-3.4817306778666 -2.43859861820298 -0.779574757354991 -2.43859861820298 -1.30668936197225 1.84490111616039 -0.779574757354991 1.84490111616039 -0.102648633530728
-6.35396871820338 -0.148277575964988 -2.61133286560562 -0.148277575964988 1.00773834035464 -2.95182211411782 -2.61133286560562 -2.95182211411782 -9.06964506319178
10.6552362624514 1.03563443003649 -2.89191082615253 1.03563443003649 -0.739364327266559 -3.67584676180041 -2.89191082615253 -3.67584676180041 2.49863192867032
-5.20632451460622 -1.67722127056018 -3.76118664382398 -1.67722127056018 0.0406744102703611 2.65340711704885 -3.76118664382398 2.65340711704885 -8.16120079012952
11.5562660588288 2.85065942662393 4.03061052162621 2.85065942662393 10.5918214025159 -3.58252782732155 4.03061052162621 -3.58252782732155 0.369134791022411
-7.77627168250588 0.842968367074053 -3.65509299903273 0.842968367074053 -6.74597701163759 -2.14533219345301 -3.65509299903273 -2.14533219345301 2.41740134896369
-4.68208142211833 -1.32707143188642 -1.35838164715779 -1.32707143188642 0.0939306458141023 3.58381540952267 -1.35838164715779 3.58381540952267 -0.375722583256409
3.44843865980347 1.51892687011302 5.34235060097564 1.51892687011302 -1.00154240498077 2.84561455822736 5.34235060097564 2.84561455822736 10.4188889996815
-4.77763512775383 0.0299726168616928 -2.55166878215878 0.0299726168616928 0.297727994159481 -1.05703428798903 -2.55166878215878 -1.05703428798903 -1.00108540318054
-13.0226438186209 -0.878153128272136 -2.37186053938455 -0.878153128272136 -18.1532040567896 -0.697439944319028 -2.37186053938455 -0.697439944319028 -7.73960683149172
-4.13428538914303 -1.45864266652018 -2.17478349375749 -1.45864266652018 1.55090620867959 -0.254823116440272 -2.17478349375749 -0.254823116440272 -12.4665619465392
-1.48198258280315 4.74067599189374 5.26618201093651 4.74067599189374 5.41076567755145 -1.5487135058562 5.26618201093651 -1.5487135058562 -6.85104143344644
-3.53017153800176 1.10422427255031 3.87315028932421 1.10422427255031 -4.37507041321071 1.18230073626599 3.87315028932421 1.18230073626599 1.1850891813987
-3.01584617130871 1.23591105817739 3.83606705416232 1.23591105817739 -4.27128629812547 0.820220882853616 3.83606705416232 0.820220882853616 1.32239693358032
-8.19102057190623 1.3324761853247 -3.97350618280848 1.3324761853247 1.63868256184456 2.76303410062841 -3.97350618280848 2.76303410062841 0.681787635219998
0.0093154014396663 1.78157052533618 1.54868548934452 1.78157052533618 1.20634448643679 -4.07083042913417 1.54868548934452 -4.07083042913417 -3.7517779298256
-13.8946867928857 -0.41223821819982 -2.98449175778911 -0.41223821819982 -17.0740034620158 -1.48801055473497 -2.98449175778911 -1.48801055473497 -5.79109990087555
-8.31941544487428 1.10555170185641 1.93054882610605 1.10555170185641 -0.811108283774053 1.94999320277187 1.93054882610605 1.94999320277187 2.39721386608564
-2.68244283789015 1.37890401864488 3.69568607426281 1.37890401864488 -4.04180773076476 0.452191196397715 3.69568607426281 0.452191196397715 1.47101704013331
2.34176257154882 0.842842970536997 1.89400224345104 0.842842970536997 -6.45301649317388 2.73205633347362 1.89400224345104 2.73205633347362 -0.979326065197818
-14.6780226992437 -1.71046201843317 -5.4894537886269 -1.71046201843317 -6.63251616809512 -0.809783950755799 -5.4894537886269 -0.809783950755799 0.319506592815213
-12.5316029363072 4.27826871058534 -2.27521767923428 4.27826871058534 -8.26527135940093 -0.50135961452172 -2.27521767923428 -0.50135961452172 -6.85430215853266
4.58467160251799 -0.189471294399754 4.7928231653797 -0.189471294399754 6.99175762432895 2.91145327028355 4.7928231653797 2.91145327028355 -1.323630451018
-7.66645751769042 -1.95590076494518 4.80416371533163 -1.95590076494518 -0.942873252541721 3.98195578975209 4.80416371533163 3.98195578975209 -4.23731729564881
0.895248741355245 -2.89890068629318 3.7062232119796 -2.89890068629318 11.9020122846246 1.35619526592208 3.7062232119796 1.35619526592208 -6.05625115803712
-1.39727145617827 -3.26477849857039 -4.47395572026312 -3.26477849857039 1.59073981164911 -1.09363362050876 -4.47395572026312 -1.09363362050876 -11.3313340975073
-1.30788201949526 -5.52097737737755 -1.77153691575076 -5.52097737737755 -6.27140148692401 0.581578684898508 -1.77153691575076 0.581578684898508 -4.51594508780639
-3.3932342650746 -5.63652656440011 -4.10176149987671 -5.63652656440011 -10.2046031133798 -0.953003085788131 -4.10176149987671 -0.953003085788131 -3.48604454183782
-1.40022073102017 -2.36703980720076 -0.180584022849823 -2.36703980720076 -1.84473524880435 2.24479831481011 -0.180584022849823 2.24479831481011 0.0583425304591737
-2.96351783340165 1.93467390633391 2.50780707222763 1.93467390633391 -2.73706033858511 -0.684964027531515 2.50780707222763 -0.684964027531515 1.61875172220713
-2.84725865099829 2.3806245943069 2.62316884976231 2.3806245943069 -5.79997132610762 4.42643266206122 2.62316884976231 4.42643266206122 -0.63008779406351
1.56193642524284 0.266464653308215 3.38750277343955 0.266464653308215 -5.07700206462781 1.92194718024436 3.38750277343955 1.92194718024436 -2.86307765788614
-11.7718402561526 -2.2466409213378 4.05790794984493 -2.2466409213378 -0.00558171657475231 2.94714635146922 4.05790794984493 2.94714635146922 -2.20756890531454
-5.09061155313046 -0.548831558071878 1.64649467421563 -0.548831558071878 -1.29386376975399 3.63766617234114 1.64649467421563 3.63766617234114 -7.69954997410982
-8.47291837601629 -0.636476873249354 3.26302397009737 -0.636476873249354 -7.372763780626 -0.668156717619231 3.26302397009737 -0.668156717619231 -11.8857016104076
0.559099452813586 2.53924334819504 1.05530021718564 2.53924334819504 1.26030334988396 -2.94924961359167 1.05530021718564 -2.94924961359167 -3.99290192551036
7.01787482492767 -1.41335153197362 2.44839242832122 -1.41335153197362 -2.63542240548465 -4.40795650723803 2.44839242832122 -4.40795650723803 6.27613093822271
-7.56211027218105 5.01912438691354 2.15582812179305 5.01912438691354 -2.54577119291841 -2.7323868055284 2.15582812179305 -2.7323868055284 -10.4031240760944
-11.9504271183533 -1.89471385837863 -4.14091086729706 -1.89471385837863 -4.93449391812521 0.35972103688058 -4.14091086729706 0.35972103688058 0.104346560316504
-0.285296718517689 -1.54408682006902 -0.152448628215559 -1.54408682006902 -0.235206454961148 -0.254806992874577 -0.152448628215559 -0.254806992874577 -7.68341086206418
6.15922437182526 -4.48620498257616 -1.94293628654102 -4.48620498257616 -1.50548476334376 -2.57584487329451 -1.94293628654102 -2.57584487329451 -11.6529639796377
3.85312852238319 -1.06127692173599 4.34376910931642 -1.06127692173599 9.77281386472969 1.9972271718097 4.34376910931642 1.9972271718097 -2.9678422459602
7.62438221361668 -0.884690827464607 -0.593034510718033 -0.884690827464607 -0.865247073014835 -2.02215046277624 -0.593034510718033 -2.02215046277624 1.71834179949856
1.13700440928316 -0.324858402652333 0.814500053026863 -0.324858402652333 -1.22410412593633 3.81120111517483 0.814500053026863 3.81120111517483 -5.96515356754356
0.0794794970459726 -4.90956207466837 -2.96799150397389 -4.90956207466837 -5.21612584898855 2.65234435856274 -2.96799150397389 2.65234435856274 -1.56233982764655
-4.75417961260517 -1.4615612625971 -1.60388558030318 -1.4615612625971 2.06096560062849 -2.49341256596621 -1.60388558030318 -2.49341256596621 -7.39539050849693
-4.83081940500127 2.40840851495715 0.364061752260965 2.40840851495715 -1.43664368392212 -1.59907123493086 0.364061752260965 -1.59907123493086 1.05017813152202
4.7384657111082 -3.84635437466496 -0.950495586210466 -3.84635437466496 -4.09857433365938 -1.70949083318443 -0.950495586210466 -1.70949083318443 -12.0855397018161
-0.551775410852381 1.18736480816335 2.08603699630267 1.18736480816335 2.42129294213703 -4.1511204959907 2.08603699630267 -4.1511204959907 -1.35732094737105
-12.3307402826384 -2.15760257865573 2.2683909010514 -2.15760257865573 3.14084893991732 0.443153289582691 2.2683909010514 0.443153289582691 2.37917922344707
3.57609027045915 1.37067650949959 5.82418945905018 1.37067650949959 -0.853708552629506 2.35481275766972 5.82418945905018 2.35481275766972 10.870555570149
1.55054632944248 4.64697569109604 1.78137954239708 4.64697569109604 5.3954348967367 2.24071431969056 1.78137954239708 2.24071431969056 2.51351720772781
-6.58599333613494 1.73917675425114 -0.154640564019894 1.73917675425114 -1.67562583753063 -1.60148310135671 -0.154640564019894 -1.60148310135671 -4.85529003744654
-4.67789969176911 -2.60270840259661 1.09645085972035 -2.60270840259661 -10.2909433573355 3.44629981951863 1.09645085972035 3.44629981951863 3.58580847761425
-4.90917480756439 1.91145878041263 -1.26545650740281 1.91145878041263 0.701310686794912 2.57515974583369 -1.26545650740281 2.57515974583369 -13.2430465967014
-13.3978312967029 -0.636016759183009 -6.8855727407204 -0.636016759183009 -3.46214340216142 -2.8869630286394 -6.8855727407204 -2.8869630286394 3.13030857128333
-0.577918264365676 -0.0435252249313062 -2.47851975303271 -0.0435252249313062 -10.9949554312583 -4.00915682978364 -2.47851975303271 -4.00915682978364 -11.684104826004
-3.69217283987471 -1.47927446027553 -1.89539556861321 -1.47927446027553 -0.353582675870738 4.13956316444585 -1.89539556861321 4.13956316444585 -1.97236594703405
0.878589851908542 -3.40352191862417 0.405503008573173 -3.40352191862417 1.10837489010001 -0.96780051379464 0.405503008573173 -0.96780051379464 -0.659618227279028
1.77481430629049 -0.302951686723302 -2.34854581920011 -0.302951686723302 3.60324838014263 0.747995757484967 -2.34854581920011 0.747995757484967 -7.24939257433459
-8.44054054867407 0.150980708281223 -2.80632395868749 0.150980708281223 -4.84576178007353 1.1119848990871 -2.80632395868749 1.1119848990871 -2.16405681869753
7.01410455096313 -0.139005970633122 -2.30157426785989 -0.139005970633122 8.5773520239848 3.53667649873124 -2.30157426785989 3.53667649873124 3.29512513992615
-8.57051758572259 3.65500346065217 -4.50966788842061 3.65500346065217 7.67526853428918 3.43298169589668 -4.50966788842061 3.43298169589668 4.63380909021938
-2.95871991355923 -1.3498859897357 2.21784110214124 -1.3498859897357 1.05497306480232 -0.208596946904095 2.21784110214124 -0.208596946904095 -10.314759374499
5.91780680039243 3.84300947639942 -7.09899153123381 3.84300947639942 0.793794165193201 0.0736755063502672 -7.09899153123381 0.0736755063502672 5.20244140002371
-5.50106996162455 -1.72497318954762 -0.205353951136621 -1.72497318954762 -2.97642432706256 -1.36741572168621 -0.205353951136621 -1.36741572168621 -2.11876958996255
4.28772914634706 -1.70590161616219 5.98788698602386 -1.70590161616219 -5.35894346087315 -0.898901019964253 5.98788698602386 -0.898901019964253 -8.28826946842439
6.89918864181194 0.767102649261177 5.71065305561098 0.767102649261177 -2.73221128780061 -1.95563823546214 5.71065305561098 -1.95563823546214 0.745794242337255
4.40397350354346 -0.978367766356062 1.09703771106232 -0.978367766356062 -8.5574215682626 -1.25262719412164 1.09703771106232 -1.25262719412164 -6.91450211155147
-12.5784968340364 3.0225549105079 -1.9435814081753 3.0225549105079 -10.0204007159234 -1.94834508809729 -1.9435814081753 -1.94834508809729 -8.74611633678883
2.13087028126481 -1.45836157547556 0.453376655588258 -1.45836157547556 -9.39245304827007 4.57154794384826 0.453376655588258 4.57154794384826 1.38783631793961
5.83352234245759 0.319223962801692 7.81271091182808 0.319223962801692 -2.11870126422456 -1.87278058176993 7.81271091182808 -1.87278058176993 6.23314345144637
-5.7786391455251 2.6502034701891 0.0243544178547035 2.6502034701891 -4.5166374930541 2.51736119098162 0.0243544178547035 2.51736119098162 -11.5617063670238
3.73276830023508 -3.243646936756 -0.334661985538317 -3.243646936756 -5.13460416972775 -0.915054799618756 -0.334661985538317 -0.915054799618756 -11.7272112554721
-4.47643073734209 0.161870932912817 -3.69305535830722 0.161870932912817 2.73581860688452 -1.95444163442882 -3.69305535830722 -1.95444163442882 -1.33693400146511
6.9442982959298 0.755535865075582 5.34322542824612 0.755535865075582 -2.77345610659406 -1.77870669176101 5.34322542824612 -1.77870669176101 -0.326846236302289
1.28828805089502 -4.25459835295582 1.1756981708168 -4.25459835295582 -7.83365742544232 0.123415830085741 1.1756981708168 0.123415830085741 2.79959067194497
3.0035764387806 0.87139116990915 -0.620866208560269 0.87139116990915 14.2336301409848 -1.97969181413735 -0.620866208560269 -1.97969181413735 12.5099094830082
-0.427605296198815 3.26019507599096 3.30980674019083 3.26019507599096 0.510291403198586 -0.434692676798795 3.30980674019083 -0.434692676798795 1.12216859499689
5.44725322370651 2.90265553024852 -3.84554116713023 2.90265553024852 3.11271612783229 -0.794888397674964 -3.84554116713023 -0.794888397674964 6.4641374801916
-2.99210388952394 1.68057448064343 0.740928951770159 1.68057448064343 0.899902213452646 0.522340716956741 0.740928951770159 0.522340716956741 -1.13552329773205
-11.1158205513618 -1.74219641527801 1.37222126528237 -1.74219641527801 5.38672774359335 -0.615704913798727 1.37222126528237 -0.615704913798727 4.74893476113817
-8.16589933653337 -0.370959670915203 3.01793641951014 -0.370959670915203 -5.33942597297947 -1.58196349983838 3.01793641951014 -1.58196349983838 -8.71156904600864
4.52724003535778 0.402105959253303 7.98298595576411 0.402105959253303 -1.2512591320294 -0.290935488165625 7.98298595576411 -0.290935488165625 10.1992993900014
0.621988316807675 -1.42665851687355 0.221828001099241 -1.42665851687355 -0.2761976092118 -0.326217648675354 0.221828001099241 -0.326217648675354 -6.95713505408305
2.87827903374185 -2.2043536256549 -0.636335943094046 -2.2043536256549 -1.3156312747514 -0.880667465547878 -0.636335943094046 -0.880667465547878 1.3908102047372