10.199645580 -0.037177627 0.064417022 -0.022216975 6.093409698 0.085899650 0.030622274 0.068332124 5.183189545
9.111513073 -0.145184796 -0.094802282 -0.086760971 9.060347130 -0.123027636 -0.045066682 -0.097866984 5.109028109
8.650266436 -0.178893431 0.313434884 -0.106904911 8.905882293 -0.213021910 0.148999263 -0.169456331 5.343687166
8.016498117 0.303792228 -0.262752812 0.181543174 9.350709546 -0.337951504 -0.124906248 -0.268836299 5.116683104
9.478061506 0.180001598 0.086843939 0.107567141 7.513883309 0.111157748 0.041283481 0.088424633 5.359455712
7.831160574 0.206176378 -0.152859190 0.123208926 9.324323820 -0.210020750 -0.072665513 -0.167068945 5.362894532
9.120372713 -0.203094991 0.096364744 -0.121367520 9.006830542 -0.307448523 0.045809438 -0.244571550 5.316014479
9.503676360 0.170732588 0.069407974 0.102028074 7.635309774 0.125412140 0.032994850 0.099763828 5.379081924
9.286659161 0.037562306 -0.029740520 0.022446856 8.911775691 0.139693371 -0.014137914 0.111124373 5.227848479
8.905198360 -0.142892814 0.075929668 -0.085391305 8.677473723 0.194390878 0.036095103 0.154635573 5.327288211
9.071541705 -0.150587476 -0.032974637 -0.089989558 8.975484801 -0.025546044 -0.015675334 -0.020321567 5.197319880
9.522175945 0.159631873 -0.038944310 0.095394399 7.952138247 0.148469764 -0.018513171 0.118105886 5.272860760
7.839723339 0.321736554 -0.404488688 0.192266522 9.461024448 -0.347533113 -0.192284010 -0.276458352 5.121983802
9.403151993 0.132642113 0.008248479 0.079265590 6.979759287 0.015307402 0.003921125 0.012176851 5.280681378
9.914722320 -0.060429346 0.102639104 -0.036111968 6.251211444 0.067613103 0.048792115 0.053785399 5.289867483
7.866881378 0.313001735 -0.381634126 0.187046682 9.451849783 -0.344692276 -0.181419511 -0.274198502 5.103387556
9.529221234 0.161105990 0.017899694 0.096275316 7.810818307 0.144155561 0.008509076 0.114673990 5.355816359
9.180713880 -0.171626011 -0.032839526 -0.102561975 9.085135874 -0.260822628 -0.015611106 -0.207481219 5.195844617
8.210741626 0.273612962 -0.121047201 0.163508349 9.261392726 -0.225692964 -0.057542873 -0.179536000 5.222895607
10.134514722 -0.050173758 0.088495021 -0.029983332 6.113009629 0.090481795 0.042068364 0.071977165 5.238799625
8.727379855 0.179738471 0.108821080 0.107409899 9.106689073 0.083991237 0.051730875 0.066814004 5.462834711
8.032041383 0.301891820 -0.253173155 0.180407509 9.343507321 -0.335214881 -0.120352313 -0.266659350 5.122578170
7.907144448 0.144107574 -0.016577064 0.086117234 9.212416678 -0.121991989 -0.007880330 -0.097043139 5.357335253
9.518370824 0.165786073 0.049122800 0.099072086 7.717502396 0.134294097 0.023351775 0.106829316 5.377689973
8.227668111 0.270188708 -0.102746641 0.161462049 9.253323869 -0.210079103 -0.048843235 -0.167115364 5.233666687
8.078301291 0.045143983 0.149639957 0.026977589 9.078035009 -0.086019580 0.071135168 -0.068427527 5.396844138
10.126811517 -0.051383016 0.091034491 -0.030705973 6.115792679 0.090351589 0.043275566 0.071873587 5.243972204
9.571426224 0.035120209 -0.003417077 0.020987483 6.653577966 0.007350110 -0.001624395 0.005846923 5.265287455
9.530470733 0.159221838 0.000582863 0.095149366 7.854438401 0.147712235 0.000277079 0.117503281 5.336025610
7.883868564 0.310446081 -0.366329809 0.185519449 9.442261246 -0.343878708 -0.174144214 -0.273551318 5.099937084
10.142090683 -0.048938079 0.085918656 -0.029244903 6.110354102 0.090494388 0.040843624 0.071987182 5.233399277
8.919831656 -0.213056952 0.213507864 -0.127320687 8.923883712 -0.269954721 0.101496406 -0.214745688 5.345417620
9.281933677 0.038699505 -0.022767899 0.023126434 8.923193828 0.143113240 -0.010823301 0.113844837 5.241770612
7.975943285 0.308432089 -0.291177417 0.184315908 9.373191598 -0.341146101 -0.138418608 -0.271377562 5.105805868
9.219826193 0.053069575 0.048194800 0.031713843 8.989223599 0.159355883 0.022910627 0.126765661 5.343029880
9.385231729 0.099543752 -0.071607002 0.059486343 8.638005099 0.106293541 -0.034040214 0.084555215 5.142320087
9.393248915 0.148401886 0.016359489 0.088683471 7.028336581 0.024026266 0.007776900 0.019112602 5.280250290
8.432056602 -0.110642938 0.315275901 -0.066119105 8.958860397 -0.167285102 0.149874437 -0.133073259 5.438967924
9.676307141 -0.000616810 0.036019108 -0.000368599 6.503475390 0.025188688 0.017122601 0.020037294 5.270919249
8.631101400 0.195174247 0.092945861 0.116634163 9.128266990 0.055771694 0.044184185 0.044365702 5.436660959
9.293394692 0.036940634 -0.039860700 0.022075351 8.892169366 0.133923852 -0.018948800 0.106534791 5.206203205
9.065215428 -0.151037313 -0.023781195 -0.090258376 8.963881141 -0.014777277 -0.011304997 -0.011755144 5.204438670
7.874036604 0.168195410 -0.067207298 0.100511882 9.258801180 -0.151359262 -0.031948702 -0.120404447 5.367296835
8.736641267 -0.194313698 0.292886811 -0.116119907 8.905376612 -0.227821516 0.139231212 -0.181229238 5.323113339
9.509253469 0.059858659 -0.014860877 0.035770932 6.747648322 0.000270352 -0.007064497 0.000215062 5.271361125
8.669535413 0.188963222 0.099365032 0.112922517 9.118848513 0.067287938 0.047235701 0.053526734 5.449290427
8.053831897 0.299412574 -0.240676818 0.178925936 9.333922528 -0.329545584 -0.114411861 -0.262149492 5.132278282
9.162778607 -0.158783488 -0.093886488 -0.094887412 9.091809023 -0.213045292 -0.044631336 -0.169474932 5.133131584
8.688694321 -0.186709936 0.306078802 -0.111575976 8.904495612 -0.219317226 0.145502362 -0.174464179 5.332843524
9.370402300 0.090414044 -0.067809695 0.054030522 8.679620590 0.106865233 -0.032235067 0.085009990 5.142173371
8.383733665 0.239334511 0.029323282 0.143023892 9.189512448 -0.065882857 0.013939570 -0.052409009 5.316753413
9.555027327 0.041329734 -0.007925335 0.024698233 6.677930023 0.005068103 -0.003767510 0.004031614 5.266284921
9.483456832 0.178060696 0.084425264 0.106407278 7.538163747 0.114255932 0.040133702 0.090889200 5.364877102
9.038158916 -0.214250862 0.158759069 -0.128034156 8.961498991 -0.298826044 0.075470171 -0.237712473 5.347833490
8.082161112 0.296339012 -0.224980861 0.177089207 9.321573146 -0.318817804 -0.106950388 -0.253615674 5.146847442
9.174834172 -0.186372427 0.024201985 -0.111374284 9.058252238 -0.286222260 0.011505031 -0.227686317 5.261302945
8.258315347 0.264653810 -0.070325636 0.158154450 9.238763973 -0.180925608 -0.033431084 -0.143924115 5.252807208
9.054645612 -0.151510295 -0.010675051 -0.090541026 8.945837646 0.001357253 -0.005074658 0.001079678 5.214511306
8.954768615 0.132960549 0.110866644 0.079455884 9.056598042 0.136622433 0.052703286 0.108681479 5.442568371
9.012568642 -0.215613781 0.171799579 -0.128848622 8.950762395 -0.292689791 0.081669310 -0.232831159 5.353354286
9.389560502 0.156601273 0.022454064 0.093583343 7.056409795 0.029576081 0.010674112 0.023527411 5.280452864
7.847206211 0.318878701 -0.399145358 0.190558698 9.459341352 -0.346396854 -0.189743922 -0.275554473 5.114901418
7.808655808 0.330906476 -0.409370175 0.197746375 9.460875017 -0.351901317 -0.194604549 -0.279933205 5.154991483
9.539173650 0.047516852 -0.011359037 0.028395592 6.701702862 0.003106014 -0.005399808 0.002470796 5.267710366
9.267668560 0.042062213 -0.003403008 0.025135955 8.948396263 0.150610324 -0.001617707 0.119808676 5.275736918
8.774151453 -0.199047514 0.279322085 -0.118948788 8.907316035 -0.235331685 0.132782874 -0.187203485 5.319803791
9.477524279 0.158208669 -0.091231794 0.094543906 8.257665930 0.115085292 -0.043369359 0.091548946 5.152017665
8.976893633 0.127115075 0.110638042 0.075962688 9.052571746 0.140604074 0.052594614 0.111848826 5.436894059
9.514776669 0.163913646 -0.056532477 0.097953143 8.002896530 0.145124746 -0.026874154 0.115444965 5.239682419
8.070473161 0.049213075 0.143157481 0.029409238 9.081779763 -0.085555990 0.068053558 -0.068058747 5.394583527
9.116159397 -0.145444049 -0.096772569 -0.086915898 9.066108818 -0.132461623 -0.046003308 -0.105371606 5.102370926
9.411314700 0.186049871 0.080623122 0.111181528 7.259921987 0.070907682 0.038326257 0.056406196 5.299289791
9.433268111 0.188329777 0.090574482 0.112543977 7.338795671 0.084656873 0.043056889 0.067343510 5.315195167
10.350606707 0.005118176 0.003037525 0.003058570 6.153187260 0.032856858 0.001443965 0.026137229 5.001439363
9.510451733 0.168441977 0.061456083 0.100659228 7.671060565 0.129267446 0.029214716 0.102830677 5.380250834
9.421734867 0.111762205 -0.000084483 0.066787967 6.918006340 0.006367358 -0.000040161 0.005065156 5.281038524
9.515869695 0.163204759 -0.054102718 0.097529519 7.995450055 0.145705518 -0.025719106 0.115906963 5.244234088
8.166691496 0.283142229 -0.165603739 0.169202942 9.282402932 -0.264066988 -0.078723959 -0.210062068 5.195642550
8.177601793 0.280810375 -0.155320642 0.167809450 9.277190610 -0.254938520 -0.073835627 -0.202800483 5.202227583
8.101817928 0.033121479 0.168594678 0.019793062 9.067277157 -0.088171601 0.080145778 -0.070139433 5.403371935
8.984033796 -0.215934384 0.185009483 -0.129040211 8.940505117 -0.285690149 0.087948975 -0.227263029 5.355086432
9.387537454 0.163640877 0.029690193 0.097790139 7.083957979 0.035279218 0.014113990 0.028064187 5.281202601
9.476096857 0.075285404 -0.013568180 0.044989799 6.802128080 -0.000945233 -0.006449980 -0.000751921 5.276035584
8.875155140 -0.209356801 0.233884177 -0.125109514 8.916608813 -0.258954687 0.111182806 -0.205995295 5.333817764
8.880589906 0.152356870 0.113235526 0.091046930 9.072822702 0.122658954 0.053829394 0.097573702 5.460190741
7.782139222 0.325027839 -0.385633160 0.194233361 9.443253748 -0.342283061 -0.183320554 -0.272282000 5.194353877
9.906385786 -0.058930090 0.100699600 -0.035216028 6.258764053 0.066329607 0.047870122 0.052764393 5.289754327
9.467320062 0.150986786 -0.087821542 0.090228181 8.321859861 0.109014088 -0.041748209 0.086719378 5.146563478
8.011496661 0.304417481 -0.265990222 0.181916819 9.353147384 -0.338615848 -0.126445233 -0.269364777 5.114987879
9.396657771 0.181436610 0.065457712 0.108424690 7.197293256 0.058996517 0.031116992 0.046931009 5.290185281
8.476990378 0.217283063 0.067750540 0.129846169 9.168011330 -0.006997577 0.032206946 -0.005566487 5.363583107
7.870722473 0.170873275 -0.072952010 0.102112147 9.263592461 -0.155036594 -0.034679598 -0.123329720 5.368110885
9.529316444 0.158307246 -0.012636248 0.094602814 7.886223793 0.149215088 -0.006006963 0.118698782 5.317598149
9.394816258 0.180453187 0.062513264 0.107837006 7.187368453 0.057008900 0.029717274 0.045349885 5.289034995
10.328716247 0.002485992 0.011084347 0.001485604 6.131140772 0.043064128 0.005269227 0.034256988 5.030184791
9.148145098 -0.153033191 -0.100286029 -0.091451093 9.087430083 -0.185510949 -0.047673521 -0.147571697 5.107325580
9.101356203 -0.145780130 -0.085998370 -0.087116736 9.042899529 -0.098350605 -0.040881517 -0.078236707 5.131871211
9.898047293 -0.057305325 0.098691211 -0.034245084 6.266365055 0.065020023 0.046915383 0.051722635 5.289628606
9.401144078 0.109541503 -0.075967110 0.065460898 8.591905528 0.106104606 -0.036112902 0.084404920 5.142198990
9.480582713 0.160422234 -0.092030982 0.095866710 8.237628787 0.117564329 -0.043749274 0.093520990 5.154615153
8.219778722 -0.023806896 0.245924770 -0.014226761 9.020581183 -0.110034136 0.116906609 -0.087530813 5.436951448
9.172927574 -0.187638443 0.028763351 -0.112130843 9.055236434 -0.288098312 0.013673392 -0.229178693 5.266499215
10.054606906 -0.061198045 0.109501296 -0.036571335 6.147202050 0.085248992 0.052054233 0.067814533 5.277468547
9.169758255 0.071924084 0.078162750 0.042981108 9.009123947 0.159966219 0.037156656 0.127251176 5.376873031
9.527468009 0.158159312 -0.021975622 0.094514411 7.908788103 0.149546682 -0.010446672 0.118962561 5.302873102
9.238327973 0.048004921 0.030903068 0.028687257 8.977934941 0.157847340 0.014690561 0.125565634 5.322892902
8.659743160 -0.180981113 0.311869534 -0.108152489 8.905321744 -0.214556704 0.148255134 -0.170677241 5.340815318
7.809864578 0.229660020 -0.208966356 0.137242513 9.362251197 -0.248882264 -0.099337484 -0.197982805 5.348667309
9.265209022 0.042561382 -0.000268455 0.025434253 8.951751101 0.151571485 -0.000127617 0.120573268 5.280644892
9.177772168 -0.167815736 -0.051714606 -0.100284992 9.089451304 -0.251082976 -0.024583856 -0.199733445 5.178168163
10.346377820 0.004780932 0.004456587 0.002857037 6.148654284 0.034905479 0.002118552 0.027766883 5.006936327
9.491316023 0.175157461 0.079842853 0.104672334 7.574707724 0.118648133 0.037955336 0.094383143 5.371830758
9.113805537 -0.145275978 -0.095882459 -0.086815460 9.063330096 -0.127802140 -0.045580171 -0.101665043 5.105457457
9.231224529 0.049777230 0.038001462 0.029746371 8.982711432 0.158596630 0.018064964 0.126161685 5.331327745
8.631345249 -0.174399837 0.316100364 -0.104219585 8.907490159 -0.209951818 0.150266367 -0.167014111 5.349773567
7.787706853 0.328962250 -0.394961999 0.196584525 9.450158147 -0.347086053 -0.187755255 -0.276102722 5.180401651
8.929412464 -0.147264355 0.066242437 -0.088003694 8.720922158 0.170633195 0.031490031 0.135736625 5.319560357
7.811020561 0.330563733 -0.409998893 0.197541555 9.461364488 -0.351848626 -0.194903426 -0.279891290 5.152655983
8.945158509 -0.214661813 0.202255811 -0.128279736 8.929438004 -0.276165770 0.096147456 -0.219686502 5.350904315
9.390459107 0.177065314 0.053323978 0.105812447 7.158309754 0.051042099 0.025348912 0.040603367 5.286081548
9.523239733 0.164026309 0.038843305 0.098020469 7.751128216 0.137957012 0.018465155 0.109743120 5.372631762
7.891364285 0.309925638 -0.359828541 0.185208438 9.437312512 -0.343577503 -0.171053670 -0.273311713 5.099456476
7.781921993 0.287420967 -0.320902639 0.171759873 9.413372688 -0.311362537 -0.152549250 -0.247685101 5.284567260
9.298481210 0.038253555 -0.046862419 0.022859939 8.875785303 0.129366685 -0.022277246 0.102909620 5.190741821
9.442741953 0.188019520 0.092083383 0.112358570 7.372696087 0.090250141 0.043774184 0.071792886 5.323301063
9.030588765 -0.151951074 0.010655564 -0.090804430 8.907387324 0.033810404 0.005065394 0.026895764 5.235198988
8.188562139 0.278411159 -0.144402367 0.166375703 9.271960431 -0.245488205 -0.068645346 -0.195282872 5.208957827
9.509261183 0.167308867 -0.068213887 0.099982093 8.041319736 0.141819367 -0.032427210 0.112815577 5.218203774
9.475935936 0.157057625 -0.090735635 0.093856054 8.267951362 0.113908674 -0.043133497 0.090612961 5.150879004
8.172142348 0.281987715 -0.160545446 0.168513016 9.279798404 -0.259544991 -0.076319371 -0.206464875 5.198918881
7.844672071 0.319828502 -0.401095183 0.191126289 9.459982830 -0.346746676 -0.190670821 -0.275832752 5.117150256
9.640392664 0.010814638 0.021964129 0.006462719 6.553283286 0.018704535 0.010441209 0.014879229 5.266964991
7.830102589 0.325380323 -0.409134157 0.194444002 9.462266600 -0.349317004 -0.194492352 -0.277877416 5.132437983
9.387180383 0.169556191 0.038040107 0.101325071 7.111588444 0.041142195 0.018083335 0.032728114 5.282550967
7.968352743 0.106273791 0.052258619 0.063508146 9.145919793 -0.094288308 0.024842467 -0.075005199 5.361855233
8.199601304 0.275995357 -0.132936621 0.164932044 9.266699437 -0.235737266 -0.063194812 -0.187526120 5.215850202
9.367561127 0.088663520 -0.067232745 0.052984426 8.687505044 0.107046801 -0.031960799 0.085154425 5.142158318
9.511475851 0.166027165 -0.063651222 0.099216160 8.025711526 0.143218499 -0.030258231 0.113928569 5.226526990
8.507080389 0.212324965 0.074752916 0.126883259 9.161169978 0.007883381 0.035535704 0.006271134 5.379350024
9.180089987 -0.181178842 0.005627458 -0.108270650 9.069361874 -0.278281283 0.002675155 -0.221369366 5.239026312
9.376186310 0.093964883 -0.069164100 0.056152467 8.663487475 0.106575875 -0.032878918 0.084779809 5.142235609
9.391462076 0.103431682 -0.073367994 0.061809731 8.620199307 0.106187399 -0.034877346 0.084470781 5.142317293
9.215884403 0.054334590 0.051372314 0.032469803 8.991211364 0.159526504 0.024421139 0.126901388 5.346614642
9.864231876 -0.049773654 0.090171952 -0.029744234 6.297520683 0.059477088 0.042865536 0.047313298 5.288963141
8.247628865 -0.036504859 0.259513974 -0.021814936 9.011307834 -0.116715528 0.123366583 -0.092845779 5.444757449
9.162978679 -0.192430186 0.046852431 -0.114994340 9.042538061 -0.295059984 0.022272497 -0.234716619 5.284965453
9.512565090 0.167738700 0.058544770 0.100238957 7.682819658 0.130534713 0.027830749 0.103838772 5.380059539
9.154412622 -0.155354065 -0.099161973 -0.092838024 9.089600941 -0.196405588 -0.047139172 -0.156238250 5.116739585
9.631439591 0.013805220 0.018393951 0.008249861 6.566047457 0.017128606 0.008744034 0.013625597 5.266247114
8.369838574 -0.087617208 0.302621394 -0.052359160 8.976860947 -0.149504941 0.143858795 -0.118929357 5.456473396
9.394670313 0.105448479 -0.074258787 0.063014949 8.610922442 0.106151934 -0.035300808 0.084442569 5.142292560
9.436665037 0.131767911 -0.082121802 0.078743176 8.473020920 0.105538263 -0.039038692 0.083954401 5.142013428
8.184031467 -0.007082296 0.225999140 -0.004232309 9.033525372 -0.102099663 0.107434453 -0.081219036 5.426353953
9.117749897 0.090823748 0.095282348 0.054275356 9.024530340 0.158539005 0.045294893 0.126115844 5.397786780
9.061781142 -0.151222871 -0.019230222 -0.090369264 8.957868540 -0.009323935 -0.009141576 -0.007417077 5.207892900
8.105127975 0.293599178 -0.211585858 0.175451910 9.311301194 -0.307249991 -0.100582731 -0.244413620 5.159687667
9.055519503 -0.212702715 0.148671113 -0.127108999 8.969624137 -0.302667174 0.070674604 -0.240768045 5.342130520
8.048288994 0.300023717 -0.243782330 0.179291150 9.336333609 -0.331197013 -0.115888145 -0.263463184 5.129667027
9.109311779 -0.145169966 -0.093518294 -0.086752109 9.057192316 -0.118193519 -0.044456305 -0.094021503 5.113002901
8.623732090 0.196325825 0.091808275 0.117322334 9.130212434 0.053457235 0.043643404 0.042524579 5.433915523
9.176500878 -0.185088735 0.019617708 -0.110607163 9.061180072 -0.284301446 0.009325778 -0.226158333 5.255927744
8.304470817 -0.061310482 0.282652933 -0.036638526 8.994436261 -0.131388613 0.134366278 -0.104518039 5.456467749
9.126100201 -0.146858408 -0.099025700 -0.087761104 9.075392188 -0.150157115 -0.047074391 -0.119448153 5.095185009
7.956342925 0.113468516 0.040328731 0.067807641 9.156661113 -0.097787997 0.019171290 -0.077789159 5.358802969
9.390596984 0.154010007 0.020312877 0.092034828 7.047189581 0.027719328 0.009656244 0.022050387 5.280330003
9.097737240 -0.146388396 -0.080713368 -0.087480230 9.034808056 -0.088192620 -0.038369157 -0.070156153 5.142277043
8.566278356 0.204439073 0.083924356 0.122170730 9.146012008 0.033346893 0.039895582 0.026527046 5.409105373
9.447644272 0.138442517 -0.083458171 0.082731853 8.426467517 0.105466394 -0.039673969 0.083897230 5.142715434
9.168396279 -0.190101942 0.037852832 -0.113603005 9.048975740 -0.291705837 0.017994309 -0.232048435 5.276259740
9.931273896 -0.062974802 0.106213987 -0.037633107 6.236408388 0.070080748 0.050491527 0.055748380 5.290037825
9.019246696 -0.215361903 0.168547329 -0.128698103 8.953422971 -0.294316546 0.080123270 -0.234125222 5.352279642
8.343299918 0.249176187 0.004059341 0.148905178 9.202428272 -0.099860154 0.001929711 -0.079437535 5.298271726
9.388314317 0.101462330 -0.072479248 0.060632866 8.629226735 0.106233841 -0.034454858 0.084507724 5.142326308
9.506000355 0.169937783 0.066893025 0.101553106 7.647296578 0.126708176 0.031799305 0.100794809 5.379755907
9.486464740 0.164466615 -0.092501380 0.098283592 8.198520366 0.122889555 -0.043972889 0.097757142 5.161424058
10.225620818 -0.029867190 0.054046411 -0.017848332 6.089187022 0.080700798 0.025692339 0.064196501 5.156221149
9.076837611 -0.210138347 0.134171325 -0.125576558 8.980574051 -0.306458960 0.063781760 -0.243784365 5.333781995
9.622492287 0.016844798 0.014848475 0.010066281 6.578903164 0.015574829 0.007058601 0.012389586 5.265661397
8.303766296 0.256981083 -0.026993044 0.153569305 9.218124182 -0.136874788 -0.012831832 -0.108882225 5.278770619
8.117689612 0.025156826 0.180853618 0.015033466 9.060344610 -0.090193638 0.085973378 -0.071747939 5.407661765
9.379166181 0.095796149 -0.069937024 0.057246813 8.655130819 0.106462764 -0.033246347 0.084689831 5.142270581
9.523854840 0.053706827 -0.013673250 0.032094659 6.724995712 0.001492442 -0.006499928 0.001187219 5.269451615
7.778744790 0.319164419 -0.374357024 0.190729440 9.435713616 -0.336231378 -0.177960155 -0.267467960 5.211861556
8.801698926 -0.202105440 0.267774450 -0.120776174 8.909209278 -0.241374305 0.127293411 -0.192010316 5.320431472
9.259966522 0.043580369 0.006259372 0.026043189 8.958217523 0.153361410 0.002975552 0.121997131 5.290411594
9.423687212 0.187842001 0.087480609 0.112252487 7.304922307 0.078887713 0.041586138 0.062754213 5.307812089
10.267183972 -0.015481810 0.037057904 -0.009251774 6.092989689 0.068139051 0.017616419 0.054203784 5.108303228
9.528163547 0.158148111 -0.018917293 0.094507717 7.901344481 0.149508474 -0.008992818 0.118932167 5.307849439
10.171549600 -0.043545422 0.075267856 -0.026022305 6.100838931 0.089266127 0.035780494 0.071010115 5.209568538
7.799440218 0.331382505 -0.405291776 0.198030845 9.457874296 -0.351219702 -0.192665778 -0.279390989 5.164343732
7.887575987 0.310150167 -0.363097210 0.185342614 9.439862005 -0.343726687 -0.172607515 -0.273430387 5.099645009
9.777183487 -0.028060755 0.067969929 -0.016768824 6.382371599 0.044000834 0.032311239 0.035002127 5.283897859
9.469720011 0.182759045 0.089616531 0.109214963 7.477756109 0.106258475 0.042601503 0.084527321 5.350568062
8.356643054 0.246114233 0.013067436 0.147075385 9.197801177 -0.088100024 0.006211939 -0.070082495 5.304402742
9.421140440 0.122183727 -0.080074103 0.073015764 8.529196283 0.105910092 -0.038065266 0.084250187 5.141837466
8.803588162 0.167729547 0.115076916 0.100233487 9.091026663 0.105189852 0.054704746 0.083677245 5.468925363
9.276431580 0.040092097 -0.015019646 0.023958633 8.934301730 0.146446029 -0.007139972 0.116496030 5.256162431
9.508147539 0.167877665 -0.070421077 0.100322000 8.049236502 0.141081430 -0.033476454 0.112228557 5.214182882
9.101608569 -0.206389106 0.113901301 -0.123336049 8.994776484 -0.308415963 0.054145887 -0.245341137 5.323724758
8.917819022 0.142918428 0.111664996 0.085406612 9.064161677 0.129798545 0.053082803 0.103253159 5.451878780
9.304064420 0.041533074 -0.053021851 0.024819747 8.858249521 0.124989311 -0.025205289 0.099427473 5.177144326
7.860820090 0.314474201 -0.387227188 0.187926613 9.454618881 -0.345075296 -0.184078316 -0.274503189 5.105862977
9.407845486 0.113793434 -0.077555928 0.068001809 8.571684930 0.106064931 -0.036868188 0.084373359 5.142065120
8.205157743 0.274797109 -0.127036008 0.164215982 9.264052649 -0.230751684 -0.060389805 -0.183560150 5.219355381
9.178631223 -0.168709110 -0.047077512 -0.100818864 9.088570443 -0.253618194 -0.022379495 -0.201750180 5.182346281
8.856791383 -0.207645027 0.242452637 -0.124086575 8.914341432 -0.254449390 0.115256042 -0.202411386 5.329302472
9.404476359 0.111655415 -0.076782536 0.066724151 8.581927587 0.106085609 -0.036500536 0.084389808 5.142134758
7.863786936 0.313713831 -0.384490183 0.187472224 9.453311236 -0.344877759 -0.182777211 -0.274346051 5.104546933
9.081909048 -0.209431228 0.130318995 -0.125153991 8.983345752 -0.307116829 0.061950456 -0.244307692 5.331710120
8.995153842 -0.152209466 0.030912433 -0.090958843 8.847787513 0.081321200 0.014695013 0.064690023 5.269176500
9.443021282 0.094686257 -0.006890016 0.056583553 6.865768016 0.001345940 -0.003275345 0.001070679 5.279891598
9.245022415 0.046514170 0.023723578 0.027796399 8.972783953 0.156869461 0.011277608 0.124787743 5.314017678
9.768031899 -0.025753037 0.065522348 -0.015389755 6.392120040 0.042299353 0.031147718 0.033648619 5.282942608
10.300039382 -0.004332415 0.023137010 -0.002589008 6.108600029 0.055370546 0.010998768 0.044046594 5.067370656
7.801273121 0.241974287 -0.236466771 0.144601395 9.378328981 -0.266601575 -0.112410508 -0.212078301 5.339496686
9.530346090 0.158930635 -0.002790995 0.094975346 7.862606773 0.148204652 -0.001326770 0.117894993 5.331594507
8.093640570 0.295022215 -0.218429956 0.176302302 9.316478222 -0.313361482 -0.103836248 -0.249275237 5.153187244
9.596585553 0.025921008 0.004988014 0.015490133 6.616559084 0.011234822 0.002371180 0.008937164 5.264808191
9.889606539 -0.055550450 0.096606135 -0.033196389 6.274096367 0.063669794 0.045924189 0.050648544 5.289488925
9.227517523 0.050787073 0.041480167 0.030349843 8.984968111 0.158894400 0.019718655 0.126398557 5.335365284
9.168124031 -0.161286538 -0.085487804 -0.096383210 9.092525134 -0.225554766 -0.040638807 -0.179426065 5.146090764
7.786029475 0.274667007 -0.299147760 0.164138235 9.406094799 -0.301257229 -0.142207514 -0.239646451 5.304755738
8.141965672 0.013173312 0.198589850 0.007872239 9.050140332 -0.094000587 0.094404748 -0.074776321 5.414277226
9.123591319 -0.146403820 -0.098615636 -0.087489447 9.073366436 -0.145927351 -0.046879457 -0.116083428 5.096157113
8.792570286 -0.201120665 0.271725912 -0.120187683 8.908540162 -0.239325475 0.129171840 -0.190380497 5.319919252
7.789798014 0.264751172 -0.281464124 0.158212632 9.399496695 -0.292365419 -0.133801147 -0.232573125 5.317483449
9.174865993 -0.165362199 -0.064907198 -0.098818783 9.091375347 -0.243062983 -0.030855291 -0.193353638 5.166506278
9.058209624 -0.151381631 -0.014798026 -0.090464137 8.951778060 -0.003879090 -0.007034619 -0.003085768 5.211281730
7.799368748 0.245139334 -0.243168668 0.146492795 9.381903388 -0.270713383 -0.115596426 -0.215349195 5.336896086
8.310316668 0.255804146 -0.021389447 0.152865980 9.215340117 -0.130585558 -0.010168019 -0.103879219 5.282188888
7.877409825 0.165519978 -0.061489346 0.098913071 9.253940642 -0.147759672 -0.029230528 -0.117541017 5.366345175
10.403183728 0.000305413 -0.000696243 0.000182512 6.215303971 0.000927053 -0.000330977 0.000737459 4.947954742
8.810777115 -0.203062023 0.263743841 -0.121347818 8.909918553 -0.243453122 0.125377358 -0.193663989 5.321239187
8.133690552 0.289391919 -0.192591700 0.172937694 9.298085005 -0.289263030 -0.091553374 -0.230105212 5.176200879
9.164465002 0.074022206 0.080369487 0.044234924 9.010850493 0.159916161 0.038205684 0.127211356 5.379435947
9.150317575 -0.153814359 -0.100047401 -0.091917911 9.088229334 -0.189185486 -0.047560083 -0.150494747 5.110314265
10.046301235 -0.062149775 0.110817098 -0.037140079 6.151653573 0.084391848 0.052679732 0.067132686 5.279754678
9.486107888 0.177084432 0.083030102 0.105823872 7.550337749 0.115753159 0.039470476 0.092080226 5.367372296
7.924824601 0.132753518 0.005854755 0.079332164 9.190105353 -0.111109025 0.002783207 -0.088385874 5.355196520
9.170781010 -0.188882754 0.033310949 -0.112874430 9.052141187 -0.289927224 0.015835209 -0.230633570 5.271491684
8.245505504 0.266880441 -0.083666929 0.159485061 9.244824333 -0.193218175 -0.039773207 -0.153702701 5.244905788
9.439550497 0.133523728 -0.082454527 0.079792434 8.461450205 0.105477005 -0.039196862 0.083905671 5.142140237
9.095958224 -0.146739502 -0.077701034 -0.087690048 9.030545624 -0.083070725 -0.036937168 -0.066081748 5.147527285
9.047064130 -0.151708541 -0.002839115 -0.090659495 8.933533389 0.011985955 -0.001349646 0.009534681 5.221074937
7.946817278 0.310006483 -0.313923964 0.185256750 9.394003086 -0.341962089 -0.149231759 -0.272026671 5.101749828
8.150203525 0.009157242 0.204299170 0.005472275 9.046778666 -0.095455538 0.097118819 -0.075933716 5.416573719
9.161273756 -0.158133707 -0.095365344 -0.094499110 9.091483377 -0.209808538 -0.045334348 -0.166900133 5.129848846
10.021509186 -0.064585872 0.113471595 -0.038595866 6.166297987 0.081675200 0.053941616 0.064971626 5.284985141
7.981164969 0.098689405 0.064518390 0.058975794 9.135488993 -0.091307791 0.030670462 -0.072634234 5.365677372
8.951890509 -0.150239064 0.054595981 -0.089781350 8.763973589 0.143160805 0.025953591 0.113882674 5.308137854
7.942172399 0.310061543 -0.317666261 0.185289653 9.397655263 -0.342072414 -0.151010755 -0.272114433 5.101341415
8.405870175 -0.101146306 0.310748978 -0.060444013 8.966774913 -0.159827547 0.147722449 -0.127140864 5.448383752
9.181693667 -0.177304608 -0.008849675 -0.105955447 9.076488361 -0.271887448 -0.004206919 -0.216283149 5.221733927
8.592821379 -0.164018077 0.319867264 -0.098015549 8.912862358 -0.203502578 0.152057058 -0.161883818 5.363600739
9.529763615 0.158469676 -0.009386648 0.094699881 7.878441232 0.148953864 -0.004462183 0.118490982 5.322392335
9.145872429 -0.197674744 0.069365996 -0.118128435 9.026062950 -0.302171243 0.032974895 -0.240373538 5.302142143
10.333195746 0.003207322 0.009313595 0.001916663 6.135346172 0.041046962 0.004427455 0.032652358 5.024279121
9.234827702 0.048852040 0.034470652 0.029193487 8.980368490 0.158248953 0.016386503 0.125885112 5.327168800
8.093925994 0.037124583 0.162329551 0.022185277 9.070815019 -0.087329030 0.077167490 -0.069469178 5.401215827
8.323269844 -0.069129047 0.289087449 -0.041310822 8.989308098 -0.136483098 0.137425089 -0.108570640 5.458262145
7.839674962 0.198027123 -0.133559750 0.118339013 9.310322484 -0.196383860 -0.063491032 -0.156220965 5.366474780
9.156271345 -0.156081075 -0.098496775 -0.093272477 9.090166128 -0.199845527 -0.046822953 -0.158974679 5.119994336
8.902982596 0.146806151 0.112224003 0.087729876 9.067514295 0.127001975 0.053348541 0.101028522 5.455392199
9.179124100 -0.182486916 0.010340554 -0.109052342 9.066741505 -0.280330779 0.004915646 -0.222999715 5.244757168
7.880248565 0.310815707 -0.369522256 0.185740334 9.444506823 -0.344033588 -0.175661825 -0.273674523 5.100347113
8.755507348 -0.196796846 0.286407959 -0.117603812 8.906250373 -0.231493505 0.136151325 -0.184150260 5.320890706
9.124010307 0.088795048 0.093678977 0.053063026 9.022854369 0.158840646 0.044532690 0.126355796 5.395651361
9.257185447 0.044109426 0.009641061 0.026359348 8.961319763 0.154180370 0.004583124 0.122648603 5.295248841
8.968920797 -0.151581616 0.045019027 -0.090583646 8.797725975 0.119275548 0.021400942 0.094882243 5.294892507
8.158529648 0.005122904 0.209902429 0.003061396 9.043432837 -0.096997088 0.099782471 -0.077160000 5.418929826