5.7814418314 1.1487100940 2.3875230047 2.7609592872 4.8213252642 5.1019684933 2.3362640224 1.5319325224 2.8911205976 7.6002016831 1.3293329846 -0.0387844606 7.8714102855 4.5231808666 2.8492592232 1.0029454385 4.3604917919 2.2996470021 4.0084551496 1.8255840781 5.1127837896 9.2029863328 1.4454403123 2.8031158732 5.9904649580 4.6564476531 0.4045443536 1.2086422984 4.8494183217 3.7612336397 3.9007777003 1.6666809282 1.4109033494 8.9257753892 1.6149732727 1.2997355467 6.2996394126 4.4853628448 4.1021085501 4.4574817701 4.8737842789 0.7447915162 0.4442562574 1.3393786644 3.2370182066 5.5222855045 1.8458019569 4.6269426445 9.7062395903 4.1218703930 2.0684522829 1.6323317570 5.5099113654 1.3688656156 3.1781772040 0.6836526807 4.3736940941 8.4853395412 2.6123467850 3.6415262709 6.6235554678 3.6430552728 1.4074144667 8.2763864861 0.2550679085 3.3701971081 6.8855884182 5.8983381927 0.9602894394 1.8110803590 3.1001696852 1.7163484884 3.3179743304 3.0823663219 4.4554348017
5.1317861460 -0.8261710297 2.5093226408 3.1989291546 6.8471505450 4.7908305411 0.9273739134 2.4887109035 2.9409803330 5.6650083730 2.2541065691 -0.1122188807 8.0258050266 6.5569620244 2.0619932483 2.0118755243 5.6648447326 2.2646659437 2.3717836690 1.0436309018 5.4700568763 6.9681428113 3.4473752434 2.6001418470 6.5151082488 7.9635231168 -0.4516572482 3.2503403640 6.1748281724 3.0179704596 1.9083995468 1.2414775389 1.8195997155 5.9536505644 2.5868695141 1.7392568567 6.7613926034 7.2463243523 3.2749461477 5.1746568452 7.2784286822 -0.1142109533 -0.8442211981 2.7516219911 2.7329642188 3.6993518551 1.7457747689 5.0301885427 9.9151391190 6.4040749376 2.4405460130 2.4665636796 5.6808172193 0.8080376132 2.6384384679 -0.4786329408 5.2605144549 7.3511822472 4.7578700642 1.8287735954 7.5895323836 7.6100297224 0.5013870399 6.4582927634 3.6377456474 4.0621783042 6.2809855345 9.5251669645 -0.5640828957 1.8571581305 4.1801250565 2.7160004960 1.2528790087 1.6634156630 4.5788355966
4.3075566860 -0.3769524400 3.0930939951 3.1576684680 6.8388261144 5.1171121492 1.3279144507 2.4697141127 2.7017906008 5.5199044996 1.9472573607 0.5087274342 7.2249619631 6.2556655459 2.5770498081 1.8864534750 5.6128596112 2.4736156805 2.6121059350 1.0569469088 5.2143932106 6.7571002237 2.9917024315 3.1433397516 6.1673283323 7.8347792219 -0.0267689994 3.0345316903 6.2728783253 3.3838241183 2.3509349661 1.3919064015 1.4455801116 5.7392256267 2.0549907497 2.4285491231 6.3819792730 7.2680991965 3.8046630932 4.7064269970 7.5855859381 0.4154700441 -0.4949747330 2.5752019814 2.4168720870 4.1088337837 1.3681054906 4.8444414113 9.0807616879 5.8797928931 3.1125448778 2.3138040377 5.9818599854 1.0392436778 2.2941345477 -0.3723545733 4.7519214479 6.6366067115 4.4224346078 2.6105867877 7.1192337878 6.8780233061 0.7666122126 6.5750316007 3.0051824481 4.7146243417 6.5061156037 9.2956717600 0.1261075550 2.1474724557 4.0934742346 2.6984184241 1.6806093853 2.0579297748 4.5349523165
4.2109396465 0.1502935921 2.5335036845 2.2349538432 7.8225612230 4.4442427087 1.5247174916 3.1421079861 2.1199052813 5.7953967091 1.7997196446 0.1087612567 6.5529776079 6.3231779996 2.1401224910 1.7698139124 6.2164728514 1.8613231297 2.3423783957 1.4510224161 4.7904584135 6.3861583216 3.3446675831 2.6489723014 5.6437404716 8.1254891708 -0.2465997949 2.7597570754 7.0505441897 2.7195268913 2.4589766908 1.8568402769 1.2326071343 5.2740374254 2.7458860245 1.7230903415 5.9968672062 7.8470413645 3.4152480608 4.1240460917 8.1632186429 0.0798268638 -0.3238034963 3.1431837771 2.0573708531 3.8476576218 1.1804367498 4.4738478700 8.4705612379 6.3127997562 2.4053532575 1.4286934523 6.9760712662 0.5350569320 1.5581725139 0.2143916807 4.3604380175 5.8903610398 4.7923734781 2.9517753895 6.0127351326 6.7970622412 0.4642396802 6.5813196753 2.4723880917 3.8844440592 6.2913125484 9.3159500449 0.5578624693 2.3341555264 4.7802605795 1.5508386599 1.7865736314 2.7248670027 4.0568888992
5.1311942523 1.3640353268 2.4467674112 2.7297884452 6.5250875957 5.1946302742 2.0722831948 2.6817410375 2.6867593493 6.9457638042 1.3304181437 0.1492293742 7.6047832082 5.1413864046 3.1496814168 1.0609291020 5.7237404727 2.3895084381 3.6866870429 2.1192113485 5.0992320258 8.5278524979 2.0195595031 3.0944146166 5.8645034111 5.7672177678 0.6043782333 1.5050494159 5.9245973705 3.8570170856 3.2070340879 2.1002818375 1.2238178440 8.0878909198 2.0178444030 1.5970156498 6.2569339589 5.5996809975 4.4507203675 4.3637298318 5.6885140816 0.7982476003 0.5585018819 1.5733550282 3.3034614234 5.2657412688 2.1554190137 4.9378591495 8.9981567321 6.0879677916 2.3815700889 1.7021597308 6.7260391753 1.3962835381 3.3126100703 0.8004841845 4.3852543356 8.1105530567 3.4572958453 3.5993097865 6.6400145527 4.8121824662 1.5442504772 7.6426576664 0.9086786413 3.8125222999 6.3294459709 7.2450745839 0.9774245408 1.4766972460 4.2906952641 1.8868307222 3.0307374881 3.2174292010 4.2650139824
3.8714117218 0.4344461666 2.3485094750 2.5950462252 7.4123293636 4.6654168874 1.2154128093 3.0036918196 2.6738801658 5.6894691897 1.9380833515 0.2002828909 6.4634055692 6.5498878028 2.5123580500 1.7300583964 6.2489994491 2.1104004685 2.1942499018 1.3531406773 5.2743056471 5.9063054264 3.3423169014 2.7441094043 5.7111440880 8.1113652728 -0.1274388205 2.9634918664 6.9445192661 2.8355350837 2.0880155848 1.6405886309 1.4849943477 4.8764012044 2.4969856192 1.9616342206 5.5901722999 7.7136908565 3.6976183719 4.2632574296 8.2317334090 0.3743613096 -0.5874851344 2.7616288113 2.1074898277 3.7567719462 1.4571736597 5.0792505847 8.3381519318 6.9289200375 2.8075079203 1.7832786352 6.6063739365 0.6634311415 1.8771001308 -0.0061274143 4.6662710911 5.5642468212 4.8326928186 2.5023190997 6.4320248392 7.0069526006 0.6267812349 6.1566836209 3.0275598964 4.2487129881 6.5377842830 9.4579952888 0.0067289555 1.8869016584 4.7403736141 2.3657670683 1.3917809920 2.4945854300 4.5698913484
4.7704053344 -0.6709267109 2.6020431590 3.1767799665 6.7880802280 5.1067128913 1.1855772601 2.2651349039 2.7695489234 5.7249752330 2.1088984039 0.2306453634 8.0137474543 6.1776478275 2.0776266624 1.9726769720 5.4913844458 2.3183790237 2.6207997801 0.9686792347 5.3584745286 7.0173707053 3.1202347139 2.8798303618 6.4960536862 8.0631464781 -0.3771442521 3.0223426486 6.2439270867 3.1406319315 2.4497115223 1.4412214718 1.6035882788 5.8778530254 2.4368768748 2.0189046977 6.6706799870 7.3222483859 3.5004367980 5.0325228232 7.6905768734 0.2259507899 -0.7308585959 2.6180360254 2.6657102666 4.0200475973 1.4630144455 4.9608864913 9.6952636372 5.7589418972 2.8614556047 2.2271537031 5.7457842512 0.8046691238 2.5291379278 -0.5187678528 5.0402651854 7.0299635764 4.6011901953 2.3845101135 7.4731659286 7.4117952266 0.5683052198 6.5931859247 3.0349671278 4.3755340947 6.6208984148 9.6148218351 -0.4184276191 2.0618231120 3.9772404707 2.6341365513 1.4899301377 1.6499213868 4.5522694760
5.1086797993 1.3156524198 2.4487132492 2.7183594488 6.6560583061 5.2253177461 2.0316235686 2.7464394780 2.6739390567 6.9476432726 1.2926252851 0.1674764638 7.6225493682 5.1894128069 3.1710575918 1.0660663371 5.8290619127 2.4016049845 3.7538846424 2.1611105330 5.1134092682 8.5233905289 2.0963218060 3.0659347083 5.9009470482 5.8686021911 0.5695391126 1.5291895481 6.0398684135 3.8878289281 3.2125059110 2.0719522288 1.2266109527 8.0449104605 2.1018912736 1.5848954671 6.3265284344 5.6887074587 4.4912415479 4.3791538534 5.7217655017 0.7915498364 0.5493161386 1.6304124284 3.2508098100 5.2750157715 2.1508020057 4.9838924450 9.0281816292 6.2044321383 2.4527057153 1.6754116329 6.8458675588 1.4219561031 3.3798088778 0.7784263123 4.4083595943 8.1643969571 3.5124479468 3.6021535949 6.6930132293 4.9310019179 1.5309830201 7.7168186902 0.9782741645 3.8256641195 6.2331406826 7.3336889820 1.0327676286 1.4237644694 4.4201535169 1.8283341576 3.0335493443 3.2888361329 4.2811248278
4.7028429971 0.0444798250 2.8141578793 2.6202674450 7.7074472334 5.2109800563 1.8289123258 3.3440051979 2.2662494391 6.6339247959 1.3421940756 0.1347734613 7.4487411508 5.9252960087 3.0848800210 1.2161782708 6.6335115212 2.4172302422 3.4948185061 2.1336907610 4.8532533094 7.9991018790 2.6510078425 2.7996161898 5.9250709405 7.0672376237 0.4873905907 2.2710915471 6.9452395642 3.5159772325 3.2732517684 2.5023553184 1.1031103168 6.9802220654 1.9318589351 1.9089272667 6.8299525861 7.1253382299 4.4572841939 4.3810969545 6.8120643654 0.1948243498 0.1002092184 2.6259834022 2.1488932926 5.0137769996 2.2209605530 4.5531890026 9.1079496045 6.8142085697 3.0359226160 1.2815553174 7.6915010390 1.2888084985 3.0249536416 0.6638467099 4.5592422919 7.5992927396 4.0640835199 3.2635415149 6.3477921451 6.0743469124 1.5686874586 8.0662915241 1.9270591822 4.1849252799 6.0544152268 8.5617276445 0.8827643300 1.5381848621 5.2112910559 1.8974611823 2.6094816660 3.0850487044 3.9243528680
4.8076007405 -0.7352287582 2.3174755823 3.2988676167 6.7626254759 5.2009436644 1.1034210295 2.5475248600 3.3606782753 5.3715765955 2.1015484934 0.0161189683 7.9886400328 6.4185579743 2.5697904575 2.0898977036 5.6135411054 2.5053677811 2.3409168917 1.2271923728 5.9846391844 6.8452570230 3.2914557895 2.7699349285 6.3526388717 7.6357015875 -0.0182461762 3.3379388770 6.3089251513 3.2765849036 1.8956516484 1.3475935304 2.1087730819 5.9789934913 2.6326264884 1.7104684532 6.8313803668 7.1791452441 3.9454626398 5.1783548471 6.8120126318 0.6444024333 -0.7871801710 2.5720609363 2.9145523424 3.6207577873 2.1432323915 5.8730198658 9.7740852638 6.4872865331 2.7439560857 2.4372469369 5.3350117423 1.0206049296 2.6555249087 -0.3019270080 5.7695221451 7.2799159556 4.6955080524 2.3182423928 7.5506154554 7.5372089811 1.0455061321 5.9727522056 3.5019517289 4.0402228440 5.7460745760 9.0409657567 -0.2545230758 1.6572127309 4.3687399538 3.2638250963 1.2751776404 1.6294620524 4.9470793290
5.0940997119 -0.8246373751 2.4979598588 3.2093590567 6.8359973715 4.8966228481 0.9704616165 2.5742127968 3.1008077897 5.5490233847 2.2318553923 -0.0980235346 8.0087790489 6.5455166607 2.2862842202 2.0548016389 5.6514482753 2.3688259274 2.3650049491 1.0782136811 5.6916337577 6.9573582587 3.4302216963 2.6338442762 6.4748482329 7.8547115623 -0.2972583600 3.3681256640 6.1929945282 3.1402072795 1.8413775667 1.2704206176 1.9477349796 5.9419857468 2.6489985280 1.7934892513 6.7759324928 7.3439067785 3.4215625202 5.1707476012 7.0609802664 0.1432181410 -0.8440544339 2.6991313303 2.9016306705 3.7146797911 1.7962653268 5.3183851143 9.9114698426 6.5282900765 2.5565363531 2.4931890415 5.5356121463 0.8521053514 2.7511417674 -0.4254597227 5.4086957070 7.3267166157 4.7307270466 1.9021805079 7.7416107781 7.6599766690 0.6932898513 6.4004108105 3.5734866537 4.0983587093 6.1604715860 9.3385524034 -0.6002080996 1.7640816054 4.2416977569 2.8807740939 1.2862428768 1.6496754131 4.7457845939
4.9741746992 1.0869987102 2.4647312101 2.7432841447 7.0154290746 5.1526530772 1.9268464015 2.9846401422 2.4881225478 6.9415336931 1.1671038450 0.1607784546 7.5956337214 5.3378234922 3.0390485947 1.0552553556 6.1105336980 2.3760535229 3.7393685472 2.1115760091 5.0008080916 8.4568254221 2.2836284044 2.8358060427 5.8370131840 6.1590507536 0.5178788121 1.7813950492 6.2765358613 3.7535756095 3.2824817764 2.0763101100 1.2257263982 7.8610786584 2.1944491503 1.4214068425 6.4764977360 6.1259847961 4.4066801496 4.3410017376 5.8802065569 0.4091693300 0.4798601052 1.8647781026 2.7319798929 5.2601359750 2.3894006892 4.9787181572 9.0604268784 6.4865362150 2.5811189206 1.6476362914 7.1552099367 1.4153119023 3.4180493110 0.7115990584 4.3929784414 8.2681299483 3.6580470100 3.5613609043 6.6442838047 5.2074375212 1.4352157151 7.7780084421 1.2226455741 3.7624391090 6.0717281820 7.6312998116 1.0100351268 1.3188791100 4.6513614261 1.8798940363 3.0918925433 3.1812466972 4.0560572629
3.8007011701 0.3820280884 2.1570642723 2.1978954257 7.7645731587 4.3290844792 1.2813078913 3.1824733177 2.3516230337 5.8297015614 1.8918730638 -0.0097842805 6.4409087667 6.4796145452 2.0698849480 1.7377027815 6.2225312583 1.7776001054 2.2472898712 1.3867587024 4.8732157101 5.9641311866 3.3990940652 2.4324712897 5.6809669046 8.2268442548 -0.3713850955 2.8408174692 6.9291779764 2.6817251455 2.3423613598 1.8978095735 1.3155447292 4.9773494922 2.5168712268 1.6442938129 5.7344625200 7.9781543770 3.1969855298 4.1521510256 8.3417851378 -0.1018197371 -0.6062806511 3.1758589246 1.8766221527 3.7233189257 1.2771008139 4.3764063046 8.2887458378 6.7800739161 2.2710184929 1.6576129901 6.8763390495 0.4461665079 1.3658420743 0.1362126276 4.6211246284 5.5512877139 4.8432694378 2.7899923658 6.3835898250 6.9820271732 0.1988646938 6.4282639420 2.6831665115 3.7352646368 6.2257406331 9.5592430495 0.2402694540 2.0665993013 4.7429496836 1.6302731180 1.6178408653 2.6460427081 4.1455431366
5.3333946254 1.4444236189 2.5545649048 2.6903091524 5.8431084855 5.0090936138 2.0627082045 2.2195496722 2.6806892144 6.9784332955 1.5060970368 -0.0178198793 7.3011429444 4.8104843077 2.8937734154 1.0223965201 5.2890528143 2.2833642552 3.6584760415 1.9870736805 5.0724634980 8.4048272367 1.6713445991 2.8799546315 5.7950025931 5.3925821762 0.4316771492 1.3813753354 5.5227497748 3.7684286760 3.3872891788 1.7738424654 1.3009205434 8.3598804777 1.5766747319 1.3162134750 6.0374287950 5.1311273745 4.2214531015 4.2279009379 5.5770281662 0.5804292843 0.4976480076 1.3302067132 3.1168902306 5.2182581247 2.0163780468 4.7931723034 8.8917308812 5.4575986616 2.1539782170 1.7725801983 6.2897846247 1.3704104416 3.0483331970 0.7470194864 4.2517469224 7.8551620567 2.9537312004 3.5749673164 6.1132256803 4.2059584163 1.4088403861 7.5536210623 0.5695697423 3.5247671485 6.3911437911 6.7182526523 1.0000324240 1.4086671514 3.8277850365 1.8329640732 2.9313197246 3.1492279617 4.2786587913
5.8307956510 1.1857839793 2.6074052794 2.6151871206 5.1201428283 5.1612256380 2.3075200642 1.6688372728 2.8680667667 7.4082401135 1.3433244057 -0.1104181344 7.5580793099 4.3143811634 2.8772415202 0.8788903451 4.5384479418 2.3048025596 3.9722356669 1.8701242308 5.2964441788 8.8637856174 1.3952547670 2.8808805851 5.9570574021 4.8033334302 0.5314748723 1.2890017964 4.7692133459 3.7809381399 3.7244622215 1.5339892658 1.4836291885 8.7701988219 1.5470055104 1.3517378101 6.3201222567 4.7022224722 4.3189856914 4.4114634630 5.0713856655 0.7466249328 0.4005573514 1.3189702164 3.2500480506 5.5132030605 1.8454602175 4.8559120475 9.2923124170 4.4453919302 2.1187059787 1.5108564979 5.6260799167 1.3340394594 3.2653975036 0.7547721802 4.4344764371 8.1305272696 2.5560209336 3.7742876476 6.4421492744 3.6142414009 1.4498862272 7.9870231252 0.2264864551 3.3993197944 6.7027368322 6.1031999711 1.0825723672 1.5543259432 3.1595800547 1.9728127000 3.2040084421 3.0867622779 4.6220735615
3.8682478995 0.3351527895 2.2380479320 2.1818791176 7.7745804918 4.3464746693 1.3195721228 3.1897572260 2.2667885317 5.8327661850 1.8613436006 0.0014986443 6.4696774950 6.4390691409 2.0352275669 1.7488236667 6.2343010299 1.8287156843 2.2717362954 1.4256562044 4.8490247063 6.0298848862 3.3974016546 2.4838038096 5.6670481775 8.2451183887 -0.3369697778 2.7910890721 6.9611887679 2.6838643895 2.4090031423 1.8659065676 1.3123885792 4.9896653514 2.5607905056 1.6610032772 5.7913877615 7.9368934042 3.2764293036 4.1491683097 8.3020756927 -0.0883021088 -0.5432588668 3.1840861540 1.9264392248 3.7500793422 1.1910600988 4.3782965624 8.3148444091 6.6855956371 2.2307951038 1.6321884838 6.9121537156 0.4354562436 1.3601365026 0.1899758419 4.5602652254 5.5970362194 4.8723283458 2.8059718970 6.2899871661 6.9347363826 0.2326471138 6.5075449149 2.6122419432 3.7224037057 6.2042702170 9.5550165774 0.3545599158 2.0965819200 4.7465898485 1.5532194300 1.5988975429 2.6772920949 4.1438502579
5.0556114526 1.2139150564 2.4492465388 2.7194507369 6.8549354547 5.2179557852 1.9595408561 2.8599324193 2.6092665891 6.9566301834 1.2267514555 0.1831186528 7.6158201300 5.2768304194 3.1358358439 1.0671363494 5.9736525226 2.4104753216 3.7373298972 2.1651627390 5.0676236067 8.5154512701 2.1821590194 2.9394988210 5.9026970920 6.0274311344 0.5476039334 1.6099244315 6.1915006168 3.8427031091 3.2757619818 2.0419875232 1.1980784148 7.9557953127 2.1640729499 1.4889661549 6.4471072293 5.8560694009 4.4532747178 4.3401346112 5.7838994107 0.6592888827 0.4899467159 1.7772641723 3.0474675720 5.3391370641 2.2576799654 5.0195250856 9.0571799129 6.3752555097 2.5442187937 1.6651488725 7.0620834889 1.4305423077 3.4174042214 0.7274897921 4.4307705826 8.2540397654 3.5533803495 3.6382779714 6.7191790033 5.0883250586 1.4711548062 7.7913807983 1.1333728843 3.8216156135 6.1331518511 7.5262661852 1.0676539148 1.3567897375 4.5450323415 1.8145581890 3.0817637006 3.3075531382 4.2469948049
4.9696076422 -0.7566957155 2.5050133068 3.2482962297 6.8544069201 4.9565955846 1.0718680723 2.3168967172 2.7800626015 5.7943937200 2.2365055977 0.0524488497 8.1370050649 6.3588365560 1.9294440984 1.9971356687 5.5265402840 2.2551529034 2.4747911705 0.9875138932 5.3677193415 7.0647566740 3.3115888270 2.7179603230 6.5241418925 7.9831371989 -0.4794852356 3.1085561040 6.2919880281 3.0127375639 2.3006367560 1.4436376879 1.6682308457 5.9198383069 2.5795471657 1.8845929874 6.8109443532 7.3389396806 3.2783202101 5.0674669027 7.6846416138 0.0094492472 -0.8110400529 2.6659709916 2.6325527381 3.8471482822 1.6715815438 5.0142074141 9.8213492314 5.9907255068 2.5841808793 2.2418269947 5.7046441673 0.7484802021 2.4515890417 -0.5516233692 5.0767449212 7.1850087245 4.7394016235 2.1240838878 7.5393573032 7.4823603656 0.5816715531 6.4843813213 3.4065198690 4.1503141196 6.5324492218 9.5910187134 -0.5620968117 1.8975103445 4.0456412235 2.5790934095 1.2853965412 1.5650457008 4.5342310599
4.5488477935 -0.0276914890 2.6979179890 2.3375088349 7.7976538978 4.6710818880 1.7441364927 3.2382785691 2.2820334251 5.7498877456 1.7419222740 0.2591681596 6.7410944689 6.3645711046 2.5806837650 1.7073545889 6.2326369855 2.0292566637 2.5596681005 1.5145463237 4.7823717199 6.6779961183 3.2974628971 2.8705164633 5.6663629219 7.9081058039 -0.0107416316 2.6169367929 7.1422018152 2.9193104666 2.3871264009 1.7656614277 1.1104772624 5.6023122162 2.6843596778 1.9004518181 5.9003773345 7.6992118421 3.6915059170 4.1661117574 8.2475273136 0.1845421399 -0.1953819469 3.0185058357 2.1801543294 4.0846694430 1.4342562853 4.4310462843 8.6109589691 6.1690386690 2.6681257741 1.3269637853 7.0135213973 0.7491933988 1.7285259115 0.3554618926 4.2462912524 6.2498952928 4.7257123321 3.3448111736 6.1157433732 6.5971652113 0.6826557139 6.7072026801 2.4412541326 4.1449626035 6.3408090079 9.1904156597 0.5936247130 2.4931996197 4.9165060306 1.7484509870 2.1144676764 2.8344247138 4.0282556806
5.8052272047 1.1463452818 2.4501853045 2.7394358225 4.8827648619 5.1509894621 2.3462122256 1.5546036945 2.9249028154 7.5521731537 1.3068834277 -0.0396453989 7.7994742301 4.4578805230 2.8824537894 0.9560154079 4.3746296147 2.3180128112 4.0168423114 1.9010886226 5.1949152151 9.1567437745 1.4453794886 2.8448970687 6.0029832985 4.6903298161 0.4752417713 1.2006045195 4.8488221460 3.7687234801 3.8649822702 1.5761648895 1.4746770385 8.8817023161 1.5650905411 1.3218635089 6.2438993380 4.5570269738 4.1937622404 4.4742971778 4.9315386269 0.7182186025 0.4483781987 1.3581698623 3.2575276416 5.4986348394 1.8441308166 4.7116103462 9.5793905589 4.1386982194 2.1157256336 1.5825002943 5.5272958882 1.4123476403 3.2119999158 0.6530819023 4.4642840843 8.4438212536 2.6059019540 3.7262349224 6.5710843792 3.6154211912 1.4774815571 8.1801815677 0.1972155495 3.3650845715 6.8267400236 5.9451534705 0.9737615191 1.7183758522 3.0954740238 1.7788103204 3.3130946414 3.0932534810 4.5272882092
4.7452541791 -0.1158834373 2.9055250076 2.6106954500 7.9218408782 5.1367973276 1.8717974878 3.2314535535 2.3616788458 6.0495166904 1.8496088820 0.4692010854 7.1202597328 6.2241555332 3.2454784045 1.6697424800 6.4255556147 2.4237269656 2.9783720952 1.9469579325 5.0971583001 7.3986957979 2.9929550045 3.2917431485 5.6986437126 7.6371679551 0.5144671522 2.6797194890 7.2040289051 3.3649488321 2.7609083380 2.1407136834 1.1673678040 6.5265359386 2.3014212853 2.2226115619 6.1129552059 7.2628247739 4.5476765828 4.2070626923 7.6961224398 0.9298271965 0.0812161314 2.8744404591 2.5272055976 4.5131261065 1.7517467545 4.8785698621 9.0619683079 6.4129201867 3.3277749172 1.2953701618 7.1771008716 1.1105176342 2.2382023329 0.6937464588 4.6194889773 6.8005584594 4.4106208693 3.5559980082 6.3752074101 6.6832800731 1.5666108553 7.2986585063 2.1319330569 4.5548429953 6.2852454149 9.0526725731 0.7774312563 2.3296104554 5.0598492161 2.0174024163 2.6128383625 3.1237224574 4.1340069278
4.2410167782 0.1340749759 2.5504861613 2.2429842215 7.8227409895 4.4591294320 1.5423866690 3.1440600006 2.1236998737 5.7884953714 1.7944205607 0.1246201309 6.5636899544 6.3207174322 2.1626818331 1.7634707931 6.2155872430 1.8696966995 2.3556379470 1.4545211990 4.7841895556 6.4112939975 3.3387280473 2.6557842789 5.6415998364 8.1066718933 -0.2338624200 2.7479181767 7.0472267030 2.7163018226 2.4562890941 1.8462371977 1.2164385632 5.3029702582 2.7364752461 1.7138759770 5.9978006212 7.8504795348 3.4375158344 4.1203807215 8.1705107014 0.0836306974 -0.3055801929 3.1347186751 2.0642787606 3.8726224077 1.2012011061 4.4792593789 8.4933030778 6.2881988312 2.4305223208 1.4151234419 6.9988090283 0.5294117032 1.5622814333 0.2160866769 4.3472587447 5.9195459998 4.7846016352 2.9863741544 6.0132515939 6.7694559858 0.4816102962 6.5885964834 2.4744938636 3.9033782762 6.2970106844 9.3055393742 0.5482696463 2.3621689277 4.7821518756 1.5670511962 1.8151877465 2.7199834565 4.0529975210
3.9314379838 0.3489060685 2.5908046624 2.7593760716 7.3706426190 4.8506781854 1.3075040728 2.8716079055 2.6781715937 5.6387517359 1.9377197299 0.3108671550 6.5773690066 6.5165035121 2.5536962763 1.7942310404 6.2098050591 2.2958460262 2.2857877575 1.3207310041 5.3437064576 6.0108048530 3.3035692405 2.8417205637 5.7450488150 8.0355430520 0.0202263154 2.9167397817 6.9575643354 3.0093991504 1.9988345460 1.4691976835 1.5113019640 4.8954595389 2.4002805572 2.1894175374 5.7022471685 7.4843845044 3.9306611661 4.2701164468 8.2265507957 0.5691589905 -0.5818518479 2.6696969666 2.1656567801 3.7825937055 1.6497954786 5.0746033764 8.3765530491 6.8841601437 2.8605809302 1.7783963282 6.4752883385 0.7315855529 1.9115301860 -0.0762612494 4.6770350670 5.7450571093 4.8247058498 2.5919613375 6.5178757629 6.9598783053 0.7992176201 6.0649670204 3.1294634294 4.3671919201 6.4023347297 9.4104034586 0.2911433892 1.8990714109 4.6643437251 2.4532591679 1.5093593163 2.4184683449 4.5182233672
5.0884004571 1.2739902037 2.4491892558 2.7159847513 6.7474470353 5.2301223089 1.9991667488 2.7956135198 2.6523946400 6.9511953770 1.2639758316 0.1774589699 7.6226718204 5.2298210505 3.1660099095 1.0672801373 5.8945497482 2.4099910451 3.7638083770 2.1734591132 5.1038580864 8.5225229849 2.1392663455 3.0207072913 5.9194994294 5.9427387807 0.5512548625 1.5570385833 6.1148053213 3.8803466242 3.2371321444 2.0531379119 1.2160032610 8.0084603151 2.1395462351 1.5496483878 6.3845381724 5.7557475170 4.4856971673 4.3522156492 5.7459869372 0.7534446751 0.5159096636 1.6922568703 3.1780447422 5.3053910786 2.1832381105 5.0090070333 9.0485590004 6.2861794029 2.4970714488 1.6681211674 6.9474314044 1.4286995916 3.4034807449 0.7465360655 4.4206197184 8.2113602703 3.5186241346 3.6177682952 6.7143992741 5.0053486139 1.5082227168 7.7653235291 1.0517436036 3.8232250524 6.1804835006 7.4191409297 1.0601492791 1.3894754066 4.4880677079 1.8092308017 3.0473515445 3.3212769160 4.2755778475
4.5734540139 -0.0399815737 2.7111905996 2.3457505390 7.7951530936 4.6942351846 1.7611639999 3.2474342861 2.2979420174 5.7521013448 1.7408039397 0.2690810354 6.7599517190 6.3710673233 2.6304730390 1.7094537482 6.2421337836 2.0681878658 2.5731173317 1.5320857397 4.7925448764 6.7100911113 3.2917008698 2.9093547738 5.6701220482 7.8980529368 0.0051161185 2.5980442049 7.1504233973 2.9511140612 2.3838111525 1.7794793878 1.1032724979 5.6163762554 2.6834612430 1.9343211092 5.8909632152 7.6664847858 3.7235539314 4.1719600991 8.2401064028 0.2090265344 -0.1788229466 3.0109525512 2.1964251291 4.0989866186 1.4457000230 4.4246176331 8.6225737236 6.1688224183 2.6906410699 1.3242469541 7.0156069935 0.7558908606 1.7640703605 0.3602178525 4.2403063970 6.2786374943 4.7303429012 3.3653262575 6.1312834502 6.5939039127 0.7238394839 6.7249502403 2.4226691662 4.1782522728 6.3517345365 9.1703965214 0.6221466017 2.4913203353 4.9224222852 1.7622895283 2.1453909551 2.8489956011 4.0468551812
3.9776347820 0.1825176379 2.9538824506 2.9319760321 7.3172545115 5.0885244251 1.3890098142 2.6867990106 2.6896537063 5.5655986277 1.9796863783 0.4695741087 6.7550373776 6.3722379375 2.6707459629 1.8317671839 6.0415989249 2.3830359888 2.4181713875 1.2992532757 5.3392861385 6.2148372428 3.2007146056 3.0149105009 5.8111567377 7.9551060920 0.1441458629 2.9650193294 6.8149853244 3.1607125511 1.9445219726 1.3388503410 1.4462735441 5.1102076058 2.3123882123 2.3387837944 5.7355596932 7.4648741611 4.0145911394 4.3257960533 7.9532959749 0.6767116136 -0.5001326337 2.6672430159 2.2923352265 3.9199449022 1.6121385989 5.0640962224 8.5489446588 6.6845187250 3.0564875537 1.9249792016 6.3314519775 0.8195142439 2.0512075025 -0.1519734194 4.8711037644 6.0248480749 4.6705279453 2.6315400258 6.6599444836 6.8336196206 0.8410627553 6.1273653792 3.1212783484 4.5542219235 6.4448746672 9.3224114631 0.4623674447 1.9384797256 4.4946499510 2.6128574313 1.5581914690 2.2682647578 4.5257685348
5.8074937586 1.1465058897 2.4572228842 2.7361009151 4.8897392529 5.1553835964 2.3466886517 1.5574760003 2.9266563870 7.5464830545 1.3056576552 -0.0405115844 7.7913823382 4.4505052651 2.8848098419 0.9524120552 4.3770779024 2.3176481043 4.0196174077 1.9070206809 5.2013454920 9.1486877671 1.4453979299 2.8496443984 6.0028935081 4.6949726182 0.4830837597 1.2019410585 4.8464260812 3.7698615135 3.8596000893 1.5668601273 1.4836818796 8.8779151719 1.5598099382 1.3256948548 6.2391171537 4.5649585515 4.2027162246 4.4805616430 4.9375598219 0.7154443098 0.4471958232 1.3593781941 3.2585421501 5.4942612390 1.8427493572 4.7205518172 9.5644311689 4.1433216831 2.1199310282 1.5774899427 5.5288744898 1.4157416907 3.2164386080 0.6517814981 4.4721803630 8.4371856041 2.6028018142 3.7344555307 6.5655159302 3.6112086444 1.4837564297 8.1720210827 0.1944906507 3.3646556941 6.8184054178 5.9493739705 0.9748254579 1.7079786633 3.0972698876 1.7882962577 3.3107139341 3.0934901891 4.5325320152
5.5992282364 1.3472809466 2.6378161623 2.5931521928 5.5098544243 5.0067983980 2.1045656151 1.9626393106 2.7083511638 7.1711833918 1.4673698808 -0.1068459405 7.2920063704 4.5085816105 2.7683275238 0.9399383083 4.9065645878 2.2617635752 3.7263691275 1.8872371131 5.1046990432 8.5503462945 1.4217868088 2.7484736652 5.7918548827 5.1522461308 0.4821518976 1.2601585386 5.2302420167 3.7356005543 3.6002513516 1.6638679976 1.3494820615 8.3803654033 1.7351537303 1.2363170909 6.1821560115 4.8587382986 4.2677233031 4.2322746583 5.3235954696 0.5911980961 0.4075555397 1.1749015119 3.2240909518 5.3235184448 1.8721004651 4.8119178201 8.9876226136 5.0825680424 2.1323903627 1.6381407117 5.9929831510 1.3450426851 3.1869286641 0.7340243416 4.1834355511 7.8427493080 2.7237561277 3.3353696749 6.2661916107 3.9139411429 1.3140675457 7.6588625231 0.3954449650 3.5350356547 6.5439286946 6.4288940414 1.0617928157 1.5010886561 3.5117000694 1.7769342753 3.0539107896 3.1783581803 4.5879516392
5.0346106360 1.1789989571 2.4504837744 2.7238959715 6.9058015888 5.2038650640 1.9422534451 2.8945266317 2.5791610272 6.9573169192 1.2074915181 0.1813272643 7.6108797810 5.2964647023 3.1108464775 1.0654026422 6.0147899129 2.4016164739 3.7250898937 2.1496512968 5.0428663022 8.5019006050 2.2061863297 2.8956353037 5.8783617022 6.0670218584 0.5465632701 1.6498818876 6.2224965837 3.8181159319 3.2899658570 2.0441113731 1.1964192275 7.9274641509 2.1706328634 1.4597050646 6.4651315444 5.9222402452 4.4403603461 4.3495187242 5.8089681351 0.5922335756 0.4939874901 1.8150991753 2.9628360079 5.3329010073 2.3032057636 5.0141518214 9.0560898124 6.4128840321 2.5625139819 1.6617302358 7.1036935314 1.4313787641 3.4203929505 0.7283804113 4.4298636915 8.2649474030 3.5857991639 3.6369875971 6.7094403079 5.1269512938 1.4524584114 7.7889769753 1.1637010754 3.8184848130 6.1136795794 7.5677652533 1.0572285995 1.3437386427 4.5704814107 1.8292501586 3.0981486827 3.2787172366 4.2133774500
3.9107535480 0.3099268070 2.2852318412 2.1812492191 7.7794817752 4.3565309477 1.3436278106 3.1871036441 2.2300629646 5.8336463274 1.8492502612 0.0088990239 6.4830878194 6.4183086167 2.0300378629 1.7628753432 6.2340121898 1.8564379150 2.2823504495 1.4579427526 4.8420333557 6.0756086830 3.3993699000 2.5112957669 5.6687331695 8.2523860786 -0.3204690699 2.7794706180 6.9849460812 2.6950865833 2.4337699232 1.8570407050 1.3065372392 5.0101434555 2.5976029558 1.6797514728 5.8312873505 7.9087471918 3.2895333730 4.1290607558 8.2721681012 -0.0650900294 -0.5134679627 3.1844279392 1.9526561773 3.7564860372 1.1540025056 4.3883682856 8.3165884086 6.6330409624 2.2293419044 1.6087722282 6.9258635597 0.4288704414 1.3694657734 0.1941607149 4.5246477477 5.6286004012 4.8765597215 2.8084785511 6.2389580599 6.9123282929 0.2674108930 6.5351076580 2.5682970627 3.7407648662 6.2078670239 9.5351003120 0.4133856166 2.1138808567 4.7473825857 1.5247985757 1.6059105769 2.6779870866 4.1448592864