-28925.4210575305
-28926.4537920132
-28927.0858540401
-28926.9413272434
-28926.877806246
-28926.7537126031
-28926.4440634042
-28926.8797488657
-28926.9930123834
-28926.8917492159
-28926.5588488538
-28927.5744801741
-28926.7205375893
-28926.3692080548
-28925.853033538
-28926.7779050076
-28927.1908307432
-28926.6517102387
-28927.2654588776
-28925.6547380268
-28926.8470707316
-28927.0463948325
-28927.0475820646
-28926.995270791
-28927.2379900881
-28927.2262960019
-28925.6650339929
-28926.0221213172
-28927.3025825333
-28926.7366695779
-28925.6379962315
-28926.9732102613
-28926.9858190577
-28926.638131357
-28927.0303029808
-28926.6013218566
-28926.4339248559
-28927.099251558
-28925.7851381768
-28927.1310494044
-28927.0013035517
-28926.6186150903
-28926.996641972
-28927.0289515281
-28926.2360747948
-28926.971093761
-28927.1561830501
-28926.7427759453
-28927.0202199437
-28926.6569652985
-28926.8858794513
-28926.0679290733
-28926.8657423573
-28926.7682689172
-28927.1985097918
-28926.3216760502
-28927.0803270027
-28926.7052471124
-28926.8690297629
-28926.7915992655
-28926.4658711403
-28926.7435256186
-28926.5585534744
-28926.1211368255
-28926.9783866802
-28927.0129471609
-28926.9381307238
-28926.8899557145
-28927.5589449309
-28927.1973882752
-28926.4771578723
-28926.5526428927
-28926.7736318701
-28926.0172917072
-28926.9175577036
-28926.2822395642
-28927.5728680365
-28927.1531148321
-28927.1850183946
-28927.3001218091
-28926.8389967099
-28926.4886938604
-28926.2958621202
-28926.9125257771
-28926.9313638003
-28926.4238354242
-28925.8803734817
-28926.6230815646
-28926.9053033353
-28926.4894432616
-28926.9561186638
-28926.9890287749
-28927.3753661449
-28926.4938448367
-28926.1035875328
-28926.6129649215
-28926.4856361188
-28925.9087692265
-28926.5076808659
-28927.0170004305
-28927.209631895
-28926.3135186257
-28925.557767589
-28926.9427414183
-28927.4365483251
-28927.0173816618
-28927.0653343542
-28926.5787988697
-28926.9750458043
-28926.7094746708
-28926.0535731709
-28926.8583951513
-28926.4628162558
-28927.0347935371
-28927.1231181064
-28926.4016060479
-28926.9177694081
-28926.5891934769
-28926.9424178751
-28926.5058221933
-28927.0593259476
-28926.7248846057
-28926.3685698122
-28926.9886984289
-28926.8392874634
-28926.8484902127
-28927.2229020638
-28927.4934818581
-28926.8898215624
-28927.1675984919
-28926.7324469175
-28925.8595601851
-28926.7280690162
-28926.5017796722
-28926.9726044002
-28927.253541386
-28926.6609366619
-28927.5160268862
-28926.9880343354
-28926.3981463944
-28926.6427269492
-28926.5636871714
-28927.0208560095
-28926.0106914533
-28927.1796797959
-28926.3259032005
-28926.9347769225
-28926.6355435557
-28925.8805436888
-28927.0933381192
-28926.5439285876
-28926.3798166795
-28927.2656281323
-28927.0267286313
-28926.6488851543
-28927.1802370848
-28926.7352390762
-28927.1341713648
-28926.4510108751
-28927.159372903
-28926.3345062111
-28927.1466710437
-28926.5556900219
-28926.9868330894
-28926.4562059338
-28926.5000332465
-28927.1383122551
-28926.3898737297
-28926.3113463421
-28925.8045333529
-28926.785430448
-28926.9068388729
-28926.58309813
-28926.8899370747
-28927.1182055017
-28925.3718439992
-28926.6528710758
-28925.9016420245
-28926.8702071988
-28927.328441226
-28926.6316538264
-28926.1801852261
-28926.4200474654
-28926.9507536701
-28926.9689790294
-28926.6856862191
-28925.3962007604
-28927.4143584053
-28925.5260630777
-28926.4515670755
-28926.7305587205
-28925.8892876543
-28926.8969895815
-28926.9129983025
-28926.4236716117
-28926.7379524579
-28926.9838397027
-28927.4843400623
-28926.5213560759
-28926.8984546417
-28926.9471069384
-28926.786016989
-28926.4768671188
-28927.262346169
-28926.7026525083
-28926.8853730477
-28926.4917189484
-28926.7836995327
-28926.627258918
-28926.8592818338
-28926.2507743769
-28926.993535658
-28925.8545049929
-28925.7719341317
-28926.384807789
-28927.3215857295
-28927.1918779728
-28925.9619120795
-28925.9374434796
-28927.0378402581
-28926.7776829628
-28926.2885033494
-28927.3302951366
-28926.5361185162
-28926.9742297353
-28926.2489348883
-28926.7188609608
-28926.677986626
-28926.343662565
-28926.8670074138
-28927.0038634614
-28927.0173600287
-28926.9276022366
-28927.145757558
-28926.9490197616
-28926.6164233506
-28925.5545846751
-28926.8616315356
-28927.0412676662
-28926.310127953
-28927.1589444599
-28926.3779452176
-28926.5003459051
-28926.7589548735
-28926.5643402443
-28927.3217062759
-28926.7199630213
-28925.5900424506
-28926.9699103385
-28926.9887627837
-28926.5748898203
-28927.092806273
-28926.4905940304
-28927.1234894055
-28927.3573546671
-28926.3871668787
-28926.1114562446
-28927.0276295997
-28927.2786614261
-28927.1316484627
-28926.8006382023
-28926.6516513261
-28926.9204880961
-28926.3730912534
-28926.7436482058
-28927.0311884388
-28927.020117629
-28926.9681150684
-28926.9623900682
-28927.3099496035
-28926.7266921209
-28926.8659024962
-28926.3915211061
-28926.4589916978
-28925.8392058083
-28926.7130260267
-28926.6238623949
-28927.0478983968
-28926.8760794125
-28926.7801570205
-28927.1686021833
-28927.460540726
-28926.7566534719
-28926.0823115069
-28926.665199323
-28926.24633525
-28926.4987290055
-28926.8983343674
-28926.4013891733
-28926.9396737445
-28927.376206296
-28926.76447987
-28926.9916169843
-28926.9174163406
-28926.7794835391
-28926.5072067078
-28926.8625769946
-28926.9025417894
-28927.0481038426
-28926.4735214809
-28926.7124747244
-28927.0738550504
-28926.6990226476
-28926.4056370042
-28926.8767803774
-28926.0369521941
-28926.4061420472
-28926.4494500309
-28926.922819022
-28926.3789140784
-28926.7561364559
-28925.4827304677
-28926.7516687571
-28927.534840011
-28926.9026084573
-28926.9112516047
-28926.0409302242
-28927.4166091938
-28926.4319869982
-28926.6000441467
-28926.4275138572
-28927.0631638393
-28927.2821359099
-28927.1624126851
-28925.7657210957
-28927.0001824433
-28926.0935823202
-28927.0088972927
-28926.7044311795
-28926.8580967787
-28926.6731035456
-28926.4742107449
-28926.9840700469
-28927.4591896815
-28925.6829709116
-28926.9009103317
-28926.46958005
-28926.5469131306
-28927.2209696484
-28927.0304906032
-28926.7186463991
-28927.3486105655
-28926.2959528701
-28926.8913791413
-28926.9785405605
-28926.7842165488
-28926.9748511069
-28927.316886598
-28926.9699014948
-28926.0402156536
-28927.2604587884
-28926.4962080081
-28925.5436427111
-28926.7741064364
-28926.4499356178
-28927.0341453623
-28926.7214905315
-28926.3635942132
-28927.0197983035
-28926.5157876772
-28926.9676784619
-28926.9242870754
-28926.401553666
-28926.9194486217
-28926.2045829404
-28925.7706191423
-28926.8577910589
-28926.9431610176
-28926.6074584287
-28926.891924185
-28927.0653010203
-28926.9590550428
-28926.7468947943
-28927.0901084017
-28926.4822243572
-28926.5586225913
-28927.3396057789
-28926.9938160712
-28926.9324778338
-28927.5295702571
-28927.1736232253
-28926.1504520425
-28926.3760383808
-28925.4417226611
-28925.9553693777
-28926.9010892465
-28926.9810425099
-28927.1926888716
-28927.2362869285
-28926.9582393819
-28926.2894697612
-28926.9901746457
-28926.717937679
-28926.9617444785
-28926.794235367
-28925.7840612869
-28926.6739223358
-28925.6126521058
-28926.9575280767
-28927.0312346981
-28926.7105125125
-28926.7682913666
-28926.7979332561
-28926.6177394285
-28926.8946205596
-28926.71310562
-28926.8785108844
-28926.2622374386
-28927.1961404978
-28927.4760473973
-28926.7747800538
-28926.0362721819
-28926.9060394029
-28926.5249829434
-28927.0123719125
-28926.8707296571
-28926.8618922205
-28926.2499987168
-28926.9879426331
-28926.8012693701
-28927.5846306954
-28926.8739480819
-28926.3550687549
-28926.9835417382
-28926.8947000168
-28926.2575319124
-28926.4027753205
-28926.2532198627
-28926.94765171
-28926.4628841482
-28926.8463134391
-28926.2771356636
-28926.621981681
-28926.9267634461
-28927.1361001067
-28927.2040071688
-28926.9815778936
-28927.097420641
-28926.0016006789
-28926.325016654
-28925.6649364401
-28927.3178720578
-28926.9905956056
-28926.5078385558
-28926.8924369833
-28926.715542126
-28926.6742624779
-28926.8684839028
-28926.5586864019
-28927.544144939
-28927.0381208074
-28926.8983953209
-28927.0362655362
-28926.9977459372
-28926.8303524741
-28926.9820434802
-28926.8307226847
-28926.7454059242
-28927.1628634414
-28926.9978112445
-28926.9827294788
-28926.9694627115
-28926.6481202427
-28927.191438237
-28926.7402748123
-28927.1727841627
-28926.3293446224
-28926.3844188025
-28926.6196299384
-28926.9458965767
-28926.7781063717
-28927.0222654224
-28926.6945738607
-28926.8778697845
-28926.8197533734
-28927.4365283248
-28926.8563514414
-28926.9520545097
-28926.4069514494
-28926.7203401708
-28926.9579344785
-28927.5966064193
-28926.8230732965
-28927.1220025763
-28926.474596466
-28926.5242127255
-28926.6649642167
-28926.4323030583
-28927.1353064871
-28925.3561347393
-28925.9805989436
-28926.7614962794
-28926.8666370671
-28926.8896102662
-28926.9317254394
-28926.7227765408
-28926.3505230956
-28926.7480831149
-28925.9420198878
-28927.5929254012
-28925.9841034959
-28926.5676152687
-28927.420292797
-28926.5837548765
-28927.1988911592
-28926.2828304591
-28926.7108576887
-28927.1943350234
-28926.9293500229
-28926.2910956406
-28927.2694706499
-28925.6370144453
-28926.86639992
-28926.4176206194
-28926.9424686243
-28926.3168102491
-28925.7338465133
-28925.4046892112
-28926.5299262969
-28926.9337653398
-28926.8781129181
-28927.0371670488
-28926.5888948321
-28926.2505625364
-28926.4363669403
-28926.6954993194
-28925.7549241683
-28926.871818248
-28926.6681537974
-28926.398413474
-28926.3826765945
-28927.0807758542
-28927.038254007
-28926.4056774131
-28926.6049899493
-28926.8712742927
-28926.3996719998
-28926.3841416547
-28925.9885109215
-28927.2145575612
-28926.9806245433
-28925.9272656109
-28926.3956418599
-28926.7583439782
-28926.399978808
-28925.5592813575
-28926.9236401251
-28926.2631993605
-28926.9734958447
-28926.726036463
-28926.4086656297
-28925.7491827053
-28926.9771636652
-28926.9797077922
-28926.7488557817
-28927.0801612854
-28925.9492381119
-28926.3997324091
-28926.5882214868
-28926.0799310562
-28926.7820867148
-28926.8880067001
-28926.9396088454
-28927.1424833499
-28926.573525034
-28926.8916443161
-28927.0902811939
-28925.6553508269
-28927.0270568004
-28927.0306780895
-28926.0267956863
-28926.9983836357
-28926.295631912
-28926.4215186481
-28926.104612449
-28926.5303849445
-28927.3941410378
-28926.9495411315
-28926.9017217748
-28926.842474323
-28927.0302961779
-28927.0450153522
-28927.2537505054
-28926.8814426374
-28926.9851480254
-28926.6077766656
-28927.0091460046
-28927.4855119199
-28927.0180241222
-28925.6915774597
-28926.4025845688
-28926.9098265453
-28926.9073538481
-28926.6612793891
-28926.6694976309
-28926.495006354
-28926.6865292274
-28926.0441124579
-28926.8789028642
-28926.7697675834
-28925.9249823049
-28925.7580644965
-28927.1356443163
-28927.0464361938
-28926.7251825702
-28926.7661098311
-28926.9966924491
-28925.3562400473
-28926.0272507965
-28926.5885421728
-28927.408589867
-28926.4889851582
-28926.4072220665
-28925.381160356
-28926.8087327685
-28926.7597918952
-28926.9958693051
-28926.8884584089
-28927.0167065477
-28926.694835498
-28927.0268652324
-28925.82159529
-28926.8713473552
-28926.995555422
-28927.1122375041
-28927.1113611619
-28926.664404751
-28926.9149528952
-28926.7620972425
-28925.9895079461
-28926.4007574614
-28925.6683779981
-28927.2529299466
-28927.1403378694
-28926.8847425602
-28926.9778687118
-28927.164595173
-28926.7721877627
-28926.3375533403
-28926.6648467997
-28927.1822709986
-28926.3517552264
-28926.7995241688
-28927.0038676791
-28926.8694761654
-28927.2068942952
-28927.503966671
-28926.9741508223
-28927.0115733949
-28926.8802909162
-28927.0987769918
-28926.4978850449
-28926.7787598528
-28926.5084362535
-28926.9749437616
-28926.6512768976
-28927.0095491411
-28926.5799690946
-28927.0178554117
-28926.4250272822
-28926.6004309563
-28926.4870716546
-28926.4122092303
-28926.9073254122
-28925.8274737622
-28927.0891791334
-28925.7188127756
-28926.890385382
-28927.010281263
-28926.8613342514
-28926.2591045936
-28926.4815247529
-28926.9393395889
-28927.0249480553
-28927.1862969208
-28925.3504994007
-28927.0240651824
-28927.0829831045
-28927.048683853
-28926.9696414902
-28927.0309189101
-28926.2091321372
-28926.4138133406
-28926.5829362224
-28926.4270620124
-28927.4490480039
-28926.9584705425
-28926.3979184991
-28926.396989639
-28927.587413194
-28926.8756086558
-28926.9425332513
-28927.0336464418
-28927.1338686383
-28926.2660611803
-28926.8157737105
-28926.8825558546
-28926.9704438174
-28926.1424627843
-28927.2531564812
-28926.4806795678
-28926.4132038059
-28927.0002651659
-28926.4455767645
-28926.7303622544
-28926.3083900989
-28926.3105363957
-28926.960764325
-28926.6768823886
-28926.4576465037
-28926.4742858482
-28926.8809394992
-28926.2729003499
-28925.602316139
-28926.8983589937
-28925.9454583165
-28927.4001422333
-28926.0843092296
-28927.0544555206
-28926.4135741526
-28926.9971169464
-28926.714792997
-28927.0235398669
-28926.3498848529
-28927.2856513468
-28926.4296574328
-28926.3804447179
-28926.7649383816
-28927.0329967703
-28927.167225288
-28926.8619198401
-28926.7870080271
-28927.00286943
-28926.9805766513
-28927.5565239354
-28926.4771551511
-28927.2069038191
-28926.9099763439
-28926.9638773057
-28927.0038678152
-28925.8017545278
-28927.1577326016
-28927.2960526208
-28926.7324421555
-28926.6133117304
-28927.1526315582
-28925.3633865694
-28926.9387167206
-28926.8803480601
-28926.9032604417
-28926.4325065993
-28927.0072375352
-28926.4999922933
-28927.041951488
-28927.3347626993
-28926.0078096332
-28927.4679241231
-28926.4051165868
-28926.9916695023
-28926.8874013832
-28927.017607244
-28926.9641593515
-28926.9538097791
-28925.923283363
-28927.2399539327
-28927.1396254758
-28926.6510013825
-28926.9476415058
-28926.8143339569
-28927.0012913066
-28926.9284636125
-28926.6164331466
-28926.7536398127
-28925.9647379803
-28926.9788446476
-28927.0321117205
-28926.4768833096
-28926.6735272267
-28925.3917757835
-28926.5318075549
-28925.4954342318
-28925.7703656683
-28926.9092353783
-28926.4899307533
-28927.1985231254
-28927.1059467796
-28926.4983642371
-28926.8731072506
-28926.7245111296
-28927.0148784879
-28927.0317616463
-28927.5105926396
-28926.5594134897
-28925.6222003034
-28925.9817518893
-28926.8701795793
-28926.2700420676
-28926.8592789766
-28926.8508229074
-28927.1597349502
-28927.1396443877
-28926.4116485401
-28926.9043314812
-28926.2554075208
-28926.8337289969
-28926.4940402143
-28927.262413245
-28927.0849514389
-28926.896705903
-28927.135119545
-28926.9851708829
-28926.4222524027
-28926.6548211786
-28925.9222260652
-28927.0701744405
-28926.6955504768
-28926.3089925586
-28927.1981784934
-28927.1667880013
-28926.7487140105
-28926.7337006814
-28926.6129456014
-28926.528526544
-28925.9242323595
-28926.6388708259
-28926.5029392847
-28927.2224811039
-28926.9507261866
-28926.6119642234
-28926.260113319
-28927.0054908373
-28925.6153252147
-28926.4628415624
-28927.1881071572
-28927.0014723983
-28926.4884221549
-28927.0988779459
-28926.4185282547
-28926.5035734457
-28926.9956163754
-28927.1212116778
-28926.5379839917
-28926.8796077747
-28926.8311992919
-28927.0167420585
-28925.640587026
-28927.2809949372
-28926.9856804158
-28926.930396164
-28926.3254849617
-28926.97230249
-28926.719055386
-28925.5715536853
-28926.7270055959
-28926.9119995092
-28926.6343568678
-28926.9846393088
-28927.0390927975
-28926.4948784606
-28926.9260369025
-28927.1736494843
-28926.9706919851
-28926.4802845947
-28927.0921202743
-28926.859164961
-28925.9182821853
-28926.7246865069
-28926.738141713
-28926.9944925458
-28926.4954675868
-28926.6719946823
-28926.454423453
-28926.873081944
-28927.1060073249
-28926.9876962341
-28927.217168356
-28925.7492008009
-28926.6632639143
-28927.0958663276
-28926.7845240372
-28926.3956822688
-28927.0607712796
-28927.1080668174
-28926.9903436283
-28926.4309905178
-28926.8689681291
-28926.8428789561
-28927.1915681713
-28926.9243620427
-28927.3343520797
-28927.5948726469
-28926.9716207092
-28926.271112835
-28926.7699826893
-28926.3828474819
-28926.4265073086
-28925.7449154183
-28926.5734874824
-28926.5272148199
-28927.1526280207
-28927.0965626665
-28927.1230828676
-28926.5061611109
-28926.6911536636
-28927.1980779474
-28926.6828680736
-28926.5778404852
-28926.8825603444
-28926.9688616123
-28926.6237676993
-28927.1044815833
-28927.0350456504
-28926.9279640118
-28926.6720583569
-28926.8972944849
-28925.9807717358
-28926.7407922365
-28926.9201642808
-28925.3708505121
-28925.4333542125
-28927.1005370232
-28926.5071945987
-28925.5578458217
-28926.6919768076
-28927.1444387589
-28927.1395404402
-28926.9013820408
-28926.982940503
-28926.0253681778
-28927.0785494199
-28926.5923708125
-28926.4741218997
-28926.8248299265
-28925.567991581
-28927.0200806215
-28926.8150096152
-28925.7022369696
-28926.4704661882
-28926.6660725358
-28927.1396219383
-28925.5834789321
-28926.2817122078
-28927.041192971
-28926.8715938902
-28926.6231083678
-28927.3328683798
-28925.6142341748
-28927.0456316897
-28925.5881810569
-28926.8098882994
-28926.8701545448
-28925.7465004806
-28926.8797530835
-28925.3512399581
-28926.7606350395
-28927.2378842359
-28926.9998125047
-28927.0550796134
-28926.6974520073
-28927.114362712
-28926.9138592703
-28926.8980712335
-28926.7966196272
-28927.0145379376
-28926.7467605062
-28926.8996558876
-28927.0244955302
-28927.1837117046
-28926.7888258827
-28926.9800509276
-28925.8511313272
-28927.3800142551
-28927.1071175487
-28926.9015721123
-28927.098389774
-28927.2506377968
-28926.8991530215
-28926.6780381915
-28926.8617705857
-28926.9804214104
-28927.086744124
-28926.872950241
-28926.9667935482
-28925.7931766876
-28925.8198540344
-28926.7801382447
-28927.1674326386
-28926.7344714434
-28926.9940432861
-28926.50434965
-28927.0363328843
-28926.3404223711
-28925.4668112721
-28926.9719227554
-28927.1864109365
-28926.8892906686
-28926.612300828
-28925.6609741925
-28927.0109287575
-28926.8371814394