0.179785838272528 0.233107147838445 0.406732883231381 -1.37351602304566 0.210046164175555 0.348492284530057 -0.866531508506566 1.02540091915438 -2.05139961948473 -0.25662475918672 0.928000639778491 -0.636497084467695 0.238075030798479 -1.36572095651102 -0.857938629073417 0.947531757736055 0.453231516975568 -1.06236873551706 1.99789524746837 1.07284674681352 -2.11135308622662 -0.72977614471687 0.776301260809927 0.839740370305627 0.166603799179217 0.561940530649881 1.66122257517078 0.862603379127444 -1.01380370723039 0.0145100131896045 -0.578763507047667 -0.606519065545836 2.19384843117149 0.466941660385198 -0.343306372134659 0.12397390236183 0.0819055341845805 0.39147005142533 -0.111644440636052 2.19993808586088 0.0627590530611027 -0.20439076858561 -0.705717830653298 -0.0523586890399688 -0.413585640944547 -0.897357991033027 -0.769058981169194 0.270771218577262 -0.545219369884648 0.90044742699451 0.0353881313970194 0.0100144416361318 -0.137893333460596 0.243344761113605 0.524350250533646 -0.541455791022782 -0.0148134032057954 -0.640253721354615 -0.397394384266916 0.342495960837172 0.160526999998986 -1.26073104163688 0.085742903669029 0.348929628951702 0.140840587490762 0.228354723211943 -0.876114005034901 -0.0734756626075882 -0.321682120175561 -0.519327345994404 0.817348901559823 1.50728710893881 -0.195899190564646 -1.01202244788109 -0.516231739388524
-0.790173383634981 0.202042838392512 -0.674306422460028 0.468199443401474 0.345847392075349 0.0610233022142343 1.63188887436805 0.424940397965767 -0.359021460752981 -0.661257309331438 -0.261018000887275 0.389243477238709 0.390810306695207 -0.816118372222967 -0.207850700321102 0.375299106452172 -2.16928361004699 0.321696518345821 0.395119730476033 0.184498153710449 -0.692100246909624 0.111697148223611 0.208788381159279 -1.29375478778908 -1.63470705908624 1.21013587134357 -0.991506340811643 0.985064188061068 1.35592403008989 1.11125823685494 0.337582071015613 0.546354768453715 0.190165633479005 0.252342331975131 0.652293934124279 0.776590766876225 0.709932123666336 0.44145509925388 -0.858231991792463 -1.20613369423168 0.0889799208756759 1.20617277497953 -0.13835227513763 -0.533157559859594 0.109479830003585 0.257316385579562 0.25250148317854 0.55536108106147 -1.25239090151383 0.534071586560915 0.149441437339591 -0.225947400566523 -0.0490512236431215 -1.56769926024755 -0.311339348835466 -0.260609709916333 -0.286256450691792 -0.534173916413834 -0.121264732361319 0.773945103090967 2.0213154140572 -0.310142500932612 1.98477131527646 -0.424577101276887 -0.361209725522303 -0.594727478323339 0.202334915560642 -0.972624168956508 -0.302616371649612 -0.83987021094815 -0.152541157708402 -0.076656886904478 -0.119979438555439 -0.440812838016215 0.275578150562606
0.0987002284622124 0.177440222071079 -0.337818098163802 -0.149337050605206 1.28338604832048 -0.594250281823296 -0.11196120038177 -0.915097308123782 -0.11425565165676 0.408889266337986 0.473871808263511 0.0989694228240361 1.31665919135039 -1.53101580774751 -1.0518508721422 0.465692362004968 -0.0208914879369419 1.0677929890523 0.213725153787144 0.496941276562447 1.72638200890235 0.767689869443587 -0.204152170335588 0.667951172951379 0.816764233003197 -1.88585485715017 0.0803114510486622 -0.860841917262254 -0.286929565151443 -1.26554671536845 -0.172198773876107 -0.240509092902953 -0.345165792979652 -0.754548967979589 0.0799013603064381 -0.162689553749988 -0.774903866964167 0.934709415789058 0.445124061568324 -0.710108758362203 0.146192335954333 0.713442706107921 -0.258898127426686 0.170360693176319 0.348554505194395 -0.127216833102691 -0.182715094589869 -0.0327830910207091 1.14978336959734 -0.0628883794832586 -0.226169029544452 -0.990343431452973 -0.849989039318666 0.686657224331013 0.388329450537388 -0.683380869266335 0.220270921941554 -0.301642181165419 0.569255829582647 -0.187683748880453 -0.355680828142499 0.589622555635652 -0.0113958946505332 -0.0959018412281262 -0.208896624546411 -1.06025528981105 0.618333278464456 0.684580545381205 0.0830902979088243 -0.112560009998472 1.27178369419283 -0.387754037947358 -0.468422615040503 0.194274768427109 -0.360928961202235
0.0418020020274416 -0.15350377823435 -0.483348889616729 0.402192831616213 -1.47182544402939 -0.0133938978842785 0.171217641416967 1.18405512857885 1.69535986552647 -0.609913434184609 -0.152533701513089 0.614201003599863 0.734234178183593 0.871712278698301 1.06722040467428 -0.338876620788088 -0.573449810891211 -0.539544176810596 1.11678482024309 1.74281932002532 -0.534579122062577 -0.849228764506906 0.584320943657808 -1.34812536401269 0.408713917193035 -0.297175663062649 1.52047429023579 -0.0375272881213484 0.147935028776148 0.189903895312494 -0.135809969646024 -0.752970568564847 -0.44627694362985 0.431444257160313 -0.671001528165013 -0.12117037292408 -0.453611268716173 -0.120337335930471 -0.832941348620753 -0.78823168753136 0.655931786106555 -0.568461873336887 -0.490115258308335 -0.309731381749655 -0.000115699582445682 0.482670890063597 0.384337043612462 -0.435277255771647 -0.646238217979072 0.273345148621404 0.0563454395408637 0.293297927279436 -0.0345584368357923 0.185185666340359 -1.05684446612055 -0.375320446597379 -0.390014807788347 0.237900967204444 -0.411610777627291 0.523244676745832 0.801474147517726 -0.604348027158789 -0.235401084893068 0.260020156266226 -0.163963277597623 0.493784734843146 -0.283468347865035 0.51298135245235 -0.879625358807036 -0.151351251780494 0.592864200825597 0.240146567544623 0.459463096486092 -0.857971796287051 0.242409137156894
0.0465204881097597 -0.290799587629159 0.437511286153582 0.799504683514317 0.151176673966093 -0.210763758696901 -0.636256686446392 0.0901240611909721 -0.144449643132517 0.174684258017223 -0.0700064749055002 0.615174679863689 -1.25602489684336 0.56902237353629 0.108511553053606 0.259614950617483 -0.467781896463937 -0.210551385685567 1.26558399634502 -0.569221119707913 0.157653022371035 -0.39440239306487 -0.0832252807550109 -0.793110096147636 1.08922183727215 0.945467162964858 -1.04386143030905 0.428038575673479 0.17636704416635 0.0956218482386077 0.603228569421081 -0.356207904018085 0.211938752234183 -0.00521033786280386 -0.520430091570203 -0.458785096932961 0.387127203320686 0.0724639340366465 0.389828402905518 -1.68325974608411 0.0362612775792095 -0.371763070102449 -0.560089594440934 0.533309769088056 -0.683699943003702 -0.49471341682491 0.710585954862246 0.605299077726492 0.529607896670161 0.199449110864263 0.182861647394301 -0.0482151013273141 0.348743738289239 0.356342372643905 -0.66530628049667 -1.67295991214462 0.0236104281244154 0.627177354546604 -1.57028296047865 0.880534757525059 -0.4703463134313 -0.27368093452068 -0.196290512263496 0.68368143107051 0.96451234267615 -0.204269669689317 -0.136213375523484 -0.138390327444745 0.335214343338408 -0.337660232511309 0.151438412132603 0.381383361827716 -0.206292869721017 1.06406437717535 -0.463940927436923
-0.174004201582626 -0.255769096496989 0.463231303331257 0.170296929850883 1.07490157139776 -0.147167554879258 0.480623007454308 -0.617216391828581 -0.126255241017476 -0.574153007242298 -0.239438228989872 0.110028246024378 -0.0166530265666818 -0.3165584284445 -0.480473883548045 1.25320876900663 0.0241125643122297 2.98236833921823 1.13293776750343 1.02313166467735 0.882438401321565 1.04615768135532 0.419564481144974 -0.410721690613742 0.857579703257652 1.52338272062829 -0.808652149612656 -0.509564615227638 0.0718111312814696 0.428681608241694 -0.775700651421943 0.221113986232309 -0.414150769127249 -0.173947123121952 -0.552473476593809 0.505247735251498 -0.0735597376374987 -0.365044009684553 -0.405316463232063 -0.838549435936986 -0.116906200535498 0.0697735330795096 0.0211663387227962 0.251130828791833 0.206349691071507 0.312757825716251 0.504061171755971 -0.756001126294374 -0.647818931385463 -0.0502059054759295 -0.463516181414256 -0.417526882943014 0.31707470569239 -2.01103486338145 -0.849775123646233 -1.3130154258339 -0.147642694497835 0.481011500941143 0.33016135690773 0.567372754600798 0.456926190308333 -0.862814209477678 0.600067656828665 -0.529004201959978 -0.00316116970259923 -0.465273786626698 -0.911760789276232 0.354483466019278 0.599251589107148 -0.164438674326383 -1.17231496339299 -0.304866857083272 0.443791716598916 -0.250011628164308 -0.473737596747874
0.122712519802989 -0.0254803904869209 0.702951839302296 0.738219900243756 0.079271183247384 -1.25405954660288 -0.0876779149078872 1.0610998967629 0.105977989308229 -0.382986186709863 0.0804443770133832 -0.723037286814867 -1.09712180476154 1.19731430072712 0.40190769642303 0.0748308903833019 -1.08488850224429 0.533075284600966 -0.517488493964067 0.499031068131599 0.994515815506147 -0.0858881709225441 0.459689353447319 -0.0292259716359624 -1.7926261904969 -0.802663282115084 -0.353332383729035 1.14222021644795 0.814315001397914 0.924193609295662 -0.620579135914819 -0.425989664623457 -0.65781537530877 0.614632177377111 -0.0553349965208381 1.17981820986969 0.244777379054466 -0.434973865755456 -1.1320805621526 -0.323150219321705 0.0457468435684729 -0.793999954491735 0.342427312418255 -0.118196636545043 -0.493606300375996 0.636075937987593 0.447274274030531 -0.491186636441782 -1.22838503792763 0.790095736359651 -0.535066088749582 0.0566146339026874 0.169686293165753 -0.153962462801201 -0.0575826537424829 -1.3193377652391 0.0559330348069907 0.222508294755871 -0.66135269720941 0.128278955269543 1.79541892130696 -1.06964855324454 1.76907746881646 -0.0181028708898178 0.735874798262673 -0.385318176071602 0.311285869917358 -0.472735638363895 0.269863105410155 -0.141857458265368 -0.255686049907811 -0.175467158525105 0.0517223413365175 0.346444916141135 0.112565152202137
-0.0647305739459771 -0.342861314407518 0.442070878142674 0.999639507237208 0.278558314696223 0.124341569923824 -0.132561639591315 0.564129309639571 -0.348241602101425 0.520544762711916 -0.332073742450465 0.346149496540624 -0.802157546384705 0.85376444524896 -0.528476611864025 -0.103619774707803 -0.328388839304662 0.586639820400202 -2.46275637225101 -0.963084352718587 -0.162607021381176 0.542961171145492 -0.731261213135106 -0.518760932260787 -0.605845693976002 0.153740062492722 1.06391088239597 0.387675105121112 -0.131431383225913 -0.579307809305528 0.694439692466676 0.0917037461566305 -0.257622089587402 -0.100329792803414 -0.661889543271958 -0.478178918052689 0.444710371283535 0.188267903216712 -0.644095461712178 -0.923495040927873 0.0727606391880738 -0.881900526818284 -0.785400904414189 0.715899136798335 -0.793460023106988 1.17053704647608 1.13351472275456 0.302437422962096 0.0219332983993195 0.0173348827725617 0.303700091071853 0.427335379322392 0.662818225253722 -0.243954626468185 -0.555090601148731 -0.295941791293412 0.395888747034022 0.391410144752642 -0.858673707087222 0.9325967414136 -0.373117783657796 -0.231716953077814 -0.0816821054353687 -0.0294357735454639 0.71098164743421 0.214763878927323 0.578988992678344 0.903701927693616 -0.123093299984327 0.179395287904228 -0.749518864355218 0.90597838125578 0.578970737855336 -0.720333773238386 0.0229031180103975
0.0451318360102283 0.169206525563878 -0.0431461740652772 0.28745355570483 0.35434436941016 -0.601878483849032 0.714460862433443 0.0141122637361746 -0.7271567061703 0.681172035682355 0.795476538273925 -0.481915243235135 0.341624614426265 -0.13306377577913 0.451510678519326 0.0906246547176871 -0.302324037371299 1.09671325668042 -1.59261580810269 0.905568033403373 0.46669612016023 0.62522665958657 -0.205752167005721 1.44714312355117 -1.3226336606777 0.0920475024715857 -1.39165643202223 0.26599719669537 0.356713382638281 -0.0428360991843227 -0.576797128366457 -0.377548820555283 -0.212225430088465 -0.420597292750939 0.203793501630007 -0.250667002021317 -0.795857575565446 -0.806473140809929 -0.228636515972744 1.23633077102964 0.201645603159449 0.153228413228129 0.0205762708523232 -0.166116318271845 -0.185120360353823 0.160342137777256 -0.218925464352803 -0.335584324892051 -0.208430998004613 -0.400232366469217 -0.225764852336442 0.453123787808802 -0.0436269701078848 -0.486065515812553 0.316967233635808 0.00384533990012803 0.145953223483945 -0.408620843306712 1.21317491370914 -0.517032380499048 -0.0112208026157654 0.0482420978965514 0.098687630063235 -0.404842866274585 -1.05634798635677 0.256219810648161 -0.438526871377271 0.219137837364136 1.18222321852346 -0.145005772458806 -0.184369855729026 -0.385100146636237 1.08611826025059 -0.682527006347886 0.81640993517073
0.0942028571374572 0.170567409763622 0.195031443696304 0.576197290309022 0.15663538026588 -0.112646399020032 -0.836357057404733 0.254344963192174 -0.956546554979856 0.0300826627664269 0.913906373755141 0.257922651391578 -1.73218164330508 0.147117932613898 -0.307987403376923 0.231511264931244 1.68728994820597 0.879772682942016 1.14893464888255 -0.239773757778965 -0.1643312022698 0.951452173809681 0.432236927855158 0.459420673305862 1.19294188495141 -2.0870718576342 1.41940684831674 -1.22504183421532 -0.430697609188264 -0.186207165098263 -0.688487077504937 -0.36412175545737 0.566953665002161 -0.37249866233662 -0.678985570684315 -0.630904166652271 -0.352293915699039 0.510085777569009 0.206786521272785 -0.403203531746422 -0.0623831579732458 -1.08919252671126 0.186556320727066 -0.0907591233435073 0.462848466268453 -0.538119529285415 -0.640506717774896 -0.890793453835242 1.90175737909205 -0.366913972047059 -0.166359544505165 -0.12312235343503 0.0411671969850896 0.67547421691218 0.273691733148375 0.962227147367756 0.178160387694258 0.340255759810841 0.876515611141079 -0.402920196324521 -1.23913610023867 0.581976098786909 -1.1832747991728 -0.0341576020601638 -0.493156357555374 0.424871492436666 0.609209723613156 -0.116990789785775 -0.453687630440587 0.153190103810831 -1.20915396755388 0.283009663298183 -0.145385267089228 0.0464433550547959 0.535192329849539
-0.628866825560494 0.151185158602139 -0.51259722983863 0.499088917922822 0.100198152389609 0.799686460413848 0.460928624530404 -0.997209044675299 0.147326448972484 0.298721666594307 -0.348403838627032 0.697788809713204 0.356870734070407 -0.641061561550269 -0.846034427590672 0.570888222135864 1.35459425622231 -0.857326963947554 0.632122611810516 0.076828636506864 -0.62049763198674 0.300207506343093 -0.432674272276802 0.697629915619978 1.0423658203733 -0.525668197332794 0.242027585645007 -1.3833129494668 0.074058274282748 -0.79690067157874 0.76769089788432 -0.0289729752156812 -0.56038218582943 -0.501397253147705 -0.634622237011709 -0.802323125342694 0.376885219172411 -0.521272384530408 1.01659489537935 1.01023630343832 0.779358815108692 0.429167546487965 0.207842729905422 -0.145690713986885 -0.472458730696575 -0.341461349459925 0.347111345736022 0.543591862424912 1.25727933742725 -1.38245394434469 -0.0925468104473847 -0.616324219492833 0.335345983752213 0.92850637550887 -0.848367445393144 0.412395477906456 0.427557008300322 0.297181062376497 0.974085583237889 0.547935481860107 -2.30938860530358 -0.0166990492894768 -1.32577991798968 -0.504814504592784 0.223968166376152 -0.377858638326054 -0.437832416772414 0.853896342772948 0.779774562274947 -0.181283762199925 0.0120726086527488 0.273073897378115 -0.325260579705514 -0.0203703255955699 -0.265954002184591
-0.0376435019241606 -0.0664025614674088 0.313692164122045 0.0797409235521134 -0.247808965224726 0.0531726998800199 1.4057764090639 0.034341692951344 -0.115427045651476 -0.557604367410001 0.418537583073223 -0.636429978709877 -0.152889542006655 0.513244376169777 0.581711532408383 0.188076099020036 -0.32729226437326 1.43246727429339 -0.552086525768074 1.39912753972602 0.515299200754012 0.890130366672737 -0.172372323249775 0.770829441890796 1.14551688321711 -0.221211173881563 -0.633789714238467 -0.0677775867272299 -0.101194711459741 -0.144707267536097 -0.484550108392698 0.243200522300823 -0.277955648426773 -0.284851857760902 0.273853198343432 0.255989439924002 0.384369953715914 0.0881168019906311 -1.24503883582487 -0.74027549615854 -0.0598665634999607 0.38485306375017 -0.943905218601841 -0.309751950564312 0.397607785718982 0.821639813407459 -0.721134157238727 -0.0553573651067776 0.0286379606469551 -0.0329514981907133 -0.270523107250462 0.0168101208886247 0.0109958312054544 -0.670599922058835 0.126340344488119 -0.381701664234533 -0.180065831262046 -0.157321350234691 -0.0738973233080569 -0.583662227368417 -0.733866767731783 -0.255997410339682 0.480409091781875 0.19627482854232 -0.121457307888545 -0.516273134128021 -0.0614048537261218 0.371791609332785 0.460472253955202 0.00704199080801061 0.18725128955229 -0.263823072986124 -0.516179288911149 -0.447420055504413 -0.0528510550408209
0.496490048190909 -0.192960678280709 0.352376190957667 0.509740221482772 -0.14925014736328 -0.926584733999539 0.160007637428897 -0.651547800372596 -0.0911252482444021 -0.439908838612039 0.337604439601552 -0.488791655085157 -0.750594870471962 0.181686396746836 0.735947046224156 0.563543098421846 0.50193307076952 3.75717090477021 -0.263178754866993 2.018528082561 0.191830421915307 1.47274666981585 0.128480529653181 0.664345459742005 0.191627561980752 0.906827873301115 -1.63652637074265 -0.530767720706633 0.184299921759192 -0.291078037957579 -0.305043748889322 0.0667236920862414 -0.58235559341733 -0.288336214963799 0.331490616554939 0.0492723384006844 0.0370832588349402 -0.602597621031477 -0.0640217211708599 -0.335394063356473 -0.60599918875538 0.620604589822957 0.443550033026697 -0.189890782693151 0.133108770061192 -0.35153929731131 -0.292367188416207 0.211983489406062 0.275201227034016 -0.389539411059587 -0.417707117181446 -0.594268793756487 0.853746190425952 -1.97480829567697 0.335296618597036 -0.801847985724117 -0.655787804403956 -0.0375113472899893 0.638076769433354 -0.722937270953597 -0.569377185589124 -0.192535160927492 0.694653865249292 -0.636241516945582 -0.487730047138672 0.317796156866485 0.611125708698457 -0.226751126999245 0.13989210802489 -0.0820618571759738 -0.768730651465231 0.035225637761229 0.0878123835337074 -0.59764953555555 -0.0524828732584605
-0.0249512577298693 -0.348689488040581 -0.156906888619352 -0.863522033812062 0.876850625709805 -0.0896265529864557 0.0227665925031116 0.692283566470255 0.194134386267075 0.927415971221866 -0.881996428916622 0.299455973277562 0.495247691785626 -0.258663642939597 -0.483824543455672 0.237715847872531 -1.13681370351536 -0.247201928082161 -0.58238438975785 -0.929482365764345 -1.66009823233959 0.78561790540882 -0.299328189516505 -1.71850800954147 -1.69562108947261 0.793608375682702 1.30189309641831 -0.161948562201969 -0.145682743571205 -0.243160670222425 0.30060268469469 0.579471588492234 -0.0321068912388599 -1.36278193000672 0.969862805588804 -0.135269524040911 0.318636650055407 0.0274004893351528 0.182356682994471 1.4431221773959 -0.574510390396963 0.158606644040571 0.620152333010686 0.0269898843725622 0.980606154594344 -1.29774616627327 0.384316217687622 0.255760868971126 -0.368180753919747 0.307521262614759 -0.135721266632815 -0.597938270291298 -0.123874143610744 0.0246758927236486 0.606483070120186 0.212868719766863 0.36646505766717 -0.265914407216376 0.841929920625866 -0.21281086997564 0.90301158685169 0.199198428435631 -0.273085724446542 -0.882124726898046 -0.507832463923334 1.0449940006661 0.186446277568651 -0.356758376920343 -0.57218997099347 0.535806308967051 -0.0914322378031579 0.377971766806667 0.720089261454151 -0.257238224083866 0.7735908052585
-0.46867612568115 0.050448360378699 -0.00381628644942501 1.03717939375753 -0.759256655434213 -0.400448339023115 -0.944065398245982 0.557644733708765 0.275758384801038 -0.302982496550507 -0.497938864073312 1.33938696021584 0.288849406889492 0.860136664029702 0.77984526757533 1.58592991489842 -0.608932815945836 0.187852927381007 0.902957079492848 1.03830502213964 -2.41878307472634 1.0454182324684 0.0282404683037084 -0.510653991073909 -1.68097892164883 1.45211152073157 0.104033979212958 -0.308484397361073 0.990694386853058 0.112631743739589 0.271281325180756 0.190067674499201 1.07808870922886 -0.527183604752649 0.539586857101009 0.069378611838095 -0.115125712516751 -0.591804649760578 0.100333135235796 1.00431634146985 -0.66923980918964 -0.232977307195922 0.135133255643808 -0.382215884600958 0.343804908779908 -1.4698541802547 0.12075745396984 0.443388567831639 -0.0722654449752063 0.0623613036076728 0.0809082037838987 -0.114255908766943 -0.317973562892902 0.694772393043753 -0.717737988828671 -1.48208362611921 -0.890809651776785 0.485124492541995 0.450495607516002 -1.2766957842431 0.0488733033963384 0.184203248330304 -0.262017388169422 -0.457395159282513 -0.501088463817667 0.859240892151389 -0.261968794344795 -1.47608061756156 -0.301952513156557 0.102825818462042 0.913529193116368 -0.8219056653369 0.533085569008295 -0.151967801999838 0.650635573442558
0.369144917106795 -0.123359923244319 0.0475085625438458 0.687208211453638 0.834937809193399 -0.74882518108091 0.531575560902287 -0.791530668292161 0.582671067612132 -0.586005272468034 0.486968743886179 -0.155133599685735 -0.915912604514749 0.309911615988087 1.14924035289039 0.546296918662492 -0.446270772985453 -1.18032831647318 -0.49966175941102 0.89069240953324 -0.242034527619954 0.607693801972935 0.324684910005301 -0.623784785679114 0.482810500893081 -0.117356143356121 0.0568020672262494 0.75698997205901 0.600193897928622 0.40452790630015 -0.539770433771823 0.424966366094271 -0.258403704544369 0.700394107199697 0.766741132867532 0.318417335069127 0.355019797861459 -0.0979533233799798 -1.88178120340735 -1.03296844317688 -0.238408759816289 0.665798646497522 -0.25334506168966 -0.0619170172110814 -0.0694323478663864 -0.495805620883197 0.438031162944037 0.0694313194256535 -1.02972756931748 -0.0899726232930599 0.783382075255603 -0.56676546034805 -0.36953752435656 0.516768071230706 0.541596173182816 -1.01372194619213 -0.459663899539181 0.257190915810155 -0.639601432819805 -0.499199475301604 -0.312596874741559 0.277573582694519 0.627759709111581 -0.822621717197147 -0.317122785296651 0.856175367436945 0.457213896603348 -0.750201491891647 -0.178868726249008 0.0159778552255654 0.302852655907984 0.436296954758268 0.746067931476138 -0.600599360687549 -0.217324439241938
-0.102618073434006 -0.173159594630772 0.423729666113018 0.679310815066079 0.00217206682778026 0.327649390417743 0.89576236523601 0.600754912348392 -0.518669401035563 0.091750283099792 0.139313867222845 -0.738180048165358 0.45567740614847 -0.301236204186126 -0.446751054807694 -0.162724520734904 0.433925113318132 -0.501874706757931 0.789645279318663 -0.867785691980277 0.38073467283547 -0.725404500271706 0.484119705946 0.655226532874002 -1.16568537731885 -0.0983757554109981 0.114272620928852 0.70988764360464 -0.212402321894515 0.216114735829922 -0.33133943576721 0.497961232659252 0.635773319301952 0.189191700104995 -0.203303706730987 0.404496281747615 -0.701981505470852 1.00183317132038 0.809768522028165 0.916671079555227 0.473463774402753 -0.728087959253896 0.987996786810791 -0.345549401373006 -0.560298110799519 -1.2851454533042 0.356394823121281 -0.134470168481303 -0.0261429634290598 -0.259648117831118 -0.0639101353513456 -0.114976074390121 -0.801183613010696 0.208136606844835 -0.100010461955864 0.610215795760067 -0.004989223105241 -0.394264839116851 0.791988324418279 -0.424550618928016 -0.486991626692485 -0.0766062361983851 0.27578255315826 -0.577755892239657 -0.607652921453804 0.148680134087098 0.366207947483957 -0.640297944306128 -0.563403487592361 0.219890913090766 0.0598634781777621 0.777632834448786 -0.126950981173249 -0.864804499405927 -0.69281372766804
0.0361931433806581 0.0356791801244161 0.242935955922297 -1.06065920990888 -0.779818271006093 -0.796723522662506 -0.0967526188243768 0.870324140819136 0.560198094938249 -0.697684680089003 -1.01396645797637 -0.139494101461277 -0.765564339558968 0.0310149442907558 1.13560142900151 0.0379821160354516 0.140928262063237 -0.0188184085296985 0.678525600566547 0.0291501241319147 -1.4281817617596 -0.832503232868558 0.119307609646704 -1.13746804893163 0.646504841239064 2.32860193507469 -0.140583991527916 0.749092318561268 0.299393752613225 0.971949254725575 -0.563088784728109 -0.432335915275695 0.984400329568013 0.670869373530842 -0.0296887699657451 0.22081316731795 -0.00921585740707336 -0.637052699573618 -0.0541648880770375 -0.209314171483948 -0.754742314837365 0.171865816188846 0.197862226813475 -0.0154631206387737 0.1254584565597 0.0280486641070318 -0.493923831452264 -0.383696067925713 -0.950072006346196 0.825817596774481 0.261182808514714 0.918061017205674 0.830999652517131 -1.40928262063237 0.48524893387067 0.216411183871166 0.273230991700057 0.201773386920505 -0.481937354710891 0.0233512610597371 -0.245240691604615 0.313479276890345 -0.920764787892338 0.278954264378371 -0.250808926842451 0.553691150421504 -0.0961813199972784 -0.438823576528699 0.3712645334572 0.182069233809639 -1.00908984913137 0.523160601715921 0.415091792397807 0.296543686232313 0.0100748625291867
-0.35530956103794 0.165804700729792 -0.21927102043904 -0.315322242683613 -0.115472297043722 0.239700224266566 -0.601626772979666 -0.545747217090784 -0.926210895793148 0.380189085026693 0.656569162250739 -0.123036992854204 -0.159079212557316 -0.112589320559358 -0.708420315789046 0.359417153324945 0.391021908375991 0.0185181038357062 -0.29585360250057 1.9098524932105 0.511401153266325 0.0328270568620384 -0.0188230365129963 -0.566802227104249 0.282992694026091 0.147006603904567 0.420239138265724 0.0670463653661732 -0.201835093364476 0.0317453943212629 0.293553751911733 0.853896599883131 -0.186915246542831 -0.0770710914096335 -0.0107135242242869 -0.0338506125014079 0.314411301304491 -0.264070927202741 -0.677572493117378 -0.942109046861918 -0.654180094428327 0.276248951030607 0.0184522836288037 0.159885510091871 0.497541628840249 -0.0279445344828307 -0.579299581779665 0.282409825240748 -0.0882785242958719 0.14983353036899 0.248343497295625 0.531907747258998 0.266049904282929 -0.73184896701393 0.0314265776940793 -1.22246790417118 -0.18021495516831 -0.0315839291262054 -0.3117998331736 -0.641594036739703 0.0665434578478093 0.695324151496928 0.673186450501954 0.461961179026186 -0.645205920593474 0.480241713052604 0.42020365706044 -0.0985590749716287 0.242093920072276 -0.431575897574118 -0.129758110153565 -0.0671970319335358 0.0648218480610176 -0.484722886435817 1.14126505211732
0.0287500606868358 0.190510418234693 0.419805907607011 -0.959836022663879 0.399842844541649 0.501296980176252 -0.452265296907055 0.494609544310892 -1.38838599049177 0.0946795394171334 1.11056429647045 -0.761963768553258 0.0481891331988096 -0.762620170851 -0.150886139459062 0.791515755901534 0.485506815384432 -0.859229579303328 1.01158510345945 -2.24417260733169 -0.0337220574098016 -1.9272511393085 -0.358240874236747 0.441792427814255 -0.87179943905041 -0.0122556711031962 0.0145899744565837 0.727645472628587 -0.839284771060975 0.596474284908085 -0.371821177003855 0.436953099945827 0.0185003632330645 0.515234408987842 0.0626464388008556 0.732815444192626 0.763381474103493 -0.150085498348538 0.187092138348881 1.08841451129686 -0.35788734773483 0.43580253187595 -0.39604301314395 -0.29913484265873 -0.0932690329520289 -0.162126739558935 -0.223206863123659 0.2243625733972 -0.0448600705465725 0.824280077878869 -0.0489509506716686 0.183646090563282 -0.266631487517356 -0.368991422327417 0.277533987726304 1.18362138369977 -0.515165503458741 -0.581869655171059 -0.930797484351478 -0.101212452062383 0.164476726633499 -0.286343096823535 -0.374078090192095 1.07195406025741 1.51679658617511 0.278193732456428 -0.346472684040922 -0.5421631011368 0.357875263556219 0.0664678674539448 0.586004501137484 0.967646772919695 -0.719128954919852 -0.0185116760811259 -0.480393150950516
-0.0341231492956133 0.0874465157429958 0.0375242027991499 -0.621819949659003 -0.685128961401997 1.35795262943544 0.438129121923842 1.18740116050318 1.00937781253657 -0.294879412016377 -0.670133781296671 0.38780057489052 0.7065999756919 0.287196188411434 -0.291499441547864 -0.392419302221751 0.00933978451538185 -0.186374286717351 0.815654802562635 0.985252906935546 -0.728894513898634 -0.267564026151868 0.583351895377279 -1.17223963010931 1.36722787929483 -0.0713213363824496 1.6778275221332 -0.308144497698866 -0.119389370684966 -0.152206400249859 -0.0229982487781862 -0.277908340153062 -0.82037945928935 -0.964669179887909 -0.228766870835632 -0.522592902431388 -0.555083402063601 0.0452845594590566 -0.631156905962369 -0.948387934646153 0.0455707230929722 -1.54877672209365 -0.582241436495984 0.0184944496988506 0.620820562376855 0.24305705481859 -0.2022451841067 0.0218461380472104 -0.372788425513101 -0.121449337472866 0.0487090099892655 1.18651541592201 0.557054408728109 -0.433841552508588 -0.262993378424897 -0.850501717023992 0.106113229264599 0.353428285827373 -0.460145466912339 0.230928396145901 0.0415955425503218 -0.015072827380657 -0.21377683293397 1.26895033997382 0.289379310977093 -0.142245951752202 0.0782160030554793 -0.146895789415602 0.317508193461287 -0.40458395632009 -0.00908267433216922 0.296277577192688 -0.466678122447405 -0.237729474712241 0.731298751221855