-9.39344659990435 1.23021384959158 0.552792170976609 1.23021384959158 5.13393165336095 -3.12176815100609 0.552792170976609 -3.12176815100609 -0.878437013515558
3.73357455735008 -2.82846557375006 4.1466620876559 -2.82846557375006 -9.20895768197693 1.65498125198957 4.1466620876559 1.65498125198957 9.50364432780019
-0.500042357127871 3.6618486460441 -3.17462788781695 3.6618486460441 6.60568775364819 0.112830070326289 -3.17462788781695 0.112830070326289 2.03606990543349
2.67214655389384 -0.0620319735725356 -0.470011492068828 -0.0620319735725356 0.300616487313057 3.54775171932156 -0.470011492068828 3.54775171932156 2.72463514691676
-2.68327548423056 -0.611891570050802 -2.49042249911727 -0.611891570050802 0.428562189140639 -0.695223106828148 -2.49042249911727 -0.695223106828148 -3.54039986251184
2.20178451576617 -0.161106184080451 -0.0268510306800752 -0.161106184080451 -3.65662217806842 0.158665181291353 -0.0268510306800752 0.158665181291353 -3.21480067324173
-5.79691279882893 0.318272546908956 0.182258637973505 0.318272546908956 0.413482283163771 3.84375306651585 0.182258637973505 3.84375306651585 -2.51353703712714
-3.78366403385232 0.96661172550796 -3.18470563467106 0.96661172550796 -3.27235808333173 -0.180174477802491 -3.18470563467106 -0.180174477802491 -8.40002632998101
-4.42717960299424 1.9679353235261 1.73577834434469 1.9679353235261 -2.4430472809206 -0.183565983538786 1.73577834434469 -0.183565983538786 1.30655788283489
-3.2808412214724 1.54800254815951 -3.2474680322086 1.54800254815951 -1.01146435153375 -4.5002462138037 -3.2474680322086 -4.5002462138037 -0.182268956748467
-9.27692863261134 0.887289502008941 -0.039611138482542 0.887289502008941 -6.85272695747977 0.969152521539528 -0.039611138482542 0.969152521539528 -4.73749216251203
-2.18662503791292 1.98738813240833 0.759590702236266 1.98738813240833 0.318779048807351 -1.41707249040143 0.759590702236266 -1.41707249040143 -0.806909467293607
0.120369621923271 -0.16285301789619 3.6441312990104 -0.16285301789619 -4.31914525724679 -0.667933392240896 3.6441312990104 -0.667933392240896 0.479118299027922
8.5193687816294 -1.67618959272983 0.826199257319733 -1.67618959272983 -3.04309517028499 1.36474275227422 0.826199257319733 1.36474275227422 -1.02085353260449
-6.08845379851395 4.49473554950778 -2.51230553245132 4.49473554950778 3.87279672062732 -0.703772885312096 -2.51230553245132 -0.703772885312096 -1.4505086502508
3.13866109860539 2.18597959309331 1.29225115104114 2.18597959309331 -8.13080651239022 -0.233454131301227 1.29225115104114 -0.233454131301227 3.02311309422398
-7.23849662392977 0.368017004583169 -0.484887269552149 0.368017004583169 -7.33050087507556 -1.52180004597905 -0.484887269552149 -1.52180004597905 -7.7880355294222
-6.72330064473251 -1.18042683075456 -0.00270120556236742 -1.18042683075456 -7.54716834125458 2.22849458895312 -0.00270120556236742 2.22849458895312 2.77954052367608
0.316801331270556 0.561827360925126 1.26473031468167 0.561827360925126 -1.47015617792742 2.15078403807901 1.26473031468167 2.15078403807901 -0.311851310469453
-7.74606294735667 0.500203280522117 -0.850548088337203 0.500203280522117 2.7885826610484 -3.07209869049414 -0.850548088337203 -3.07209869049414 -6.99272035482944
-0.704240755577002 0.097510258464508 -1.62246235611779 0.097510258464508 -0.920930218831464 -0.0893844035924657 -1.62246235611779 -0.0893844035924657 -5.29534875828092
2.08548880305819 0.282210640780809 -0.473539888767799 0.282210640780809 -0.791624763546169 4.33839069810499 -0.473539888767799 4.33839069810499 2.57577000102485
4.71608980140225 -1.11754528592857 0.267821310353251 -1.11754528592857 -4.06601443899936 -2.34952331355352 0.267821310353251 -2.34952331355352 2.98985971921629
-6.10372379139887 0.586470029209903 -2.39023499299834 0.586470029209903 -5.8203454159403 -0.133064628476197 -2.39023499299834 -0.133064628476197 -9.43526782287697
0.417225448007236 0.938757258016282 0.064570605048739 0.938757258016282 -1.5372770971219 2.05880890713095 0.064570605048739 2.05880890713095 -0.856802259300575
3.0718195812535 -0.101241642147422 -0.0518554752462407 -0.101241642147422 1.20749178073389 -4.06448153596725 -0.0518554752462407 -4.06448153596725 -1.55566425738722
-7.027854764962 0.429615112506328 -1.13483237265822 0.429615112506328 2.85734579544303 -2.90192849579746 -1.13483237265822 -2.90192849579746 -7.62769473336706
1.38755920204974 0.807839897422625 4.35103405891616 0.807839897422625 -1.32058801884372 1.48592312738358 4.35103405891616 1.48592312738358 3.03253888954763
-6.56771945002282 0.981669750875946 0.453461661572137 0.981669750875946 -6.09183386013118 -2.10286616685101 0.453461661572137 -2.10286616685101 -5.94981564744101
2.55070792929149 2.47048214798167 0.700795795559271 2.47048214798167 -8.56528194572442 0.054270381474287 0.700795795559271 0.054270381474287 1.99384662372924
-8.36787425708765 0.582816876914448 -0.596982564895008 0.582816876914448 2.77445117447815 -3.20954016245248 -0.596982564895008 -3.20954016245248 -6.27539977538786
-6.34782890910101 2.19722345120866 1.53726128070087 2.19722345120866 3.64967031642258 0.948861273260192 1.53726128070087 0.948861273260192 -5.08356402824874
-5.57188806608755 1.01307055747046 1.83111148890383 1.01307055747046 -2.72770601971325 -0.335884355952774 1.83111148890383 -0.335884355952774 0.736778587251246
2.52815193088854 -1.8563519342299 0.384563955684454 -1.8563519342299 2.23854203833605 0.992269959729024 0.384563955684454 0.992269959729024 2.35960846882931
-6.35955271105651 3.21292780319667 -1.7736024502599 3.21292780319667 -4.74065701658253 -1.35368411312671 -1.7736024502599 -1.35368411312671 -4.0665775806582
0.673697022779575 1.00924496076631 -0.772540601411327 1.00924496076631 -7.77222665662305 0.554044269699033 -0.772540601411327 0.554044269699033 -1.14450459468345
8.13780359682802 -3.28688084330584 2.19923000170894 -3.28688084330584 -3.07805188171923 0.757004985751444 2.19923000170894 0.757004985751444 0.356749476043784
-3.46423697490269 1.72571745830333 -3.33109556862409 1.72571745830333 -3.04176905113407 1.79740898476104 -3.33109556862409 1.79740898476104 -7.5583352179695
0.710090323145477 1.63134453247416 -1.65204687425682 1.63134453247416 4.96856202784007 0.370571917909739 -1.65204687425682 0.370571917909739 1.08480270941175
-0.0106893720565268 -0.847132735479746 0.745583700942742 -0.847132735479746 0.689464497645976 -1.09833297880813 0.745583700942742 -1.09833297880813 -3.57292260989407
-1.94619216259881 3.57562477321601 1.36636111829351 3.57562477321601 -3.01190014680808 0.0644256715894777 1.36636111829351 0.0644256715894777 2.17973522211066
-9.50350558985014 0.939530127738586 -1.15329962309484 0.939530127738586 -7.37900628414912 1.37762563674029 -1.15329962309484 1.37762563674029 -3.14320332060858
1.55961696036502 0.290445099035114 -0.573568052716401 0.290445099035114 -4.29077717734227 -2.14538858867113 -0.573568052716401 -2.14538858867113 -4.83261593352542
-3.25307621147133 2.65973162095713 -3.41560103409044 2.65973162095713 2.06896678953212 -1.19958797647436 -3.41560103409044 -1.19958797647436 6.04695530506645
5.8391282953116 0.529870282763272 5.28814764271712 0.529870282763272 -2.79923503961792 2.6324631179514 5.28814764271712 2.6324631179514 -0.261768585906955
0.620850005477748 -0.166635066405283 0.338645457533317 -0.166635066405283 1.04818832093646 -0.145133767514279 0.338645457533317 -0.145133767514279 -3.74928899411887
0.902600724805184 0.136830429026318 -0.0312069399533707 0.136830429026318 -1.83400785572117 4.97150558795621 -0.0312069399533707 4.97150558795621 1.89402120178535
-4.59919757711896 0.629223552579753 4.90314454743291 0.629223552579753 -3.86599216627391 1.10380741850855 4.90314454743291 1.10380741850855 -1.61305190385911
-1.78874692664595 3.6006242014813 -3.59291408541817 3.6006242014813 4.80854238470486 -0.645079710615136 -3.59291408541817 -0.645079710615136 3.45670203496955
0.508856188772069 0.425351583435114 -1.68053018240622 0.425351583435114 -6.70124457829063 0.641941653527841 -1.68053018240622 0.641941653527841 -0.242685259260525
1.14220863233308 -0.950562888653031 -2.43517858302779 -0.950562888653031 2.58082934822463 -3.84058070334813 -2.43517858302779 -3.84058070334813 0.725698549401776
2.34268268695985 0.652259906575214 5.13628460193794 0.652259906575214 -1.96516891466552 1.81626070448275 5.13628460193794 1.81626070448275 2.44754762370828
-2.58136427869913 -0.0956946905912559 -2.70815974373254 -0.0956946905912559 -0.188997013917731 -0.70096360858095 -2.70815974373254 -0.70096360858095 -4.78234216229802
-9.98791530687152 2.04776545594692 -0.612441052042095 2.04776545594692 -0.965876196612643 2.53879748886172 -0.612441052042095 2.53879748886172 -5.10457475975173
-0.687745275205554 -0.733594960219257 1.01593249425101 -0.733594960219257 -2.13804320642849 5.13757786285131 1.01593249425101 5.13757786285131 0.424712871705886
-12.5173488207474 0.779268994935518 -0.188005456820107 0.779268994935518 -5.37859089511438 1.65662779342935 -0.188005456820107 1.65662779342935 -5.95350613263674
0.117433668896038 0.654630239377913 -1.75400926734082 0.654630239377913 -0.757072376074457 1.30676189005591 -1.75400926734082 1.30676189005591 -1.98637801643298
-8.96981678070184 0.817115251841778 -2.72547474323999 0.817115251841778 -8.18696765232439 2.04015227395334 -2.72547474323999 2.04015227395334 -0.345297090294429
-1.34643121544418 0.608509813114856 0.636044193798787 0.608509813114856 1.18673180747739 -0.558947927883782 0.636044193798787 -0.558947927883782 -0.859072677338621
-10.5068466923419 2.74910325641921 0.303961514653004 2.74910325641921 0.102217146520479 1.94212578388911 0.303961514653004 1.94212578388911 -7.91913893042871
8.07547372076845 -3.77685037494713 2.59576595133649 -3.77685037494713 -2.23336296738203 0.534871873908697 2.59576595133649 0.534871873908697 0.90600745988616
1.15587417202187 0.610962062354418 3.09962992252396 0.610962062354418 -5.22738196979687 -0.915263630090788 3.09962992252396 -0.915263630090788 1.93667896985705
0.520443010573732 -2.98545036065477 3.48223687074788 -2.98545036065477 -5.53325546241799 2.74888535584853 3.48223687074788 2.74888535584853 -3.01856946132764
3.40286308639163 0.550679511201116 5.56774818767846 0.550679511201116 -2.39608642278348 2.12495032757377 5.56774818767846 2.12495032757377 1.6562421939942
-6.57587583523675 0.182890693632571 1.71698875066995 0.182890693632571 -4.68691523831528 -1.18196522899855 1.71698875066995 -1.18196522899855 -0.747941045601856
-3.64128134218247 1.71186839771167 -2.51212155186131 1.71186839771167 0.942693035956202 -1.16023758271533 -2.51212155186131 -1.16023758271533 7.50010723112407
-1.62992141546546 -0.382327245603009 0.910542519133481 -0.382327245603009 -0.669072679805265 2.16065199982227 0.910542519133481 2.16065199982227 2.51028020468291
-1.44696315462551 1.06386243368656 -0.0633907667740698 1.06386243368656 0.30592935269225 -0.733127998343589 -0.0633907667740698 -0.733127998343589 -0.672493351864044
-0.985497998099362 -0.0647044140166248 0.587316988766286 -0.0647044140166248 2.33184753590682 -0.699305397641214 0.587316988766286 -0.699305397641214 1.03278199295766
3.21936314045359 -0.0863430727324716 0.202289484687505 -0.0863430727324716 1.63805143698175 -4.17900472025163 0.202289484687505 -4.17900472025163 -1.70712589516772
3.18301669665707 -2.84367028850107 3.11199070425232 -2.84367028850107 -9.21233427412649 1.8571981717685 3.11199070425232 1.8571981717685 11.6166956466427
5.05304471354573 -1.951645343095 -3.59382840377794 -1.951645343095 5.15469290849859 0.0271061853207639 -3.59382840377794 0.0271061853207639 2.94553880485634
0.263976324775491 -2.6971494053148 -3.50285105745565 -2.6971494053148 4.04228093851861 0.114772315119779 -3.50285105745565 0.114772315119779 2.56630896607825
-8.69793875661576 -1.99605268837537 2.38770844495898 -1.99605268837537 -2.93642412423348 0.282310240786157 2.38770844495898 0.282310240786157 5.77741943468009
-4.77940455739298 0.878999096364795 -2.97733398657267 0.878999096364795 -4.42927399811675 -0.0122423272474205 -2.97733398657267 -0.0122423272474205 -9.07890988668707
9.79999695137232 0.363042412271355 -0.337264252820135 0.363042412271355 -1.89039835975617 2.42744334832326 -0.337264252820135 2.42744334832326 -2.50692600663119
-1.06519112677343 0.308606775046508 0.54255062064628 0.308606775046508 2.17766877552979 -0.783960759190726 0.54255062064628 -0.783960759190726 0.856134924322571
-0.868447054298697 -1.283044659317 3.40509748973613 -1.283044659317 -0.942044262290112 2.70347077355131 3.40509748973613 2.70347077355131 -0.326280955428606
-0.511379681218227 -0.858036099736352 3.15186899673926 -0.858036099736352 -0.983422463881206 2.38971658723133 3.15186899673926 2.38971658723133 -0.0909665779090115
2.85528755650908 -0.230305067437419 -0.849404711086395 -0.230305067437419 0.156013110199542 -3.59573073031325 -0.849404711086395 -3.59573073031325 -0.735490376654983
-10.0364674341402 3.11864604734095 1.01007694144978 3.11864604734095 1.70936097783808 1.58075701712299 1.01007694144978 1.58075701712299 -9.15231520422396
8.22668512802206 -3.84379480941681 2.43907846230382 -3.84379480941681 -0.979575986208274 0.363779896444236 2.43907846230382 0.363779896444236 1.12640281188155
9.06520449053104 0.808673123599233 3.27289752385831 0.808673123599233 -2.61492201646786 3.07974987491466 3.27289752385831 3.07974987491466 -2.30503677750333
-3.61533282273694 1.14113050550388 1.17531183400976 1.14113050550388 2.92907691965742 0.189311973263316 1.17531183400976 0.189311973263316 0.9413012003926
-2.64835755335221 -1.73995719049254 -0.0439105915581714 -1.73995719049254 0.321096200769128 -1.33927304252423 -0.0439105915581714 -1.33927304252423 -3.60890174368721
4.08706456871799 -3.98269379621446 2.80852260554968 -3.98269379621446 -3.0196362135682 2.74210484122925 2.80852260554968 2.74210484122925 4.84849679539151
-6.08037929890382 4.14636434183075 -2.16937127460049 4.14636434183075 3.51601872619211 -0.691742915863175 -2.16937127460049 -0.691742915863175 -1.38757898507465
-2.43599014623694 -0.20489636744049 -0.609629932755039 -0.20489636744049 -1.09783979591571 3.12656679205489 -0.609629932755039 3.12656679205489 1.11554688939823
2.79179909307787 -0.250332113384437 -0.410067842877364 -0.250332113384437 0.665168186992933 3.24239689716985 -0.410067842877364 3.24239689716985 2.72742797820758
8.26127829239636 -1.96877802050624 -1.93306322648345 -1.96877802050624 3.81925078581199 -0.14509135071758 -1.93306322648345 -0.14509135071758 2.04913630705751
1.5499893980228 2.4472148045964 -2.8555173809212 2.4472148045964 -2.74889059347333 -2.20535404282439 -2.8555173809212 -2.20535404282439 -0.257464681886338
1.41591809451524 0.266094952245105 -0.610309523497948 0.266094952245105 -4.00118923605255 -2.08969980845697 -0.610309523497948 -2.08969980845697 -5.40001866390984
-5.25953567890185 1.72742095994265 0.922288247011225 1.72742095994265 -4.16026779530199 -2.16613104500744 0.922288247011225 -2.16613104500744 -4.36466681220718
8.54960065436501 -2.1056483237881 -1.53745750625798 -2.1056483237881 3.4492524923005 -0.149289352056934 -1.53745750625798 -0.149289352056934 1.85609000393173
-5.07762694373726 -2.68195722282755 1.36781806471857 -2.68195722282755 1.98214332925061 -0.0994053826103615 1.36781806471857 -0.0994053826103615 1.59843855237461
-4.75539896531238 0.222412869201692 2.46242819473302 0.222412869201692 -5.09431381361972 1.04322226744603 2.46242819473302 1.04322226744603 4.35028981069501
1.70494551389474 -1.81825719410722 5.1306474738069 -1.81825719410722 -8.25857687874208 0.96710201483674 5.1306474738069 0.96710201483674 2.00271806887172
-5.99861442754115 3.76500065947037 -1.83848319315084 3.76500065947037 3.21632193367479 -0.675611863852757 -1.83848319315084 -0.675611863852757 -1.40650106202074
-0.331716081423425 0.383546719145835 0.554587823629788 0.383546719145835 -8.24884599352156 0.378363655373594 0.554587823629788 0.378363655373594 -1.20506232704603
-1.54692129583221 -0.763415704436673 1.58207859801021 -0.763415704436673 -0.524848296800213 1.63481455127722 1.58207859801021 1.63481455127722 2.95070214708253
1.54362542249874 0.21118002522784 -3.336141589016 0.21118002522784 1.89810617913118 -1.40786683485227 -3.336141589016 -1.40786683485227 -1.74726330396844
-12.5117522230418 0.921344717078024 -0.0190811036081248 0.921344717078024 -4.96653868200047 1.73092868445132 -0.0190811036081248 1.73092868445132 -6.65657928729152
-0.0875156623056873 1.23132501616141 -4.28216170909689 1.23132501616141 5.09219039741464 -0.759147489302822 -4.28216170909689 -0.759147489302822 -8.72103751115977
-6.94412222071041 1.13610938168047 -1.64597310419074 1.13610938168047 -1.46862920070891 -0.917200500820091 -1.64597310419074 -0.917200500820091 -2.71834952055743
-4.08751306128159 2.16588344527665 1.04430973943719 2.16588344527665 -2.54223373323611 -2.00387835443317 1.04430973943719 -2.00387835443317 -3.1503759204024
-6.10910431105449 2.3108830103583 -0.437938496599488 2.3108830103583 -5.91905552951132 -1.90048781543174 -0.437938496599488 -1.90048781543174 -3.74313469735034
-0.818417631787228 3.72264571700084 -3.30445739731019 3.72264571700084 6.26769365033291 -0.0769671754031876 -3.30445739731019 -0.0769671754031876 2.28079396444779
3.14776983668741 0.969669036378939 0.801560585348419 0.969669036378939 -9.10709260800119 3.40358704477733 0.801560585348419 3.40358704477733 -3.29151474409032
-6.54442806297127 0.254126016641473 1.6449877636362 0.254126016641473 -4.97868389592219 -1.35260621760784 1.6449877636362 -1.35260621760784 -1.01377152875254
-3.92585086858858 -1.42170731043537 2.35335641916764 -1.42170731043537 -7.0277577277203 2.24295869241035 2.35335641916764 2.24295869241035 2.91342293539976
-8.13290539003975 -2.1549913084339 2.25240327717307 -2.1549913084339 -1.99793935883401 0.226631927270724 2.25240327717307 0.226631927270724 5.01572239038629
-2.70538832125493 0.539632220802407 -3.02097680752776 0.539632220802407 -1.27199023474853 -0.582995524259743 -3.02097680752776 -0.582995524259743 -6.44667778065733
3.54626240443016 -2.86752672168314 3.64623122592003 -2.86752672168314 -9.23922371243229 1.76786968529456 3.64623122592003 1.76786968529456 10.6677255563533
-6.19450315798791 2.78835382579064 -1.0701100735972 2.78835382579064 -5.59601376115649 -1.70721168957904 -1.0701100735972 -1.70721168957904 -4.04325094817911
0.153727613299599 3.37944536570284 -2.89520338380911 3.37944536570284 7.00741703957337 0.461182839898796 -2.89520338380911 0.461182839898796 1.79092669494032
3.39676210746515 -3.87524603055299 2.78326044370401 -3.87524603055299 -5.18515498831326 3.47966773770314 2.78326044370401 3.47966773770314 3.39202464288012
-4.37419022023967 1.95843838567139 -1.65614644487515 1.95843838567139 -1.33835235326884 -4.6093061741923 -1.65614644487515 -4.6093061741923 -5.5316841473911
0.241271444347367 -2.833756767923 3.54574406937945 -2.833756767923 -5.35291449566757 2.54754260355014 3.54574406937945 2.54754260355014 -3.37780022086314
-8.10147345135945 2.79012296320234 1.44564577196457 2.79012296320234 3.34655015719975 1.253957934798 1.44564577196457 1.253957934798 -7.65153950023236
8.98104558841657 -2.65152567853523 -0.259388381595838 -2.65152567853523 2.29015554007265 -0.0886797885797735 -0.259388381595838 -0.0886797885797735 1.38118770712997
-6.81290806999148 0.378494892777304 -1.7861000822563 0.378494892777304 -6.69911221987543 -0.507133679865016 -1.7861000822563 -0.507133679865016 -9.24220208768634
1.92145324231659 2.20943517789721 0.660942147234208 2.20943517789721 -8.12486739564338 0.0613731993860336 0.660942147234208 0.0613731993860336 1.30063972545017
2.14321843198874 -2.33105105861248 3.33041695667464 -2.33105105861248 -3.37376294743397 3.30151962950176 3.33041695667464 3.30151962950176 -6.27071999651538
0.152360700893333 4.19660176144795 1.21353961764164 4.19660176144795 -4.15917983491274 0.334124344064327 1.21353961764164 0.334124344064327 2.64893779974198
-1.18597577740912 -2.73722284688577 -3.0423862048156 -2.73722284688577 3.2088389455046 0.0231184362068055 -3.0423862048156 0.0231184362068055 2.02286316809548
-5.20583213680607 0.233881403420364 -3.63698721723352 0.233881403420364 -8.76923868779499 2.90380843572474 -3.63698721723352 2.90380843572474 2.94059876884705
-0.170012705692828 -0.364664933949834 2.67831610272614 -0.364664933949834 -1.1210982766701 2.22002098303243 2.67831610272614 2.22002098303243 -0.00492790451283559
-1.15234896978969 -1.94381111318735 1.214570836409 -1.94381111318735 2.2026540783237 -0.47039731164201 1.214570836409 -0.47039731164201 1.60034640944874
-1.68168222717833 -0.246713859675863 0.591609765549264 -0.246713859675863 -0.73762409066355 2.39413143420149 0.591609765549264 2.39413143420149 2.28336194618376
-0.690104907377762 -1.08304720339357 3.30562706523298 -1.08304720339357 -0.947973289138136 2.52956603060176 3.30562706523298 2.52956603060176 -0.194015258657805
0.785647481656225 0.351535960260593 3.31481895413512 0.351535960260593 -4.8601615982337 -0.894175362005133 3.31481895413512 -0.894175362005133 1.51939032488471
-0.336443995750509 1.56799516538046 -0.207681478858339 1.56799516538046 3.04876410964041 0.494281919682847 -0.207681478858339 0.494281919682847 2.65832292938674
-0.668512012218223 -1.16694322980849 3.88823594385581 -1.16694322980849 -4.08902577084715 0.380319554654183 3.88823594385581 0.380319554654183 -1.99372487036106
8.60137107456911 -3.5624506957604 1.72071429529625 -3.5624506957604 0.330060286821531 0.187034162532201 1.72071429529625 0.187034162532201 1.14420899431464
6.91740742345003 -2.70649356363396 1.40932727908147 -2.70649356363396 3.61353464982479 -4.28650061699864 1.40932727908147 -4.28650061699864 4.46449523875115
0.116063611518154 0.13334968131873 2.02987848229623 0.13334968131873 -1.30386355067203 2.16322816361496 2.02987848229623 2.16322816361496 -0.0864303490028807
0.383831206882132 0.219332118218361 -1.71026830277413 0.219332118218361 -6.43635323105072 0.681496224464194 -1.71026830277413 0.681496224464194 -0.0156665798727401
-0.982992552789596 -1.21940848320735 0.890914769363735 -1.21940848320735 2.43383978893221 -0.517626458177812 0.890914769363735 -0.517626458177812 1.41351840502403
0.256331089511801 1.8021644966697 -2.19189237766214 1.8021644966697 -3.15444177501257 -2.25728296172127 -2.19189237766214 -2.25728296172127 -1.08809931874397
-11.7240469905376 0.0598026973781192 -0.921505200508291 0.0598026973781192 -6.65984584438145 1.58748978494644 -0.921505200508291 1.58748978494644 -2.41385433053499
0.677635934706057 0.766249864629157 -1.45952355167458 0.766249864629157 -7.18554719994077 0.589022004782957 -1.45952355167458 0.589022004782957 -0.661998182366687
0.441572382105253 0.919509548619173 -0.202603798848292 0.919509548619173 -8.04440980811745 0.519496920123827 -0.202603798848292 0.519496920123827 -1.29354733110833
-6.40669913163172 3.25309960221334 -1.91261251039221 3.25309960221334 -4.38905876662259 -1.24098701902616 -1.91261251039221 -1.24098701902616 -3.98553069362077
-5.01293798463346 2.13639320244911 -0.738101298350939 2.13639320244911 2.74942733635725 -0.578179350374902 -0.738101298350939 -0.578179350374902 -2.07078419815125
0.166540458358934 0.963915986259285 -3.57304983388258 0.963915986259285 2.52586361844383 -0.968962666815616 -3.57304983388258 -0.968962666815616 -4.26696841037814
-11.7156925347141 1.21686047286504 0.436541873673557 1.21686047286504 -3.06670666255674 2.16633904810503 0.436541873673557 2.16633904810503 -8.19880206493149
-5.12854441241139 0.81428825677694 -2.85981960060817 0.81428825677694 -4.79498054818951 0 -2.85981960060817 0 -9.2269651264905
-5.19831545141468 0.722135752188352 3.52306670277185 0.722135752188352 -4.20803370300933 0.953112996454479 3.52306670277185 0.953112996454479 1.07523889572163
-0.388707207691643 1.49454803385182 0.318033169929526 1.49454803385182 2.4486475436404 0.561235005757987 0.318033169929526 0.561235005757987 2.93505121529732
-4.63027573370518 2.71121553723024 -3.57236505282552 2.71121553723024 -1.51531650667062 0.840706797124174 -3.57236505282552 0.840706797124174 -11.642128169294
0.243981815690716 0.791643125379451 0.077866536922569 0.791643125379451 -8.14483976210072 0.48536808015068 0.077866536922569 0.48536808015068 -1.30556226906841
-4.76083411440078 -2.07773471587534 0.135950543137522 -2.07773471587534 -5.39954515668838 0.784922003775128 0.135950543137522 0.784922003775128 -0.0359114642250059
2.76236034813073 -0.417857045414702 -2.83992662602208 -0.417857045414702 0.640547327102777 -1.87910563536791 -2.83992662602208 -1.87910563536791 0.447882701372645
-6.79909368516483 -1.08054056121201 -1.45457383240079 -1.08054056121201 -2.15276927195317 -1.91726684194542 -1.45457383240079 -1.91726684194542 -1.6041871408763
-9.43919227272749 0.923341893642991 -1.71477780247984 0.923341893642991 -7.6610995975407 1.60133865554656 -1.71477780247984 1.60133865554656 -2.2186586644393
-1.5294489946286 -1.44461426434016 1.96089419438119 -1.44461426434016 -1.89302641015045 4.9252620556027 1.96089419438119 4.9252620556027 -0.690797089491521
-8.98653342308214 1.4810888167967 -1.17568181625285 1.4810888167967 -1.20541170126154 3.12163792591274 -1.17568181625285 3.12163792591274 -2.66487878350646
1.22787195372861 0.235022366143367 -0.184660430541217 0.235022366143367 -1.64036018818432 4.86112587931229 -0.184660430541217 4.86112587931229 2.11999767010956
3.72120260737736 -2.72642567273192 4.56860518133457 -2.72642567273192 -9.11878856758312 1.52637730712791 4.56860518133457 1.52637730712791 8.16611859313432
-0.256251652327194 -0.928912239686078 0.712699908035008 -0.928912239686078 0.453778967662739 -1.29994327795149 0.712699908035008 -1.29994327795149 -3.57951526844549
-12.4430699905891 0.615481247072258 -0.373101463933183 0.615481247072258 -5.75447732329062 1.6040639580777 -0.373101463933183 1.6040639580777 -5.15533628631763
-2.66542238293782 2.38338054832762 -3.63351192335661 2.38338054832762 1.75831486081313 -0.0203273394313656 -3.63351192335661 -0.0203273394313656 -9.64024072532516
0.565922369125111 -2.22683871758067 1.308201941652 -2.22683871758067 -8.50726091633655 1.90044628143409 1.308201941652 1.90044628143409 12.8872368336583
7.14006720194678 -3.04993658711613 1.27649103166841 -3.04993658711613 2.54323785698821 -4.06333404737196 1.27649103166841 -4.06333404737196 5.37149374967337
8.07878898709492 -3.66325654475559 2.52066938436754 -3.66325654475559 -2.57736264041733 0.599640208218922 2.52066938436754 0.599640208218922 0.760997936976013
-0.147682871993135 -1.23156966465704 4.78914456320595 -1.23156966465704 -7.639951431502 0.71204241853833 4.78914456320595 0.71204241853833 -0.91510636752889
-1.59962174252693 -0.362228394588742 -0.208876227536574 -0.362228394588742 -1.73182188653742 -2.46949869011595 -0.208876227536574 -2.46949869011595 -2.77355902134008
-4.99107068271109 -1.73180446411367 -0.58493100631568 -1.73180446411367 -3.49426033467184 1.89017006407687 -0.58493100631568 1.89017006407687 -0.0587485290186055
-12.2658581918935 1.1319393261365 0.25639107628152 1.1319393261365 -4.05316105696104 1.92838820139398 0.25639107628152 1.92838820139398 -7.70809767629334
-5.87163890289617 5.03750635680228 -3.19341920833002 5.03750635680228 4.67155114662874 -0.701243782623045 -3.19341920833002 -0.701243782623045 -1.82977605086771
-10.469838611878 2.59255710548688 0.0807650188625197 2.59255710548688 -0.234218554701307 2.0675844828805 0.0807650188625197 2.0675844828805 -7.32807937812595
0.0608968142047177 -1.89287597486331 -3.27574113076211 -1.89287597486331 2.85453816584614 -2.60080143999315 -3.27574113076211 -2.60080143999315 -1.55033139496177
0.58225423232939 0.990352064810257 -0.491277008527923 0.990352064810257 -7.92021716923059 0.540664644305862 -0.491277008527923 0.540664644305862 -1.23988959295142
-4.09838436209442 0.958729198989945 -3.13965516310447 0.958729198989945 -3.66659029537376 -0.107338638054854 -3.13965516310447 -0.107338638054854 -8.6651555084282
-1.41981072964612 -1.83047908883829 2.81207663032203 -1.83047908883829 -0.272944214341141 0.505823222907435 2.81207663032203 0.505823222907435 3.64342965015009
-7.1463826228989 1.1660203774957 0.506878274066 1.1660203774957 7.68932338286683 -2.72071421415663 0.506878274066 -2.72071421415663 -1.04380861971694
-7.14686366212391 0.847657569626671 -1.36491825907937 0.847657569626671 -0.858490254222539 3.89705828336351 -1.36491825907937 3.89705828336351 -0.262692601449799
-0.351613733895773 1.40853549022153 0.89255793988927 1.40853549022153 1.82880752718571 0.64705249255376 0.89255793988927 0.64705249255376 3.15412083186978
-0.33262468536952 -1.01299335998899 -3.30608778185462 -1.01299335998899 1.61020586326608 -0.776124265862212 -3.30608778185462 -0.776124265862212 -2.66855713489637
2.87571490052041 -0.352330902393355 -1.35473713173783 -0.352330902393355 -0.260526371488044 -3.2106773781479 -1.35473713173783 -3.2106773781479 -0.0570676813735716
0.716268926035748 0.890778082560821 -1.2684471526524 0.890778082560821 -7.4023137737949 0.573015140828599 -1.2684471526524 0.573015140828599 -0.849104254136923
4.57306264745116 0.507649976064362 5.6136397768113 0.507649976064362 -2.66463576647891 2.39711897411304 5.6136397768113 2.39711897411304 0.718293119659533
4.4223302724653 -3.96583166369469 3.17884708294952 -3.96583166369469 -0.392303491912245 1.78557528743088 3.17884708294952 1.78557528743088 4.5673636846268
-3.3265053819964 1.15128272205032 -1.46834026627185 1.15128272205032 0.990155117609865 -0.927783141697433 -1.46834026627185 -0.927783141697433 7.48203827716221
-6.40143059263894 0.52843289323324 1.41828102950683 0.52843289323324 -5.47325053664895 -1.66743850766344 1.41828102950683 -1.66743850766344 -1.60446463955792
2.14264791623653 -2.43213332619614 -3.78382504356663 -2.43213332619614 4.77309014531839 0.123088284549758 -3.78382504356663 0.123088284549758 2.89713351227301
-1.08290387144314 -0.486608737812385 -0.502563122658693 -0.486608737812385 10.2068177054254 -2.06210424138527 -0.502563122658693 -2.06210424138527 -2.73617700114177