8.936549 0.000000 0.000000 0.000000 8.385943 0.000000 0.000000 0.000000 5.366994
10.138648 0.000000 0.000000 0.000000 6.167616 0.000000 0.000000 0.000000 4.925518
8.708323 0.000000 0.000000 0.000000 8.798925 0.000000 0.000000 0.000000 5.388155
8.905296 0.000000 0.000000 0.000000 8.573112 0.000000 0.000000 0.000000 5.062244
9.057275 0.000000 0.000000 0.000000 9.112556 0.000000 0.000000 0.000000 5.179527
8.896574 0.000000 0.000000 0.000000 9.302524 0.000000 0.000000 0.000000 5.065534
10.219661 0.000000 0.000000 0.000000 6.281726 0.000000 0.000000 0.000000 4.990417
9.248126 0.000000 0.000000 0.000000 8.989189 0.000000 0.000000 0.000000 5.121937
8.859863 0.000000 0.000000 0.000000 9.138853 0.000000 0.000000 0.000000 5.127385
9.109483 0.000000 0.000000 0.000000 8.870531 0.000000 0.000000 0.000000 5.201287
9.210847 0.000000 0.000000 0.000000 9.101683 0.000000 0.000000 0.000000 5.217343
9.397880 0.000000 0.000000 0.000000 8.881263 0.000000 0.000000 0.000000 5.196235
8.411652 0.000000 0.000000 0.000000 9.025027 0.000000 0.000000 0.000000 5.057698
8.815614 0.000000 0.000000 0.000000 9.332774 0.000000 0.000000 0.000000 5.242685
9.074481 0.000000 0.000000 0.000000 9.055758 0.000000 0.000000 0.000000 5.376784
9.283295 0.000000 0.000000 0.000000 8.903478 0.000000 0.000000 0.000000 5.067117
8.994138 0.000000 0.000000 0.000000 9.470685 0.000000 0.000000 0.000000 5.167233
8.940769 0.000000 0.000000 0.000000 8.669386 0.000000 0.000000 0.000000 5.316203
9.058088 0.000000 0.000000 0.000000 8.677475 0.000000 0.000000 0.000000 5.170681
8.923206 0.000000 0.000000 0.000000 8.915997 0.000000 0.000000 0.000000 5.635114
9.000484 0.000000 0.000000 0.000000 8.593830 0.000000 0.000000 0.000000 5.252094
8.951942 0.000000 0.000000 0.000000 8.905972 0.000000 0.000000 0.000000 5.058910
8.653028 0.000000 0.000000 0.000000 9.234292 0.000000 0.000000 0.000000 5.387240
8.980701 0.000000 0.000000 0.000000 9.297450 0.000000 0.000000 0.000000 5.033575
9.057815 0.000000 0.000000 0.000000 8.752252 0.000000 0.000000 0.000000 5.173454
10.096668 0.000000 0.000000 0.000000 6.290100 0.000000 0.000000 0.000000 4.869577
9.977897 0.000000 0.000000 0.000000 6.555981 0.000000 0.000000 0.000000 5.035431
9.981908 0.000000 0.000000 0.000000 6.957171 0.000000 0.000000 0.000000 4.960733
8.271308 0.000000 0.000000 0.000000 9.215811 0.000000 0.000000 0.000000 5.091787
8.851396 0.000000 0.000000 0.000000 8.903800 0.000000 0.000000 0.000000 4.894288
9.187480 0.000000 0.000000 0.000000 8.358324 0.000000 0.000000 0.000000 5.045145
8.167444 0.000000 0.000000 0.000000 8.877288 0.000000 0.000000 0.000000 5.194564
8.937893 0.000000 0.000000 0.000000 9.510075 0.000000 0.000000 0.000000 4.990942
9.678258 0.000000 0.000000 0.000000 8.861866 0.000000 0.000000 0.000000 5.024750
9.240959 0.000000 0.000000 0.000000 8.539544 0.000000 0.000000 0.000000 5.235708
9.608709 0.000000 0.000000 0.000000 5.719418 0.000000 0.000000 0.000000 4.648103
9.505959 0.000000 0.000000 0.000000 5.894698 0.000000 0.000000 0.000000 4.706405