5.08331 -0.905835 2.69024 4.07548 4.30148 4.98392 1.99322 0.550001 2.78211 6.53521 0.31658 -0.0186963 8.33383 4.59604 2.14003 2.49068 5.47522 2.3048 3.4589 1.24763 0.156517 7.89854 1.57315 2.62674 6.98574 5.59665 4.81806 3.68226 5.29824 3.25491 3.31506 0.602841 1.51837 6.86153 0.692568 1.75751 8.1934 5.09444 4.14896 5.90466 4.49364 4.82488 9.34682 1.40653 1.98836 4.66755 0.704114 4.67648 1.28241 4.38383 2.20171 1.91901 7.07613 2.65096 2.19058 0.98644 4.61663 7.45883 3.02094 2.32636 7.3196 5.7468 0.968305 7.86468 1.32189 4.10035 6.44241 6.95184 4.21506 3.05322 5.48888 0.930373 3.44362 2.73967 0.450736
5.20318 0.0255568 2.47346 2.90341 4.65071 4.88571 2.32705 1.62034 2.41589 7.50295 1.56802 0.0612159 8.07931 4.59839 2.53104 1.20824 4.67368 2.16821 4.12902 1.60754 4.64277 9.19811 1.54505 2.77871 6.27734 4.61119 0.304164 1.39993 4.67189 3.69298 3.94886 1.57423 1.24583 9.00643 1.54684 1.25395 6.4575 4.6445 3.7011 4.77165 4.67285 0.674194 0.560973 1.54737 3.12981 5.63471 1.54588 4.27274 9.84539 4.67136 1.81712 1.96617 5.87144 1.47687 3.4092 0.392407 3.92243 8.4662 2.76589 3.4654 7.00312 3.40207 0.991458 8.44018 0.347292 3.47006 6.99716 5.82632 1.0245 1.94016 3.45284 1.48153 3.40324 2.81666 3.95547
5.27457 -1.27575 3.49563 3.89641 4.46914 0.171971 2.24144 0.32925 2.79487 6.41556 1.60918 4.49038 8.11496 6.02618 1.5053 2.49609 5.85527 2.95639 3.707 1.36306 -0.0608544 7.80892 0.275732 1.69242 6.7471 4.90466 4.25572 2.64013 5.02515 4.26231 3.27963 0.971657 1.34735 7.41422 1.36085 0.676884 7.05516 5.72954 3.0439 5.46234 5.54424 5.09016 9.36573 0.393855 1.84709 4.78115 0.335184 4.79136 1.03089 5.83354 2.43003 3.00981 7.35545 3.25201 2.54579 1.44111 4.32459 7.21386 0.408543 3.10808 6.71209 3.40715 3.94555 7.46548 -1.10656 1.10252 7.95244 5.09647 -0.114082 3.38781 5.29973 1.81375 4.43917 2.72151 0.114832
5.41317 -1.03307 1.58142 3.83574 4.67597 0.374981 2.0087 0.320833 3.17873 6.49526 1.60687 4.18866 8.34261 5.72489 1.57668 2.23297 5.67103 2.86173 3.8156 1.40467 0.67451 8.26616 0.528406 1.62843 6.52696 4.86239 4.07215 2.6303 4.73738 4.00678 3.59221 0.510707 1.90573 7.92853 1.48764 0.432976 6.82374 5.33471 2.61563 5.28645 5.70418 4.54971 9.41397 1.1307 2.39493 5.11038 0.749902 4.97949 1.07437 4.98664 2.17881 1.93896 7.08833 3.50683 2.65743 1.22129 4.76368 6.92413 0.575947 2.59637 6.04604 3.41912 4.1405 8.55304 -0.911837 1.12575 7.77202 5.09384 4.91167 3.36454 5.90431 1.76846 4.23192 2.83399 1.10867
5.08423 7.54101 3.04547 3.62022 4.74167 0.207441 2.05335 0.232288 2.68337 6.71664 1.57651 4.20105 8.36412 5.95085 1.89105 2.43287 6.00351 2.64643 3.53279 1.41584 0.289394 8.00914 0.154482 1.59959 6.76682 4.69777 4.51939 2.34393 5.44416 4.06999 3.47921 0.905243 1.70951 7.98257 1.13776 0.401256 7.65789 5.70844 3.50346 5.35053 5.37875 4.57015 9.29558 0.671467 2.37303 4.95378 1.20464 4.92805 1.20887 5.77833 1.76156 2.6338 7.59585 2.87018 2.57845 0.695392 4.56068 6.93683 0.279529 2.75508 6.87812 3.3744 3.80752 8.01359 -1.33925 1.26673 7.50488 4.64131 0.682374 3.65593 5.56792 1.77916 3.28919 2.98344 0.255691
4.88128 -1.08434 1.83618 3.76679 4.64641 0.564013 1.97174 0.249601 2.65141 6.70066 1.42247 4.0958 8.24604 6.11889 1.917 2.53191 6.36099 3.00701 3.55875 1.35858 0.0941194 7.74736 -0.05519 1.47785 7.01611 4.61222 4.57531 2.73304 5.46813 4.2429 3.46409 0.583337 1.48854 8.02502 0.59585 0.0831614 7.32193 5.50939 3.3668 5.62793 5.05755 0.132257 9.01746 0.280234 2.42372 4.95159 0.859621 4.54703 1.17621 6.29487 2.3134 2.75885 -1.43151 3.3044 2.38764 1.29908 4.14092 6.51186 0.519299 2.26657 7.19822 3.21752 3.97004 7.49972 7.71628 1.29414 8.04327 4.66441 0.689568 3.70283 5.90717 2.03506 3.65842 2.86316 0.668985
5.36927 0.39611 2.36913 2.82478 4.6309 0.074707 2.30951 1.63585 2.44794 7.51274 1.45805 4.93124 8.18901 4.42272 2.65691 1.1938 4.72405 2.22616 4.08801 1.59596 4.58707 9.21126 1.48905 2.77168 6.27659 4.78165 0.186319 1.40215 4.74596 3.70515 3.86208 1.47344 1.09148 8.87717 1.46995 1.30438 6.55402 4.6407 3.67019 4.75364 4.66213 0.517736 0.515163 1.4431 3.08938 5.6017 1.59991 4.37273 9.88131 4.6911 1.86793 1.93034 5.88857 1.41698 3.47805 0.310788 3.86333 8.58186 2.62311 3.54899 7.13897 3.71945 1.03082 8.3245 0.250537 3.40805 6.85701 6.07102 0.841838 1.88423 3.46023 1.61073 3.37191 2.80073 3.86588
5.07333 -0.744715 1.54091 3.75991 4.75844 0.350224 1.96023 0.481341 2.53358 6.65977 1.26647 4.08608 8.31029 5.95535 2.29591 2.3686 6.2661 2.84923 3.55205 1.48899 5.05908 8.0279 0.00414417 1.43389 6.97157 4.52599 4.99283 2.92292 6.02514 4.26368 3.46505 1.21337 1.44545 7.99949 0.206457 -0.0919626 7.10431 5.24893 3.61632 5.70421 5.02276 0.541708 9.45104 0.230862 2.05528 4.92053 0.676158 4.58881 0.726864 6.41454 2.98602 2.76019 -1.38517 2.22135 2.38287 0.911284 4.30004 7.18305 1.04767 2.28097 6.81636 3.00871 4.75073 7.40206 7.51115 1.65771 8.25474 4.82177 0.84167 2.81796 5.04932 2.02186 3.74543 3.0372 4.70805
5.33255 7.43194 4.04665 4.08088 5.05794 0.630279 1.96379 0.383202 2.44737 6.26434 1.36788 4.65456 8.45353 5.90038 1.91022 2.7945 6.40472 3.06893 3.14893 1.79343 4.90844 7.60338 -0.242456 2.17143 7.20937 4.379 4.70898 2.97734 6.10484 4.51094 2.01472 1.04576 0.629001 7.15297 0.925897 1.3189 7.77221 5.37517 3.63546 5.84576 4.95816 -0.0690809 9.08293 -0.151334 2.61328 4.40867 0.804791 4.95257 1.53087 5.91629 2.31893 2.96261 -1.20548 2.82608 2.71679 1.87795 3.43279 6.6746 -0.0415608 3.42748 6.98156 2.97723 4.08364 7.26412 7.47558 1.59023 8.30813 4.32068 0.646406 4.0398 5.81 2.36568 3.61632 3.16059 0.226614
5.1995 -1.09959 3.20105 3.63693 4.4037 4.72691 2.18497 0.278851 2.87953 6.77456 1.70009 0.394211 8.11776 5.96889 1.79033 2.25672 6.06459 2.13542 3.75623 1.30874 0.214118 8.03343 0.230878 2.94753 6.81282 4.81792 4.44195 2.46165 5.27111 3.4995 2.66737 1.43409 1.39811 7.8259 1.40645 1.91596 7.64494 4.61801 3.10104 5.28799 5.17042 4.17677 9.54896 0.305414 3.41249 5.08752 1.09003 1.0494 0.793075 6.23127 1.6855 2.82024 7.39422 2.42003 3.52596 0.0994607 4.42401 7.06171 0.58337 4.09307 6.73254 3.43644 0.0199634 7.50149 -1.14128 2.44689 7.56726 5.89208 0.0591829 3.08509 5.43442 0.98508 3.89814 2.52898 4.50184
5.50535 -0.917574 4.45149 3.44664 4.48262 4.50847 2.32939 -0.207101 3.22708 7.10965 1.95783 0.315113 8.09709 6.21321 1.56495 2.1289 5.66568 1.96756 3.73237 1.23588 0.520143 8.21953 0.254649 2.89095 6.49494 5.00251 4.25017 2.51246 4.4517 2.80465 2.96925 1.07551 1.74427 8.01928 1.3014 1.82427 6.93481 5.12325 2.77671 5.00648 5.43896 4.44781 9.79483 0.360362 3.31558 5.4132 1.05167 0.695797 9.78623 5.81626 2.17056 2.5705 7.03076 2.52358 3.46361 0.0722323 4.62822 7.2818 0.641756 4.05495 6.96246 3.65663 4.85957 7.9713 -1.03861 2.09339 7.18218 6.2493 -0.162222 2.53702 5.59917 0.523961 3.4872 2.67478 -0.0836021
4.95209 7.83805 2.16408 3.65273 4.77283 4.55098 2.14045 0.366298 2.85969 6.88501 1.67984 0.301777 8.22222 5.89405 1.55303 2.17109 5.94154 1.94599 3.716 1.4972 0.191078 8.13022 0.169998 2.81705 6.80252 4.59162 4.13552 2.2511 5.31438 3.33484 2.72554 1.57616 1.37116 7.64964 1.33265 1.93028 7.87045 4.97534 3.0502 5.31822 4.99254 3.68506 9.69388 0.0427542 2.88718 5.11948 0.949085 0.639886 0.760098 5.7259 1.39676 2.60526 7.43859 2.2083 3.2273 0.410913 4.31419 7.48248 0.360263 4.27186 6.82479 3.04346 4.21047 7.62452 -1.17091 2.11912 6.98021 5.35782 0.255854 3.42288 5.54598 1.01506 3.73587 2.93842 4.80969
5.11435 -1.28212 0.286577 3.56445 4.51871 4.01986 2.6776 0.0752904 2.7942 6.75117 1.7141 0.319618 7.8422 6.24513 1.60796 2.68277 6.34092 1.58339 3.62549 1.5671 0.110035 7.73167 -0.075081 2.86867 6.80921 4.55618 4.08804 2.56638 5.26252 2.68552 2.67276 1.13227 1.21058 7.7401 1.01515 1.82841 7.71521 4.97798 2.97839 5.35742 4.32785 3.5426 9.20842 -0.397329 3.37545 4.95214 2.00936 0.701164 1.32335 6.63205 1.08767 3.60732 7.50684 2.01911 3.92527 0.369555 4.16484 6.8212 0.349546 4.08273 7.34208 3.28473 4.65872 6.91678 -1.30689 2.3968 6.74848 5.63293 0.244297 3.42651 5.78296 0.353257 2.90511 2.68614 4.34041
4.97481 7.51771 1.91483 3.75697 4.74745 4.17416 2.20305 0.0739925 1.71062 6.75571 1.51183 0.14941 8.24898 6.10577 3.11845 2.32677 6.02893 1.44986 3.64041 1.4491 4.48314 8.08921 0.0906143 2.88719 6.70291 4.97978 0.339046 3.48159 5.81674 2.54422 2.42181 1.39577 0.258116 6.87539 0.577301 1.9661 8.04814 5.39943 4.80362 5.31309 5.48327 4.89888 9.36207 0.79981 2.26683 4.94996 0.890254 5.14611 0.980171 5.65881 2.0824 2.65553 7.51777 1.1606 3.36029 0.448282 3.24165 7.93288 0.56474 4.37444 6.57641 3.39231 0.621802 7.96083 -1.37158 2.62703 6.84092 5.53444 1.77247 2.58621 4.90206 0.380507 3.80644 2.89118 3.95208
5.24116 -1.21261 3.76117 3.63566 4.71858 4.54619 2.08113 0.286281 1.5848 6.75846 1.24739 0.207127 8.15213 6.07998 2.41871 2.42955 6.04538 1.97599 3.58568 1.55291 4.47319 8.06702 0.144699 2.80675 6.83164 4.71791 5.00737 3.6341 6.01286 2.97705 2.60601 1.49516 0.397071 6.85003 0.505803 1.97462 7.63377 4.77453 3.65977 5.51984 5.4629 4.87584 9.3212 0.573487 2.06731 4.86693 0.83644 5.02133 1.08285 5.89916 2.71041 2.36639 7.36103 1.22202 3.04399 0.56221 3.415 7.82749 0.772938 4.19398 6.85247 3.22922 0.105745 7.97207 -1.33756 3.20257 7.62536 5.5672 0.694031 2.92356 4.99073 0.900757 3.52118 3.07005 3.87723
5.04573 -1.16241 2.77642 3.88075 4.84168 4.10782 1.80186 0.4825 1.71948 6.49752 1.43005 0.555711 8.68123 5.66731 2.75391 2.39484 6.18301 1.51962 3.45741 1.59959 4.31723 7.99496 0.035089 3.06529 6.90071 4.64588 0.0824432 3.7678 5.79302 2.38463 2.28729 1.07605 0.0752548 6.81874 0.338377 2.11921 7.70326 4.39983 3.82226 5.49701 5.38273 4.97627 9.33357 0.731317 2.52773 4.81979 0.916314 4.82257 1.21524 5.61747 2.38593 2.38869 -1.18896 1.26293 3.18229 1.24136 2.78657 7.79734 0.619554 4.55608 6.664 3.21832 0.768883 8.01916 7.38231 3.21763 7.86447 5.40057 1.07764 2.50576 5.48806 0.0783481 3.56823 3.08019 4.46657
6.19956 -1.51394 0.253984 3.48105 4.53957 4.30115 2.3249 -0.326029 1.2005 6.74393 1.84672 4.81105 8.15722 6.42141 2.7532 2.23339 5.90097 1.69975 3.61581 1.18995 3.79997 8.09804 0.270002 2.3574 6.73642 4.94532 0.0655574 2.63245 5.7906 3.21234 2.50409 0.599779 4.71551 7.23673 0.525494 0.945524 7.71351 5.61681 4.26995 5.2868 5.28027 4.63077 9.61046 0.0205814 2.05322 5.01654 0.886782 4.2579 9.6923 5.99108 1.68002 2.71094 7.2736 1.02083 3.45677 0.689813 2.42052 7.98414 1.30892 3.46306 7.0368 3.47046 0.38741 7.47833 -1.22799 2.8353 6.81297 5.94803 1.31955 2.7842 4.78327 0.801949 3.47461 2.73138 3.59064
4.75848 6.63385 2.59427 3.42058 4.28839 5.01364 2.36203 0.0231222 2.10802 7.15828 2.06345 -0.0752783 8.04267 6.33825 2.92532 1.97149 5.36294 2.22956 3.98475 1.04124 4.79249 8.34988 0.847106 2.63666 6.49871 5.21631 0.206053 3.14856 5.13038 3.27273 3.48348 0.0594989 0.566142 7.51691 0.831288 1.27137 6.5191 5.72947 4.06119 4.9309 5.03239 0.530207 0.915676 1.1493 2.19798 5.48194 1.2808 4.90932 9.53653 5.15865 2.95054 2.12212 6.83365 1.74953 3.70079 0.212788 3.43512 7.92769 1.98227 3.60234 7.33206 3.92137 0.330232 8.29905 -0.521142 3.34192 7.10668 6.2017 1.27679 2.08269 4.49102 1.01938 3.20452 2.39997 4.67174
4.88497 7.18172 2.29018 3.79884 4.91211 4.77399 1.95286 0.380526 2.8041 6.47077 1.56778 4.14973 8.4094 5.66576 0.877737 2.31499 5.83618 2.24962 3.7856 1.50448 0.1927 8.13707 0.444582 1.64057 6.7238 4.68107 3.5204 2.94111 4.74261 3.10478 3.35045 0.93435 1.58054 7.75781 1.38323 0.481174 6.986 5.28295 2.1455 5.52885 5.52346 4.19733 9.46019 1.09404 2.22828 4.93491 0.590684 4.78757 0.942183 5.27019 1.7272 2.34677 7.11357 3.08848 2.55844 1.09961 4.48028 7.06719 0.284971 2.84294 6.21304 3.22283 3.42656 8.49045 -0.973147 1.1784 8.05661 4.95518 4.2805 3.1763 6.21012 1.03744 4.24098 3.03263 0.320825
5.16896 -1.02749 0.395659 3.56695 4.67381 4.27967 2.32027 0.214675 2.36732 7.00951 1.65534 5.2197 7.9602 5.87128 1.43005 2.39788 5.93363 1.50183 3.6201 1.48267 5.19529 7.84593 0.0907729 2.31412 6.85745 4.79275 4.24679 2.58663 4.86157 2.63548 3.23733 1.24515 1.04435 6.99455 1.06501 1.3736 7.74775 4.94296 2.96115 5.36482 4.91314 3.73553 9.25225 0.334658 1.72086 5.14182 1.11986 4.95957 0.909297 6.19464 1.21013 3.03621 7.24133 2.08924 2.8921 0.449595 4.23869 7.80464 0.602158 3.74602 7.02982 3.59216 5.18075 7.43311 7.53577 2.04995 7.3627 6.00944 -0.48654 3.32087 5.53276 0.335057 3.20851 2.90892 4.93363
5.59124 -0.825291 3.96888 3.38959 4.60259 3.96024 2.50593 0.00547636 2.58893 7.02547 1.92931 0.0828509 7.78661 5.91844 1.37121 2.14171 5.69484 1.51676 3.79883 1.40468 5.18188 8.09966 0.277194 2.55457 6.69561 4.88452 4.09426 2.50697 4.43796 2.25112 2.69037 0.750529 0.793193 8.07287 1.36649 1.51456 7.00884 4.60264 2.64515 5.20406 5.34674 4.34012 9.67364 0.290616 2.87156 5.26724 1.39898 0.543925 9.66053 5.84073 1.54793 2.86189 6.85162 2.21301 3.92029 0.577165 3.80866 7.06857 0.703636 3.69453 7.18433 3.82146 5.13723 7.40176 -1.00329 2.1567 7.6976 6.03118 4.63273 2.49444 5.55637 -0.0217189 3.49599 2.93377 4.78928
5.39388 -1.23227 0.528477 3.60285 4.67583 3.73001 2.20363 -0.100034 2.61092 6.80666 1.67233 0.08972 8.29812 5.97179 1.36786 2.52403 6.12828 1.21639 3.31578 1.6473 -0.0016977 7.99172 0.156568 2.52589 6.81053 4.57114 4.07118 2.39867 4.86693 2.08668 2.75924 1.44976 1.451 8.15183 1.29365 1.48853 7.72816 5.29629 3.12083 5.44018 4.13613 3.45146 9.38855 -0.0610599 3.16606 4.91116 1.72951 0.205086 1.04257 6.54573 0.92383 3.35716 7.25595 1.97579 3.16464 0.296786 4.25464 7.11828 0.403237 3.79535 7.59484 3.35811 4.59958 7.22606 -1.10788 2.0226 6.64697 5.65308 0.0595575 3.18878 5.99562 4.90041 2.84604 3.11015 4.52327
5.69681 7.08178 0.513401 3.69298 5.05845 3.9289 2.25077 0.309015 1.97111 6.60313 1.28902 4.79453 8.31524 5.95151 2.54982 2.82662 6.41279 1.46588 3.31391 1.81038 4.68151 7.67588 -0.160608 1.97496 6.90283 4.49587 5.06449 4.01435 5.69179 2.12719 3.07053 1.62362 0.745438 6.77111 -0.199463 0.648224 7.60387 4.66119 3.61518 5.41051 4.79251 4.84684 9.12523 0.0691294 1.52728 4.65056 0.988905 4.16713 1.44813 6.11721 1.97771 3.04244 -1.34425 1.64345 2.16395 1.04325 3.77131 7.20658 0.890688 2.96158 7.09391 3.03669 -0.00173685 7.621 7.7372 2.71719 7.45814 5.35815 0.75851 2.77333 6.06277 -0.0487848 3.09622 3.31771 4.26294
4.96956 7.7271 0.539152 3.6375 4.3875 4.71165 2.20796 -0.0776712 2.15235 6.85919 1.65034 4.9253 8.0627 6.38035 2.53174 2.38814 6.15485 2.2481 3.57124 1.23391 4.68734 8.05198 0.182519 2.52331 6.84075 4.85169 0.00502776 2.38329 5.05042 3.32572 3.14442 0.0747561 0.577418 6.9514 0.495808 1.47799 7.99302 5.32481 4.0827 5.40565 4.97151 4.40136 9.36693 0.0192063 1.75979 5.09755 1.03676 4.39517 0.865838 6.45129 1.8146 2.97577 7.51624 2.91702 2.81488 1.34321 3.28379 8.24458 1.29672 3.60813 7.15939 3.4152 0.644989 7.6701 -1.18416 3.20826 6.85807 5.87302 1.17167 3.37551 5.86311 1.10828 3.36216 2.61316 0.294374
4.99803 -0.801099 2.59396 3.91037 4.86147 5.04743 1.99413 0.457351 2.87073 6.49713 1.41271 -0.27903 8.41678 5.73428 1.35707 2.51354 5.99964 2.4539 3.43075 1.65947 0.244191 7.89262 0.0869502 2.41189 6.95896 4.5479 3.97628 2.61842 4.93864 3.61035 3.33126 0.824378 1.60739 6.8592 0.950879 1.61152 7.53068 4.56885 2.61356 5.63838 5.34541 4.27508 9.25937 0.663129 2.16053 4.65414 1.05984 4.63749 1.1673 5.90973 1.67865 2.62878 7.37248 3.18052 2.18374 1.376 4.57412 7.52778 0.117187 3.91215 7.08879 3.08134 4.48727 7.68402 7.44111 1.84422 8.01042 5.36806 4.79245 3.7076 5.87723 1.4434 3.66842 3.11775 0.583384
5.14062 -0.0629835 2.36765 2.95738 4.6494 4.74004 2.24369 1.465 2.40634 7.51387 1.43398 5.06728 8.10151 4.61497 2.56944 1.19837 4.84715 2.07775 4.15574 1.61936 4.64776 9.16493 1.46048 2.77877 6.30362 4.67491 0.41968 1.53301 4.83131 3.52207 3.81672 1.6348 1.2802 9.11739 1.44838 1.26779 6.60128 4.60059 3.75033 4.78172 4.80302 0.632733 0.545874 1.5893 3.18386 5.67115 1.5875 4.38726 9.80385 4.79977 1.77669 1.78777 6.0183 1.2855 3.49771 0.303673 3.90381 8.40034 2.71391 3.44646 6.9367 3.44147 1.20794 8.3594 0.308115 3.49736 7.06852 5.86878 1.14105 1.84642 3.58443 1.37497 3.54061 2.89413 3.94254
5.18399 6.22425 2.15302 2.92566 4.72339 4.84825 2.36846 1.90761 2.67064 7.51107 1.23576 0.118935 8.08265 4.34147 2.32842 1.24263 4.85181 2.11895 4.17895 1.51841 4.87917 9.08052 1.43323 2.90511 6.20245 4.71267 0.0796687 1.42665 4.86793 3.66228 3.94103 1.55806 1.37077 8.96227 1.27077 1.37629 6.53777 4.87872 3.58221 4.72499 4.75732 0.426307 0.601375 1.62424 3.03586 5.71535 1.59908 4.50465 9.71582 4.73504 1.75026 1.88371 6.07326 1.47675 3.31707 0.357606 4.25996 8.3485 2.67334 3.32963 6.91673 3.52694 0.782064 8.61753 0.305082 3.77649 6.8117 6.01703 0.715435 2.08518 3.58675 1.45285 3.61997 2.8009 4.10908
5.40838 -0.189626 2.22699 3.16034 4.45851 0.0853835 2.10594 1.03404 2.20336 7.33481 1.72454 4.83752 8.17274 4.98624 2.92865 1.40873 4.93833 2.20286 4.16936 1.56986 4.61849 8.87305 1.32472 2.57639 6.33409 4.64897 0.527213 1.92963 4.91278 3.66454 3.93919 1.72067 1.21821 8.55834 1.1855 1.09119 6.60246 4.88254 3.97307 4.82636 4.97891 0.817582 0.345246 1.34724 2.64349 5.59032 1.11685 4.21274 9.8707 4.86517 2.09626 1.86362 6.18321 1.44762 3.18473 0.591108 3.91452 8.23605 2.68742 3.17883 6.7605 3.2035 0.907855 8.28314 0.148201 3.36954 7.22742 5.64262 1.38689 2.04824 3.75498 1.4439 3.87899 3.00234 3.94105
5.24144 -1.27261 0.548448 3.69778 4.46953 4.28817 2.38056 -0.0598256 3.41078 6.96538 1.60289 0.358582 8.09283 6.20519 2.00217 2.96061 6.38512 1.71353 3.4214 1.72257 1.01093 7.46704 -0.233957 3.02109 6.8253 4.56169 4.50701 2.97083 5.37059 2.85362 2.41807 1.46545 2.26703 7.65767 0.958059 1.97847 7.85997 5.46588 3.80076 5.47045 4.4456 3.82933 8.75923 -0.476135 3.82703 4.8927 1.4137 1.42242 1.49078 6.57663 1.26314 3.51431 -1.4458 2.31873 3.0836 0.676388 5.03832 6.40522 0.302628 4.0923 7.44956 3.04882 4.44865 6.90572 7.71659 2.34117 6.7004 5.31644 0.76178 3.74193 6.13543 0.405745 3.01276 3.2259 0.419814
4.53576 -1.19461 4.46885 4.03993 4.796 4.62967 2.10621 0.470652 3.24433 6.47208 1.54377 0.600126 8.22978 5.81426 1.80594 2.6638 6.19153 2.15742 3.49538 1.86547 1.05769 7.79265 -0.151655 3.09668 7.02719 4.5044 4.11398 3.54429 5.07961 2.79833 2.41534 1.8558 2.17614 7.71083 0.747675 1.81373 7.13859 4.4035 2.63366 5.79153 5.28211 4.62289 9.28281 -0.000358403 3.72943 4.76539 1.36494 1.78928 1.26331 5.69823 2.12265 2.92423 -1.2505 2.69815 3.30119 0.898098 4.80797 6.67663 0.137482 4.2107 6.81357 2.93433 4.45628 7.43191 7.2589 2.61887 8.22338 5.03101 0.0908596 3.12596 6.29711 0.555347 3.35567 3.19974 0.238908
4.88895 -1.05703 2.33152 3.72903 4.52208 0.896745 1.94409 0.669233 2.81827 6.80739 1.70673 4.02084 8.39441 5.59673 2.27888 2.28785 5.80982 3.34325 3.73627 1.40533 0.246334 8.11533 0.44475 1.37486 6.55547 4.73976 4.92965 2.27768 5.17984 4.73361 3.55518 0.312341 1.37732 8.18667 0.662411 4.80469 7.25315 5.52137 3.71797 5.43047 5.66417 0.461444 9.53303 0.722197 2.02241 4.99588 0.942578 4.37975 1.13458 5.3347 2.3214 2.34879 -1.01891 3.68729 2.68975 1.79388 4.24069 6.94328 1.27354 2.13059 6.13733 3.53012 4.17788 7.92964 7.29421 1.54975 7.62307 4.34874 1.03415 3.62748 5.42188 2.62449 4.04722 2.62174 1.13875
5.23047 7.69473 -0.158749 3.90381 4.35837 4.128 2.34903 0.0572486 2.71278 6.51671 1.77693 1.03785 7.74349 6.24402 2.25614 3.02635 6.16754 1.51277 3.36836 1.37494 0.257662 7.60395 0.0650567 3.72683 7.01666 4.81775 4.83586 3.54422 5.10351 2.49473 2.12285 1.034 1.08239 7.57794 1.27602 2.93544 8.04841 5.14156 3.83211 5.7905 4.57288 3.89252 9.10541 -0.548406 3.80734 4.69495 1.39799 1.17603 1.44081 6.30554 1.60118 3.5993 7.67881 2.01519 3.53363 0.356178 4.2698 7.03343 0.191603 0.00927548 7.19243 3.59054 0.596088 6.87655 -1.20536 3.13844 6.80753 6.06715 0.596128 3.56042 5.79134 0.148477 2.93685 2.81255 4.87678
5.3353 7.65912 -0.033613 4.08137 5.01626 4.63844 1.56328 0.483542 2.72685 6.50744 1.22521 0.479195 8.63965 5.85057 2.66234 2.92245 6.69554 1.93839 3.21202 1.73176 0.2507 7.55394 -0.39089 2.80066 7.22075 4.43096 0.182362 4.00965 6.06768 2.955 2.17124 1.70503 1.44688 6.25466 -0.0235588 2.0529 8.39937 4.94057 4.12835 5.85294 5.24235 4.99524 8.63151 0.699457 2.47626 4.57535 1.10667 0.349785 1.50503 5.92158 1.88921 2.72807 -1.38754 2.26776 2.38653 0.80789 4.20615 7.16685 -0.28182 4.419 7.07486 2.82796 0.0708327 7.77198 7.57121 2.36309 7.69986 4.58134 1.66079 3.31764 6.47985 0.41487 3.40187 3.24644 4.82115
4.52043 7.20542 2.53217 3.40159 4.47218 4.65293 2.18998 0.331262 1.88269 6.91759 1.55489 0.570446 8.30907 6.22655 3.39541 1.67253 5.77603 2.14628 3.79377 1.35092 4.43212 8.85752 0.516532 3.29205 6.54518 4.80572 0.977523 2.40873 5.30131 3.32267 2.40223 1.36349 0.113977 7.87948 0.683716 2.02533 7.61579 5.2868 4.82392 5.05741 5.15811 0.644093 0.651303 1.03421 2.81945 5.22936 1.07139 0.0177657 9.87297 5.61711 2.42735 2.06247 7.24657 1.87921 3.79478 0.333623 3.27584 8.40173 1.3458 4.42559 6.61991 3.23409 1.1014 9.13338 -0.993085 3.76994 6.88373 5.37055 2.35319 2.02661 4.78609 1.04212 4.06382 2.85418 3.67684
4.53248 6.40239 3.22299 3.11042 4.1778 5.05934 2.41258 0.132484 2.35911 7.29456 2.02732 0.154101 8.00292 6.08649 2.69314 1.66937 5.28662 2.38586 4.16049 1.02233 -0.117027 8.93569 1.00502 2.77071 6.14061 5.26091 0.450048 2.81169 4.63854 3.11293 3.7736 0.905755 1.36343 8.62664 1.7386 1.32233 6.24392 5.80333 4.26343 4.68448 4.79992 0.797852 1.16493 1.35035 2.94671 5.76958 0.978598 0.0468927 9.43083 4.9973 2.90484 1.95122 6.85294 2.3821 3.63717 -0.105741 4.3046 8.10814 1.74007 3.8193 7.0979 3.99787 0.764717 8.6847 -0.516907 2.72706 6.65402 6.34768 1.51383 1.52216 4.8916 0.714772 3.84559 2.51429 4.89383
5.0487 5.72317 2.50783 2.87463 4.56719 4.53362 2.3644 1.63119 2.26537 7.48857 1.75241 0.434421 8.06521 4.62405 2.678 1.21302 4.50401 1.88541 4.31522 1.77259 4.27066 9.20347 1.69451 3.0498 6.10913 4.45285 0.612108 1.23168 4.54901 3.41118 4.08053 1.70454 1.20245 9.22304 1.64716 1.53812 6.4498 4.45928 3.78983 4.63273 4.58983 0.876175 1.02594 1.65208 3.6209 5.80049 1.54891 3.9583 9.40369 4.49286 1.40999 2.01525 5.71328 1.20164 3.43684 0.612135 3.74993 8.39019 2.91712 3.6668 6.71349 3.23936 1.33144 8.51425 0.534234 3.7627 6.87468 5.66774 1.33313 2.01815 3.30902 1.25303 3.67708 3.01317 3.50604
5.23164 0.219374 2.4292 2.88363 4.78417 4.59146 2.50916 1.75197 2.21842 7.43015 1.39382 0.375079 7.90467 4.39234 2.65512 1.25042 4.60315 1.97532 4.29453 1.83667 4.45829 9.19013 1.61466 2.98916 6.04037 4.45639 0.55204 1.29157 4.54956 3.46391 4.19244 1.77991 1.27289 9.01759 1.61246 1.48957 6.21301 4.53989 3.73598 4.55079 4.57374 0.955915 1.11588 1.67191 3.46739 5.75318 1.46263 4.02963 9.32808 4.60591 1.37105 2.1346 5.81586 1.36207 3.51021 0.600628 3.73506 8.54601 2.9645 3.73703 6.70202 3.21323 1.27955 8.43229 0.421159 3.65257 6.92675 5.6465 1.22406 2.02629 3.41316 1.23723 3.83844 3.05618 3.65612