-28925.7928486546
-28928.0153094009
-28927.4791573848
-28927.7842124881
-28926.9972408942
-28927.3695737967
-28926.7974577374
-28927.3525885956
-28927.0176950007
-28927.2656255473
-28926.4279906004
-28927.0581007557
-28927.460937876
-28926.4414421329
-28926.4389110673
-28927.0028854847
-28926.5176497513
-28927.7343860207
-28926.9937122598
-28926.7015733053
-28926.4056770049
-28926.1606780753
-28926.4858958513
-28927.6363716187
-28927.7285025144
-28926.809068829
-28925.7585691313
-28926.2204388696
-28926.2256816842
-28926.1704589301
-28926.2382579631
-28926.1945109239
-28925.0603173519
-28924.7214715776
-28924.9012339689
-28924.4128360022
-28924.993298605