-0.562260118607615 0.125759789694425 -0.387247273776246 -0.948011782448113 1.19487226820697 0.272331877389363 -1.89365583721902 -0.593399247116862 0.730800985907155 0.405416993313699 0.0160447038732007 -1.79941029979115 0.539585057329727 1.13598709427633 0.890390047957782 -3.18550003923665 2.17412293791541 0.760351687704515 -1.13333860227906 -0.303161188127839 -3.04083082400766 1.01281254747411 -0.30639769111412 -2.72518102295064 -1.82745587857598 1.10743269443892 1.77210751232562 -0.154392608137716 -1.06529259252055 1.60574154006587 1.52191770680434 -0.964082711560001 0.621916880198074 0.39471452482729 -0.0317533647369425 1.05216686055736 2.7498000943238 -0.849521613005585 -2.93926047457025 -1.02799824622519 -0.531834727966966 -0.45579824793458 -0.590670536742427 -0.63065914064767 1.1425012378782 0.461437959803349 0.232700142418419 1.11044242624361 1.33401772825981 1.79786532470023 1.07342781582758 0.340552979182635 -3.38799384889051 -0.24689776673542 0.557360112735949 -0.184541605331412 0.0371269675660864 -0.700444500795607 0.120060942483517 -0.381009266511141 0.421495635731084 0.720780373626626 1.02310801054049 -0.942596013548922 -1.29093840284217 1.93150039930645 0.658477691140726 -0.18330336268906 1.6149075180974 1.69216784260188 0.179346694079601 -3.35178836422106 0.876567547398088 1.51790627372586 -0.311397969957239
-7.19908512995352e-06 1.0284407328505e-05 4.88509348103989e-06 0.0235042416187486 -0.00137116860707293 0.0270022256613564 0.0149489002723485 0.00262946584371552 -0.00278835993694093 -0.0232124215608023 0.00141924821133369 -0.0271302665325963 -0.0151234780867499 -0.00265003465837253 0.00336325830660436 -0.0286071074249696 -0.00942334532492595 0.0286870686919487 -0.0295422171613139 -0.006007379430763 0.010893758462719 0.0291156713673642 0.00939017811129152 -0.0281355673489577 0.0294961944385189 0.00597215533566287 -0.0112190028444829 -0.00826172151717131 -0.00208002138219014 -0.0246746071727325 0.00835196719147894 -0.00475885238108249 -0.00373169719914805 0.00825657931350705 0.00206922275449521 0.0242418907343856 -0.0084571252564129 0.00475628127925037 0.00377514882011099 -0.0126583056501072 -0.00707130136889685 -0.0120255574892209 -0.0299649063025155 -0.00138350989586714 0.0177526868202822 0.0126192249022589 0.00706050274120192 0.0119224563057527 0.0294825675988086 0.00136782617469117 -0.0179388345929281 -0.0119386542472951 -0.00170824005726469 -0.00865741408913554 0.010393164936004 -0.00506995570276977 -0.00264617800562435 0.019202274033235 -0.00655245301917377 0.0124955549041336 -0.0117044268703884 0.00190698622888805 -0.00488072260792528 0.0119803060969755 0.00163676342633158 0.00855919799914832 -0.0103502275354075 0.00520853809152137 0.0027083986699618 -0.0192472683152972 0.00667200925436764 -0.0125426060676615 0.0117237101341293 -0.00202345714188337 0.00496376919710295
0.391572381278249 -0.514092325554012 -0.256426527235463 -0.242252042834951 2.01581428457719 0.236749884914201 0.174822583295791 -0.345741205569682 -0.168847856858296 0.104916638471927 -0.403056464721624 -0.193080234515903 0.717083643412395 -1.09523641578804 -0.28144077696022 -0.0788896317354964 0.816676815540905 -0.486315426910636 0.284779095579053 -1.68497287123486 0.110892650460338 1.57377657364815 0.705250147230034 0.240188476504487 0.255879910985953 0.0169255633608872 4.1845844455883 -0.263870381259835 0.159007735926383 -0.545290846515581 -0.0436560235585878 -0.333501218187662 0.635136971598501 -0.43516387018085 0.288176292429841 0.252598413717611 -1.09292268124931 0.93905123545297 -1.21872515123415 1.3174156095094 -1.39592986037741 -1.85501757599601 -0.459481608419284 -0.26937768138425 0.131196898738823 0.298009985607174 1.84969693786461 0.284703248075005 0.640113596304764 0.228015851990468 0.422380094761335 -1.06711036151587 -0.898469992575422 -0.430462610480807 -0.44611367866351 0.109713028939759 -0.21901571002711 -1.0413242670211 0.336842879238876 0.316406219216038 -0.701757819611457 -0.327457586221066 -0.500166466700666 -0.545470309423464 0.470283321436413 -0.382579952620387 -0.375133270384 -0.0719507421109541 -0.0414867849428229 0.416557320442119 -0.304883312134997 0.198638699566777 0.61821835021256 -0.290783903907983 -0.434620082143356
-0.222853593731925 -0.265471920591067 0.118480743297493 0.530426278383327 -0.584540258644088 -0.00855816955841546 1.34348683919735 0.839589446628082 -0.00225691318824043 1.55858444714248 -0.191497721338229 -0.337755620389281 0.113170132463236 0.355193861455494 -0.807076578409929 1.78220731454258 1.66772309193294 0.36263077350492 1.60373556641645 -0.330942971864696 -0.470857705585709 -3.36131532494982 0.417983253518216 -0.542111679100157 -0.87853572585058 1.38597378275287 -0.274483118292303 0.368746139212632 -0.533875411491124 0.413225172467683 -0.538826068068883 -0.308927141096566 1.01564513036256 0.0618265144265905 -0.618967312176259 -0.0574700394822358 -0.168491759254547 0.0557741407137653 -0.148873738055057 0.185682146104143 -0.00399806334895633 0.709137653200209 1.43413771915372 0.577569487356827 0.985620831607723 -1.56820525308811 -0.215314866049948 1.02253542616248 -1.77517329415025 -0.195710728800352 -0.916617086416752 -0.248297988793196 -1.32480264218328 -0.450193760160911 -0.929046821113983 0.447617001904754 -0.740669388959222 1.48900168981891 -0.369080639560992 -0.739740706977458 0.00954495844158552 -1.01745621449311 -0.576529990886099 -0.458916994456949 -0.23875534434326 0.524113194944724 0.925646796051179 0.182822052426086 0.732463460351808 -0.19530243782941 -0.335356525269724 0.724901592753342 -1.06123102295634 0.604451899672807 -0.53555974030135
0.223452660458811 0.118792103729363 0.0341524598564995 0.197762468062388 -0.080729512206566 -2.63034130388936 -1.10619959400023 0.312511771270916 1.38437969961695 -0.406802817201215 -1.22034725938004 0.230466883367034 0.214709371568482 0.0157978780973166 -1.43061016744004 -0.26790675402609 2.4828384773312 0.645144471259686 1.0481153182903 2.29933225470758 -1.70248516003384 1.28996704056999 1.12956036813675 2.02970954731873 1.61167975685735 3.46686111204007 -1.28541850431877 0.401277005143609 -0.602965545703654 -0.268788899064693 0.214657692421656 -0.152794411238866 1.29668918631008 -1.07618300855089 -0.682402565019211 -0.0879247406837713 -1.84317688072852 -0.938835262899071 2.43450099155667 0.437007093084302 -0.659851430849631 0.111014263576998 0.848047343215044 -0.760984178755218 -0.229688353732266 1.73365334199379 -0.343068288105004 -0.469540015896745 -0.776827051134597 -0.402591866620559 -0.00432819282420134 0.37083078857812 -1.90893486696661 -0.385760919807094 -1.68161938311522 -0.64390031508312 -1.05880467415736 -1.01885643655089 0.465540666996872 -0.438100839803688 -0.601181201032159 -0.993113279456722 -0.727415359014611 0.0755754814738857 -0.649699178155297 -0.708208714108262 -0.113187358845511 0.533717545838632 0.497353167075954 0.530447875638717 0.933755537009339 2.46643664741351 -0.305242752171129 -1.71848924049809 0.297568270312415
0.0822911994593995 -0.502936571814599 0.157693131559617 0.760890590648529 1.76072678717589 -0.457098711241269 -0.187870410873466 -0.762148373664805 -0.175271240565497 -0.143901484221908 -0.0413937110564999 -1.05208587084965 0.519384424455077 -0.922327246475721 -0.33681434000854 1.70111167743512 -0.0138278998735414 -0.23929476150764 1.51677216070771 1.34292942432014 1.35750217239445 1.58163000419438 1.16688685320501 1.38505024297477 -0.596433918609321 0.369098894384 1.25433054073599 -0.748901028584958 0.00402943079130827 0.452117715661891 -0.951072679179259 0.0152525473987226 -1.8695216756514 -0.416109691613146 -0.541406168757422 1.02991474553086 -0.241675601804189 1.12190182710939 0.549773819670077 0.629553309749672 -0.73987286161163 -0.77633108559118 -1.13237778152439 -0.723735855182656 -1.28130602693829 -1.85657823480811 0.500548018212554 0.577566659144812 -0.757256081098635 -0.642828422729306 -0.261221632152379 0.294767054866313 0.158462405227789 0.289652876212031 0.88727592941871 0.301622897901678 1.5860129614876 0.772089024678355 -0.026961859362592 -0.338584543619959 -0.833981102201665 -1.27429874600501 -0.0894000389150453 -0.195849568299286 0.672289650182908 -0.141325240186118 0.100125904428126 0.798207562640009 -0.353339839924348 -0.585871575172763 0.214220090889828 -0.320729012726392 -0.198011864940105 -2.23443867290545 -0.947291359714751
0.0625461658294026 -0.434081950529892 0.152071674513856 0.602685295603953 0.28132713425924 -0.996914396405338 0.352321940709009 -0.434192765018856 -0.38714751502516 -0.329368943323069 -0.200240496008192 0.444616011846296 -0.486180186954266 0.573325369562537 -0.723551250071109 -1.04077405122903 0.497327198947449 -1.44337465959582 -0.715352777659008 -0.99039125394705 -0.245800420473469 0.729705439416486 -3.75853204608014 0.127413522392849 0.366849437391072 -1.13412638788042 1.68675773012672 0.24962519155894 0.182790170763367 1.95819255008686 -0.878595632523269 0.64375144828704 1.56157181036123 0.369968698133808 0.616681859757682 -1.37613880402462 -0.499700068828319 0.0353603634972324 0.154555615993873 0.395665832505177 0.0621029078735441 -0.0304865828642539 -0.801035774655348 -0.178199211331923 -0.229862160216118 1.22196293977135 0.579745153727173 -0.868869154292335 0.966795223992895 0.0410342710203687 0.262218962553061 -0.463764292741056 -0.527688312042295 0.640009723790746 -0.0613670585291895 1.09476873236478 -0.327687699835041 -1.10032179810181 2.53712780673691 1.11765205289107 -0.481333402890525 -0.496788296003436 -0.661314130681928 1.32313579686552 1.16805259077569 0.0426183268591417 -0.0847887677791269 0.547762703816988 -0.329584658766784 0.409671138405135 -0.339878836282251 -0.996596608218887 -0.108350344968732 -0.367037899155367 0.469650830385709
-0.248660771261709 -0.0873776102138948 0.0251230073322553 0.0103083185755438 0.24372374152366 -0.0718838934633188 0.375189063293757 -0.911355840737672 -0.742634482089516 0.370619701117702 0.544742944715155 0.269327802008707 0.128960297255056 -0.135875018522376 0.834269322717046 -2.84398572507898 -0.291426165145649 0.681109300797651 3.22425888513558 1.27694466690045 -0.635264755359557 0.482233545641952 -0.360494444992606 1.66343038031402 1.84955218483146 0.0844632662871797 -0.14645381701066 0.428395958828144 0.157335491294768 0.803029407015979 -0.520496168887289 0.0498161264381791 0.504404928070927 -0.336578312860351 0.538864120375999 0.12295908846869 0.571600674453546 0.0211467983488721 0.307128912475177 -1.70253555362975 0.844489195389565 0.915438750447089 -0.711832167920277 -0.560576561127939 -0.901635790261319 -1.49177128071248 0.716820105474602 0.3905408552232 1.81100108396056 -0.893681058302903 -0.230726564652079 0.979290264676662 0.955414241732988 -0.176045142216967 -1.05632356088936 -0.215945814439552 -0.172729192184074 -0.643831409554019 -0.875593614024078 -1.14850090400347 0.538476398219714 -0.24874484629162 -0.031539963284876 0.617141058544899 2.08257320075853 0.177490615666989 -1.60115520861773 -0.847679932763233 -1.81287644563691 0.195862166698264 -0.303580277726476 -1.13082329335669 -0.425719184710718 -1.78400297206213 0.506861101651157
-0.00213452874103122 -0.119038929505247 -0.0457067343798917 -0.605437145894877 -1.32514074207421 -0.318327860725369 0.991605585342363 0.648121292960922 -0.517464582717029 -0.0960239685651522 -0.807363513374394 1.02336229251169 0.32104577247211 -0.879310655942783 0.656575847115502 -1.13042117303014 0.818102748617002 -3.23579490483597 0.286994099807429 -2.13957967058043 0.626726897505616 -0.970969150707168 0.0754919206643416 0.582715547673828 1.39215188334528 0.34437492205609 -2.14007820722568 0.0499788771841527 -0.572144976711407 3.11152661131436 1.04092368935566 0.848357932316365 -0.251027984718548 -0.180416272441765 0.733072297265656 -2.42731373349515 -0.116001686910956 0.064651898229914 -0.770858238231316 -1.16015930815106 0.96189213279903 1.10425738367624 -0.668643313564587 -0.409107552883533 0.0965546439833031 0.511602470539781 0.604187076184098 0.0869004137138522 -0.54892972693859 -0.0536594094568414 0.356890531554515 -0.116969449640569 0.991480372683139 0.253087437286081 -0.937231666686374 -0.518554472783667 -0.808702800318749 0.255260789664777 -0.543866713210767 0.875356558435156 -0.00439169903945486 -0.254128990638275 0.027389947817641 0.871305016168092 -0.00695123091333655 0.0274634813300398 -0.224051727185696 0.860637000446233 1.67302084725804 1.0533027733468 -0.803251035993908 -0.932441961083306 -0.0123903968391997 1.48172804273583 0.945888823665326
-0.209103341133714 0.0151124223488717 0.126582542280706 -0.748769388171153 0.61219194462824 -0.371503645927587 1.27154895259555 0.278913126749057 -0.325949892106707 0.117033984296555 -1.38657876301397 0.503808432445873 -0.413165008684812 -0.0145537219207507 1.78477455972196 0.0439393589804881 -3.80458510787682 0.535249151200029 -0.376112603071857 -1.70360873153448 2.02760278647749 0.605328902507745 1.52432811477196 -0.380540811757328 -0.37208651471293 -1.83229134979166 -1.21108769324182 -0.730083134275626 -0.295871857323578 -1.41384581216403 0.550820772336119 -0.259848920884207 -1.48612976907243 0.629427582870081 -1.00551396070325 -0.0194280167740956 -1.13125421002375 0.595119828462921 0.788182579486366 1.87724346578383 0.812914522229955 -0.22995112033951 -2.15081204315444 -0.525518302095981 -0.0770677489772517 -0.359498657253023 -0.187171328285311 -0.668605518367655 0.799429093120453 -0.316802940228735 0.123996528057953 1.70870002738245 3.894647719734 0.271349459379307 -0.397148586931764 0.826180636353177 0.535960317966795 -0.0906133418696257 -0.266356893841685 0.858679620621436 0.533871811948559 2.6145778785566 -0.711365255827563 0.359084195637685 -0.165811128484372 -0.254145959910367 -0.984727116610876 -0.0826827782684323 -0.92701693621752 0.0131257319631878 -0.502376328725379 0.473982108532109 -0.546179933529131 1.17558643336419 0.0464698374036668
0.45135255575665 -0.291300181155874 0.174045082101756 -1.44422543719207 -1.31660674087302 -0.0511477000770373 -0.717935963669745 -0.768455286459011 -1.93821277485959 -0.660590622626367 -1.61845538151555 0.569527595046303 -0.61020319736109 0.00692346301354959 0.320103463650635 -2.24902941869258 1.74967104929775 1.6472818039268 4.92913028477982 1.20380119064958 -4.02722195772429 2.63723905588459 0.18799716619379 -0.0886235661617432 2.05967831027399 2.53247436953094 0.555509433637184 1.14919535860833 -0.656401783521467 0.751261814287216 -1.8162031942975 -1.26305403214221 3.39238991880308 -0.00884818984507931 2.56593725987607 -1.77309070166622 -0.218655755770613 -0.0903132942858166 -0.156421464593447 0.74396965527094 -0.49762338987851 -0.435713571752559 -2.19481696523165 -0.383710723206156 0.186706987294429 -3.12171357388343 0.401849332411441 0.0278146938403083 -0.564426271901181 -0.778910414949169 -0.894746522902136 1.40687272688512 1.57585428103869 0.954692790558893 0.485848257707738 1.17692726296964 1.66046281457938 0.367488870416722 -0.994540755193919 0.166005246672698 -0.593094828659939 1.00751659192029 -0.315995614253447 -0.604519776761175 -1.04343154208272 0.932294122727959 0.177327607810832 -1.31351601936062 0.0611184329820229 0.26691430871889 -0.542463662940975 -1.7007458096444 0.129245689558422 -0.850168502226548 -0.0172945164737973
0.233394339913093 -0.161848032120333 -0.116797442928 -0.304002452647311 -0.0840238649840693 -0.896715215574996 -0.721227488235233 -0.550632053461641 -1.83864788485123 -0.14840656885216 -0.391901739422944 -0.851775955091994 0.985752986241894 1.58560184230465 -0.393736220580166 1.58157266862352 1.77547488439515 -0.0450575311672798 -0.535251465191678 -0.184662447117522 -0.148253074072782 0.244144888003763 -1.36887544134886 0.973733342286887 -1.52318166046502 0.0366929655768235 -1.66033297393686 0.497023294710892 -1.38972604876667 1.07206538896674 -0.238474580023192 -0.918860115655099 0.893060651430811 0.545383920401904 0.575297918888144 0.376912472851831 -0.990519551928473 -0.916208281225444 2.08233357406777 1.27604452414903 0.330995422342072 -0.222269953616033 -1.19773519009704 0.686886566614439 0.266920222253104 -0.757551500699147 0.379805733743523 0.117206248119308 -0.0840449480190928 0.125721994497493 -0.768537561717639 -0.325649330302532 0.800827258296763 -0.240283093051909 0.887333779209933 1.10184440460679 1.21699171437893 1.04960167225945 -0.915257744878107 -1.97778768848004 0.264180713250973 0.587108018043833 0.777574213327013 -0.184277296063069 0.496769012739695 0.57911189134592 0.591335423676215 -0.0516192401530493 0.289112687717101 -1.45198836495381 -0.182475210788932 0.753599460072985 0.306542187037085 -1.36693605923689 -0.238427014639297
0.353990842908243 -0.318210618481824 -0.234639524530392 -0.205830842721784 -0.874283894750793 0.762786006919172 -1.16608029856027 -0.299847037866229 -0.566546402471953 0.757809639323092 -0.848534824122415 0.484294540870585 1.2275661419941 0.0381574651804026 -0.112072014870735 2.07362679482346 -1.59937240660733 0.175980607560981 -1.23060004215601 0.336897900818084 -1.67248451541586 0.98255376423218 -0.0939336627756336 2.38894878039689 -2.36612742342476 1.88506450044697 1.49066442137375 -0.189662468850458 0.00583717248947624 -0.101853941969499 -0.612622861295304 -0.453435148240672 0.963774436450329 -0.0456784522597383 1.28714011410557 -1.39446664632475 1.27784198143987 0.596271682083714 -1.14077011501463 0.651816737624237 0.383754946157669 0.142784340475849 -0.872132139627487 0.376378197891116 -0.879072314802945 0.778472042086791 0.436984724498362 0.779761449655603 -4.05318597246584 1.24501029659453 -0.410659212839221 -0.679808323270595 0.784235681063869 0.700921440185466 -0.228257278452505 0.302338949761925 0.850019378320285 0.419467550605903 0.0916793206892253 0.444708057291886 1.34432861793718 -1.54494192371103 0.874819712372608 0.271109318468187 -0.807678216238647 -1.00324881998915 -0.388872467244333 -0.583560154625682 -1.87207066600777 1.26274292882052 -0.684894219804724 -0.864288736378402 0.637532724285676 0.338941412554258 0.192708710301161
0.392722178017576 0.117082835231366 0.0521221476714132 -0.336285464361672 -0.0810413868588029 -0.977715979024851 0.297355640190898 0.923670390072824 0.0394795257424819 -0.877686490915429 0.613766230280051 2.26043071265696 -0.0700797513077158 -0.00858979411095062 -1.82125232407543 1.6144863716173 -1.78877802238476 1.88785594570611 -0.98415118980048 -1.52398667244866 -0.632428830038722 -1.20272801274485 3.97677873954926 -1.98737635565277 -0.236958144162603 -2.07981620826394 0.788737423261739 -0.124072118451818 -0.80654924542416 0.796014412777206 1.2739681023094 -0.735492475420236 -0.398977925885322 0.25589405204603 0.945156316753354 0.148117577006229 -2.00468912694958 -0.621908909782394 0.541141859489079 2.8687585483417 0.115216215301242 0.792200183209246 -0.215100950377515 -1.21216189958728 0.701328959825858 -0.409938275885493 0.336059978730994 -0.239226884419272 -0.405436790797806 0.657531782776687 0.210351096852845 -0.988479639734864 0.957969402733755 -1.06833806264071 -0.00571555937281667 0.619899593700588 0.554484849557082 0.614744534527175 -0.842215570039415 -1.1762770313163 0.476261647416472 1.10464793404454 -1.55664532214069 0.809243503034045 -3.12879773076148 0.98574141628365 -0.303298999186041 0.991467002953612 0.305508604100571 -0.601759698944387 1.66605496106426 -0.0297566470541133 0.162945892602651 -0.195963725220633 -0.175518837671931
-0.358260157500488 -0.247089313821914 -0.0868194240061402 0.520135186190058 2.71707613864523 0.794879528428505 0.146098233627277 -1.83104205141143 1.76758802952511 -0.782054615379676 1.64817114805054 0.236570679116502 1.50598407453029 -1.912206594048 -0.523489702750433 0.858881195005075 -0.6223591097132 -0.43732950925405 -2.03173557556245 -0.255274416504488 0.477356679686775 0.0862717793158973 0.475089739201389 1.20590718016027 2.56764652837406 -1.0832342553255 0.814169734144399 -0.36914851664936 -0.108628281076785 1.3830342420282 1.08223641070445 1.40601037933063 -2.1874278756763 -1.62467796216967 0.305894269375389 -1.57355957265352 -0.466763740138415 0.0188667452441425 0.10959784357768 -2.12785313223429 -0.0811059215147893 -0.401984315257627 0.55905292618222 -0.0316029552797631 -0.0169875269150414 1.02817822335344 1.01086545205664 -0.33590596973125 -0.491957452771054 -1.01138172930453 -0.219851061012368 0.139840685988248 3.19986272829127 -0.739736593214527 -0.127840839517348 0.235606773039638 -0.941228701594597 0.947943905359745 0.676726857724792 0.240739977847478 -0.794591565023307 0.318632022072109 -0.124466011252499 -0.261768762622255 -0.803226610526503 -0.193395708710705 0.317205317665463 0.265338737516163 0.383401419655752 -1.02300233825519 -0.301208693396523 -0.25025588283836 0.700179934417081 -3.9897810586245 0.619192797806936
0.0544608218979152 0.165676145638185 -0.0294815391580757 0.199133636669461 0.62463762015683 -0.815084275066086 -1.34787956667753 0.929896313159318 1.49787173402957 -0.119382942930386 -0.665573417977028 -0.355070191457369 -0.948433443148582 -0.214197208083523 -0.144833765746237 1.74158621958663 -1.91533562497769 0.181207657585694 0.93944821357585 -2.21262133119876 -1.15041560353786 2.1725915896642 0.978621006869759 1.61738528893302 0.805294033509716 -0.792793850622284 1.21628697536675 -1.74685312168974 0.72600510965969 -0.761519225046484 -0.552547267216391 0.49457174911396 -0.854107173123182 -0.894342345694126 0.241733965815778 0.134579440309168 -0.637809374842813 0.497796425031812 0.49900072912998 1.83151204882635 -0.396354116465637 -0.22013928152775 -0.96535746384837 -1.26741333529858 0.130189283930812 -1.10530767877467 0.0995129537513476 -0.714599444822195 1.2698941914564 0.547712824441444 -0.926324538494128 0.270312534010411 -2.14912000103872 0.481173223246383 0.790792247845974 -0.065016994690076 1.49444239840588 0.171332826779046 -0.664366028556662 -2.194597136025 -0.219366922537379 1.8139961604848 -0.568020158042127 0.228465023480541 0.687534741386318 0.0585285621065222 -1.17868538240245 -0.0165023599993192 -1.14679472082767 -1.1065844879445 1.35979302412687 2.52348451197491 0.347726353294267 1.19180597216197 0.0468377620758441
-0.123735047001626 0.186762780204186 -0.0702972665227137 1.24435415140697 -1.05066945085033 -0.737703108775498 -0.183836609209043 0.507759701741485 0.538991132806506 -0.944635154411982 -2.16323277899526 -0.423235757451067 0.107849237221651 0.760512638679206 -2.72878030840543 -0.111918262981174 2.25905183074439 -0.140863727407251 -1.23949991114792 2.01456987129044 1.30088316761865 -0.544153648175232 -3.31960999635127 -2.13357769046352 -2.50065107082417 2.93915171696275 1.46507193084695 0.280263726541472 0.0515369648944212 -1.12661517098805 0.208253334868013 -0.129246717999155 0.495653411654735 1.38314608495789 -0.287161992757067 2.82275356614928 0.968298547234139 -1.00975602161608 0.193266382288549 0.939202930461065 -1.29084944271878 0.285836846872789 -0.663313162356406 0.150952730996514 -0.360320895618937 2.8368313771209 -0.252414837046797 1.65551987130712 -0.978918226241553 -0.302708674205385 0.26571308994292 0.214779305538316 -0.381818906478078 0.896163200011638 -0.825820682096679 -2.52175184645024 -4.05240898549217 -0.398098866168918 0.426258601875098 -0.46808065849683 0.00478713450123588 1.41947035453199 0.339369501009307 0.869163288341931 2.29102579601853 -0.297295990628393 0.139656337986884 -1.47558156669595 -0.15930521240836 -0.491475885397896 -0.515099940362022 1.2535936629509 -0.190528415947518 1.6928491845874 1.18566875208869
0.199053418292299 0.162978545595919 -0.0509317275231387 -0.548414478131432 -0.707086428158539 -0.751988150554792 0.53291150541426 -0.168417968631965 -0.147760193851563 -0.592456424075022 0.438252020591417 0.944846241872399 -0.054408628530723 -0.858007534602518 0.144615736310873 -0.321544309117359 1.24060857025793 2.47956957846183 -1.35511593278405 -0.29336940391037 -1.68364001204509 0.881211471527274 0.73920463224546 -2.04943324080352 -0.522651780663343 -0.0306866145867933 0.902685314029193 -0.46680333510663 -0.214623239657106 -0.12185068646886 0.149370217818841 0.854494381059101 0.0852399961506651 0.954713102263367 -0.161701479315901 2.23856220602381 0.464143273151112 0.619932760914222 -0.219934878932096 1.69179606127696 0.265163388371212 0.227699349354934 -1.09235215375276 -0.0897196268727787 0.418971842172669 0.0988120713919099 0.113441640816708 -0.10390362435007 0.268756760291791 0.218150791370783 -0.178135190896303 -0.165533192376319 0.305416044434614 0.337899087871514 0.403154423701428 0.430865502137902 0.717709706708518 0.555659071763814 -0.41001643738119 -1.49046670364286 -0.511708399935264 -0.442075763236155 0.0570206108819801 -0.154411634291274 0.0517223413365175 0.171007325287099 -0.965369033806614 -0.130381088127489 -1.06480048362988 0.0390583792623796 -1.38360682640621 -1.28652484943714 0.512130060635733 -0.550538465354951 0.423543004120006
0.527489051650306 0.423529377280296 0.121692563706185 0.220540630523744 -0.79141136916715 0.873924711824845 1.67405700129638 -0.127129929860765 0.560482973021249 0.826592012646317 -1.47284977099931 0.955255604749946 -0.472345345105778 1.06358923755677 0.152186602765752 -1.78583565344807 -0.473378156711743 -0.810090938197914 -1.1013312126811 0.0083491389794636 0.22185034979703 0.263515569207002 -0.400005852397806 0.90098684415889 -0.546157050722825 1.3550079465071 1.08786969481864 0.354087516337131 -1.11878076659537 0.693849624596203 0.573000639401139 0.0206089238455912 0.678320683750527 -1.05908698113853 0.208462879667331 -0.362994070193799 -0.447751470530574 0.246456565661027 -1.65270374347039 0.822825348462252 -0.279071249511732 -0.444568703572585 -1.208070762352 0.13799772019498 0.075597592949642 0.6303110134596 0.822412943728379 0.238517517423788 0.902273423515686 0.353978758729632 0.429766870325034 -0.824982245789223 1.70609267301449 0.750884890758626 -0.365493952505175 0.92495619809907 -0.753984096907071 0.582247864250564 0.626274640693345 -1.40048225328137 0.636541307419208 0.652896857503913 -0.31276579613193 -0.233114861143941 -1.15390587427497 -0.599060556241021 -0.292562592155448 -0.426818073633768 1.23086923651783 1.39582547364302 -1.00360620314381 -1.99940114181144 -1.07257472423968 -1.30365635805478 -0.636004204246477
0.0147347274897324 -0.213335631859577 0.179517415241254 -0.451577527166961 -0.411230254556137 -0.422061535244335 -0.688223282456961 -0.619487188966715 -0.0754135020584617 -0.411196316011953 -0.370045831188772 -0.338947583198655 0.793210883339455 0.215027159754933 -1.81767309321493 0.486671267404202 0.343593307099124 2.11472457205908 0.227328853580924 -1.77007814164952 -0.667339507825516 1.11563785171578 1.76235583729673 -2.07121715818639 -0.0250260767931842 2.42079779012199 -0.078794758077891 -0.190119353646027 -0.0866301909112957 0.235979582805296 0.0468385334063937 -0.870998540829702 0.530395425161341 -0.448398359751537 -0.770300309133745 0.513557022152563 -0.482174410299813 -1.8360798683413 1.15943477165477 0.973099822795451 0.11581708179941 0.588420565529133 2.42613282642365 -0.445813373969517 0.798186479604986 -0.488212128732195 0.403380937772838 0.197087810941638 0.277854089904404 -0.613807625019548 -0.570493043784266 -0.211271808418929 1.43090455859982 -0.210003740995325 -0.328466743690176 0.514385174052691 -0.199017679976832 -0.727749088032421 0.0822513473810015 1.46628909045428 0.423698298670666 -1.41961510756514 -0.299744450903127 -1.25114211735397 1.03619800418821 0.594097044154101 -1.04296488710018 -0.509542760862064 0.509990389691038 -0.0982531138536057 0.193119315263751 -1.16775280030207 0.0595680585772508 1.41913431152253 -0.969221572791872
0.0647920232797649 -0.748155151943458 0.0815010998663871 0.451480082407524 -0.654655234046904 0.11652619168471 -0.492472187357845 1.58991897939097 0.065274619093655 -0.0404691428376673 -0.228416686766097 -0.809665935065063 0.724242619353768 -0.980831126004655 -0.865546005174312 0.0849713160092079 -0.450515147889927 -2.77291250002333 0.716485090905876 1.65150252469442 -1.30235589474809 1.3036561009446 1.68670502253916 2.57126406865187 1.262245420616 1.76347966590755 2.41201542048381 1.43929457809842 -2.04263704733066 1.62591851880367 0.957722576957871 0.691875532609497 -0.118216948249516 -0.330421552413141 1.3407797260783 -2.02368622705661 -0.0512299753356653 -0.125113928914195 -1.37094029323024 0.630803893680818 -0.28418825637803 -0.624748434645795 -1.83711859348148 -0.897013206277339 0.729047494457645 -1.75047914660359 -0.541795947795172 -0.00428782652543696 -2.48181569302238 0.701009628978308 0.302516355788342 1.14341629302026 -0.0869675194716707 0.159669023317606 -0.972660678602524 0.408561707964573 0.653512636392707 1.95390729466325 1.17588236718507 0.933332076537588 -0.83460896526907 -1.54771074327405 -0.506731518118818 -0.330612842389451 -1.67448380420052 -1.12463465124676 -1.58245789898432 0.414652391094697 0.240079204676621 -0.0771137717000468 1.03073929788842 1.16383007023679 0.0484436722801901 -2.19262330114848 0.469239196982386