9.820975919 -0.100883557 0.002386476 -0.060286997 6.216645474 -0.007885970 0.001134472 -0.006273193 5.077354104
9.550086403 0.009230010 0.047858559 0.005515761 7.149643143 0.092463975 0.022750786 0.073553964 5.211605721
10.209808516 -0.044347261 -0.059314508 -0.026501476 6.581788707 -0.016250605 -0.028196664 -0.012927158 5.134985855
9.482236338 0.034687140 0.121702556 0.020728685 8.009546335 0.005733090 0.057854413 0.004560603 5.253463954
10.006638757 -0.042593980 -0.174671703 -0.025453733 6.550733771 0.065915217 -0.083034647 0.052434751 5.074199788
9.542501591 0.020000156 0.031918081 0.011951892 7.234558317 0.107959392 0.015173073 0.085880380 5.261356971
9.885019478 -0.035505457 -0.162547874 -0.021217703 6.534511162 0.038860834 -0.077271276 0.030913320 5.064945071
9.843373038 -0.055472033 0.090552438 -0.033149528 6.730964231 -0.138259388 0.043046410 -0.109983657 5.117225318
8.542708968 -0.021609496 0.272972841 -0.012913617 9.299396192 -0.113061759 0.129764599 -0.089939250 5.245518357
9.540451845 0.039691285 0.027219453 0.023719112 7.742817342 0.065228922 0.012939461 0.051888812 5.212318198
9.213583081 0.137436941 0.306384404 0.082130931 8.793077786 -0.107895481 0.145647637 -0.085829539 5.388089529
9.229547539 0.117546578 0.262543040 0.070244650 8.755865314 -0.105526507 0.124806527 -0.083945049 5.374953852
10.208973168 -0.043539685 -0.055750787 -0.026018877 6.587406106 -0.023190203 -0.026502558 -0.018447524 5.137235050
9.733264714 -0.074766324 0.061622207 -0.044679602 6.719057255 -0.101849095 0.029293687 -0.081019713 5.145673101
8.785863724 0.169606915 0.343760055 0.101355383 9.076164272 -0.168320150 0.163415106 -0.133896626 5.279303995
8.765140214 0.157126851 0.338811323 0.093897422 9.091940729 -0.177770402 0.161062600 -0.141414187 5.272114060
8.535324739 -0.028146835 0.278347709 -0.016820265 9.310816608 -0.085015444 0.132319680 -0.067628749 5.201684304
8.570537169 -0.034351536 0.197419066 -0.020528132 9.215357197 0.050130816 0.093848186 0.039878453 5.185428745
9.499006246 0.038531468 0.109896743 0.023026017 7.964165655 0.016526306 0.052242219 0.013146475 5.250371176
9.866936233 -0.050795020 0.092647409 -0.030354592 6.734547554 -0.141716089 0.044042308 -0.112733421 5.118741438
9.688626412 -0.083058203 0.038181966 -0.049634745 6.719059373 -0.077606267 0.018150771 -0.061734839 5.173753302
8.937232399 0.229847073 0.344083735 0.137354294 9.059728557 -0.103367605 0.163568975 -0.082227669 5.407305013
10.397437775 0.000697765 -0.002106766 0.000416977 6.211459846 0.002622414 -0.001001505 0.002086098 4.942879431
9.710039617 -0.038145828 -0.068363594 -0.022795563 6.483376485 -0.031837795 -0.032498377 -0.025326578 5.095696297
9.776193716 -0.067464074 0.077515382 -0.040315851 6.723773855 -0.119695280 0.036848913 -0.095216135 5.125963941
10.205473800 -0.042210132 -0.048395131 -0.025224349 6.601322771 -0.036745690 -0.023005859 -0.029230748 5.139919243
8.941008701 0.230531104 0.344035744 0.137763064 9.059820839 -0.102719756 0.163546162 -0.081712313 5.408673991
9.550059339 0.028693357 -0.001959019 0.017146861 7.441589236 0.114769017 -0.000931270 0.091297353 5.278294887
9.712376577 -0.078545883 0.051335591 -0.046938228 6.717521119 -0.091303974 0.024403682 -0.072631198 5.158519689
9.944109866 -0.037449597 -0.172380845 -0.022379502 6.540160995 0.053707883 -0.081945629 0.042723966 5.068444173
9.548737491 0.023754603 0.013849389 0.014195511 7.320356349 0.114412322 0.006583660 0.091013607 5.290841110
9.557375874 0.000151621 0.048824333 0.000090607 7.105795362 0.084492990 0.023209891 0.067213143 5.194891379
10.135324343 -0.059323654 -0.148469556 -0.035451218 6.557799024 0.068825601 -0.070578788 0.054749926 5.078453353
9.039742315 0.224135065 0.374163471 0.133940856 9.013749803 -0.100679992 0.177868145 -0.080089706 5.393314971
10.063935232 -0.052093841 -0.165252804 -0.031130754 6.561716356 0.073442367 -0.078557133 0.058422507 5.069737279
10.006120504 -0.025536342 0.075503904 -0.015260261 6.768234881 -0.134268949 0.035892706 -0.106809312 5.138144976
8.911203471 0.223444168 0.346193777 0.133527983 9.057839113 -0.110110169 0.164572038 -0.087591296 5.392174062
9.389214247 0.017079890 0.140194569 0.010206770 8.210203168 -0.030673842 0.066645062 -0.024400667 5.245278799
9.585467476 -0.054551606 -0.003885333 -0.032599490 6.959335903 0.041337287 -0.001846992 0.032883308 5.208402339
8.540216728 -0.028825970 0.262809465 -0.017226109 9.307647123 -0.076073779 0.124933179 -0.060515763 5.188516186
10.021063099 -0.058756099 0.053856534 -0.035112052 6.101744849 0.059239353 0.025602077 0.047124183 5.058975299
9.763554012 -0.097469333 -0.034784519 -0.058246691 6.342837471 -0.055928268 -0.016535708 -0.044490255 5.100793050
10.210107572 -0.045256178 -0.062852638 -0.027044636 6.577058212 -0.009290850 -0.029878604 -0.007390758 5.132218157
9.108782110 0.194857448 0.390017752 0.116444847 8.919088849 -0.104865221 0.185404882 -0.083419005 5.371369722
9.896277189 -0.044710906 0.093652374 -0.026718787 6.740739112 -0.143557679 0.044520043 -0.114198383 5.122289986
8.545192553 -0.020579649 0.270480607 -0.012298191 9.297290098 -0.116932501 0.128579852 -0.093018378 5.248707726
9.225243173 0.124556245 0.277670441 0.074433557 8.769031626 -0.106363880 0.131997723 -0.084611169 5.381674188
8.721646919 0.124711868 0.318582808 0.074526556 9.133717444 -0.191207969 0.151446459 -0.152103607 5.273981975
8.846149400 0.198531213 0.349636364 0.118640252 9.054813249 -0.138529295 0.166208559 -0.110198365 5.326965975
8.713648592 0.118103488 0.313867082 0.070577454 9.141883453 -0.192578746 0.149204719 -0.153194043 5.276346521
8.925948552 0.227441479 0.344692629 0.135916735 9.059168701 -0.105796738 0.163858429 -0.084160014 5.402027949
9.551169841 0.035204208 -0.001251398 0.021037680 7.635028420 0.088023545 -0.000594884 0.070021656 5.222996563
9.308924799 0.014926644 0.135644507 0.008920012 8.398262521 -0.061746088 0.064482074 -0.049118260 5.211697057
8.550385894 -0.036585461 0.219769693 -0.021863103 9.264773144 -0.020672516 0.104473126 -0.016444734 5.168059271
8.652429077 0.063094247 0.281247980 0.037704486 9.210916223 -0.193063561 0.133698397 -0.153579708 5.305218450
9.714174023 -0.049552586 -0.061323774 -0.029612126 6.462194034 -0.040762853 -0.029151819 -0.032426353 5.102851108
10.065816049 -0.022463131 0.046407540 -0.013423741 6.759748964 -0.127250357 0.022061007 -0.101226107 5.151668972
9.549584512 0.032297728 -0.008553686 0.019300797 7.537321579 0.107744705 -0.004066213 0.085709599 5.252186339
9.746784140 -0.090207926 -0.037140022 -0.053907348 6.377694493 -0.060275815 -0.017655456 -0.047948676 5.105084688
8.836494010 0.194335640 0.349172105 0.116133020 9.056115869 -0.143260183 0.165987862 -0.113961728 5.317391101
9.043804805 0.221951638 0.376046002 0.132636062 9.006893590 -0.101544659 0.178763054 -0.080777537 5.389016055
9.652797720 -0.089562019 0.017850842 -0.053521360 6.734552589 -0.053751061 0.008485853 -0.042758314 5.195234504
9.581472426 -0.047784709 0.003203214 -0.028555661 6.975439296 0.047742713 0.001522729 0.037978746 5.202003997
8.531846175 -0.027979468 0.286469835 -0.016720248 9.308944870 -0.089017704 0.136180739 -0.070812498 5.211792494
9.211197057 0.139455780 0.310819968 0.083337369 8.796835515 -0.108100307 0.147756196 -0.085992476 5.388354708
9.435271341 0.025384336 0.136589634 0.015169423 8.110382910 -0.013357082 0.064931365 -0.010625396 5.254081709
9.711800162 -0.044153749 -0.064589671 -0.026385836 6.471777794 -0.036779736 -0.030704347 -0.029257831 5.100676698
9.665533248 -0.087392467 0.025000236 -0.052224858 6.726760698 -0.062652826 0.011884500 -0.049839559 5.187876666
8.531927030 -0.028082841 0.286133001 -0.016782023 9.309124703 -0.088678093 0.136020617 -0.070542341 5.210734056
9.217971741 0.133299277 0.297169235 0.079658304 8.785365590 -0.107427155 0.141266972 -0.085456991 5.386923179
9.377542584 0.015240823 0.140072960 0.009107762 8.237138539 -0.035853860 0.066587253 -0.028521308 5.240675459
9.559233147 -0.002900414 0.047786530 -0.001733258 7.093519132 0.082347316 0.022716545 0.065506286 5.191841658
9.766277238 -0.028759223 -0.124771243 -0.017186222 6.522446837 -0.002396018 -0.059313191 -0.001906003 5.070540336
9.239606997 0.094567373 0.218996806 0.056512509 8.711164739 -0.102651261 0.104105715 -0.081657826 5.341722453
8.592391651 0.006678358 0.263774707 0.003990919 9.269670055 -0.164331932 0.125392032 -0.130724048 5.295270330
8.537539990 -0.028178078 0.272436155 -0.016838935 9.310423227 -0.082028197 0.129509472 -0.065252430 5.196725118
10.200374713 -0.052884843 -0.098755029 -0.031603449 6.558223369 0.037717905 -0.046945721 0.030004133 5.111340705
10.048005542 -0.049207660 -0.168795093 -0.029406002 6.559274559 0.071969761 -0.080241051 0.057251067 5.071687850
9.268191534 0.040896674 0.149893945 0.024439440 8.558675181 -0.079379384 0.071255908 -0.063145332 5.239999394
8.956325473 0.232752892 0.344804835 0.139090783 9.059734449 -0.100817615 0.163911769 -0.080199183 5.412628081
8.982421512 0.234768557 0.349849442 0.140295323 9.057506489 -0.099192891 0.166309851 -0.078906735 5.415563225
8.670348401 0.080183742 0.289274659 0.047916996 9.189158969 -0.194957585 0.137514084 -0.155086381 5.295949322
8.899934426 0.219772563 0.347499021 0.131333869 9.056540644 -0.114206915 0.165192519 -0.090850208 5.382460858
10.214131110 -0.012356937 0.022130049 -0.007384381 6.091731382 0.056139005 0.010520083 0.044657893 4.988020550
9.595055938 -0.076543289 -0.022290023 -0.045741498 6.894217968 0.018692089 -0.010596131 0.014869329 5.233434028
8.553054128 -0.017107369 0.265078930 -0.010223191 9.291459314 -0.127456558 0.126012027 -0.101390138 5.257332316
9.937571073 -0.037190408 -0.171501686 -0.022224613 6.539370525 0.052243335 -0.081527699 0.041558936 5.067653628
10.054957219 -0.022445624 0.052816733 -0.013413279 6.763596929 -0.128638317 0.025107780 -0.102330212 5.148779435
10.150818465 -0.032781851 -0.008023254 -0.019590104 6.693979432 -0.097051618 -0.003814058 -0.077203378 5.149974055
8.571878076 -0.033959884 0.195579391 -0.020294084 9.211182316 0.055382264 0.092973650 0.044055915 5.186570552
8.574427898 -0.033128608 0.191595631 -0.019797322 9.202406576 0.065850311 0.091079868 0.052383119 5.188739977
9.021402107 0.231633129 0.365186788 0.138421624 9.039027064 -0.098267693 0.173600850 -0.078170751 5.409024022
10.058686608 -0.051145819 -0.166473183 -0.030564226 6.561016362 0.073033464 -0.079137272 0.058097230 5.070375835
9.591923400 -0.067301231 -0.015870893 -0.040218538 6.924823172 0.028719890 -0.007544634 0.022846322 5.222693963
10.191973866 -0.054601593 -0.115487882 -0.032629362 6.554252259 0.048036312 -0.054900109 0.038212301 5.108228043
8.553706846 -0.036893377 0.215213758 -0.022047110 9.256200352 -0.008389585 0.102307346 -0.006673812 5.170603672
8.539610270 -0.022892907 0.276722312 -0.013680571 9.302169675 -0.107709920 0.131547006 -0.085681928 5.240764619
8.534810988 -0.028172960 0.279553149 -0.016835877 9.310746735 -0.085562793 0.132892716 -0.068064158 5.202707592
9.237465841 0.099846580 0.228097062 0.059667310 8.721761417 -0.103391044 0.108431754 -0.082246314 5.350492974
9.805211462 -0.062494654 0.084622066 -0.037346175 6.726703294 -0.129180500 0.040227256 -0.102761512 5.119214593
9.545646085 0.022463898 0.021058902 0.013424199 7.282783951 0.112778078 0.010010886 0.089713585 5.283136720
9.794322839 -0.102463587 -0.016222784 -0.061231207 6.268621895 -0.031357316 -0.007711914 -0.024944362 5.079130190
8.922173685 0.226511514 0.345021109 0.135360998 9.058887922 -0.106778257 0.164014580 -0.084940801 5.399834374
8.537912064 -0.023628798 0.279083137 -0.014120331 9.303712699 -0.104479169 0.132669284 -0.083111905 5.237542252
9.727678056 -0.072288386 -0.046164791 -0.043198811 6.421973548 -0.054507653 -0.021945611 -0.043360173 5.103963336
10.343671344 0.005165484 -0.004908713 0.003086841 6.166015583 0.023809212 -0.002333482 0.018939937 4.940054631
9.144668735 0.178418186 0.375998192 0.106620910 8.873530130 -0.104941232 0.178740326 -0.083479470 5.377417002
8.543638155 -0.032086421 0.242635207 -0.019174522 9.294348100 -0.058194346 0.115342831 -0.046292892 5.172830303
9.131636069 0.184932389 0.383089851 0.110513732 8.889860053 -0.104408429 0.182111527 -0.083055632 5.375324482
8.547106416 -0.035522684 0.226579323 -0.021227998 9.275653297 -0.035214219 0.107710257 -0.028012482 5.166766331
10.196697541 -0.053777766 -0.107125482 -0.032137051 6.556139258 0.043279381 -0.050924829 0.034428220 5.109868658
10.151353660 -0.058739947 -0.143995561 -0.035102401 6.554795729 0.065038842 -0.068451961 0.051737605 5.086615763
10.122186574 -0.059175729 -0.151513298 -0.035362819 6.560126967 0.071199457 -0.072025709 0.056638299 5.073301327
8.538727395 -0.023270026 0.277924261 -0.013905933 9.302973669 -0.106059238 0.132118383 -0.084368830 5.239161181
8.693615367 0.101029287 0.301922390 0.060374084 9.162938816 -0.194727108 0.143526505 -0.154903039 5.284244238
9.713298786 -0.047678848 -0.062471350 -0.028492399 6.465466047 -0.039419293 -0.029697349 -0.031357567 5.102269607
9.544347432 0.038439029 0.018316459 0.022970777 7.715116457 0.070594552 0.008707196 0.056157105 5.211881939
10.103602450 -0.057940407 -0.155696569 -0.034624604 6.562485914 0.073388756 -0.074014333 0.058379861 5.068974018
9.542422885 0.019489297 0.033477448 0.011646607 7.227907036 0.106990068 0.015914358 0.085109294 5.257500948
9.045936615 0.220806985 0.377001985 0.131952029 9.003329202 -0.101999037 0.179217505 -0.081138990 5.386870366
9.542637678 0.018307487 0.036534572 0.010940370 7.214688710 0.104862536 0.017367640 0.083416868 5.249495333
9.543356659 0.016902962 0.039443079 0.010101040 7.201542321 0.102525757 0.018750273 0.081557989 5.241306405
10.202751088 -0.041643876 -0.044582220 -0.024885960 6.609458917 -0.043265873 -0.021193295 -0.034417474 5.140395559
9.755014395 -0.094384666 -0.036074516 -0.056403325 6.360714983 -0.059059881 -0.017148941 -0.046981415 5.104000261
8.542657835 -0.030758924 0.249417073 -0.018381223 9.299956237 -0.065186151 0.118566764 -0.051854788 5.177584582
9.679136504 -0.084871247 0.032750122 -0.050718202 6.721338833 -0.071643819 0.015568605 -0.056991784 5.179680871
9.011060564 0.233633084 0.360404112 0.139616777 9.047248084 -0.098143046 0.171327283 -0.078071596 5.413097011
9.265780185 0.044582281 0.153463235 0.026641922 8.573892486 -0.082045481 0.072952661 -0.065266180 5.246775162
10.037763599 -0.022975521 0.061970063 -0.013729940 6.767439615 -0.130642232 0.029459049 -0.103924302 5.144473433
10.074186871 -0.053886442 -0.162778711 -0.032201994 6.562722467 0.073992204 -0.077381010 0.058859896 5.068660638
8.632783498 0.043424819 0.274151403 0.025950234 9.234735438 -0.187864034 0.130324858 -0.149443547 5.311574672
9.426439138 0.023767133 0.137854256 0.014202999 8.128631386 -0.016367676 0.065532535 -0.013020286 5.253358895
10.000309767 -0.041786946 -0.175065016 -0.024971458 6.549428704 0.064822941 -0.083221618 0.051565859 5.074073729
9.254229306 0.064117223 0.175483544 0.038315806 8.640081320 -0.094224095 0.083420576 -0.074954118 5.284820649
9.571384226 -0.030258720 0.022756677 -0.018082306 7.014602261 0.063237206 0.010817967 0.050304426 5.190277146
9.827146124 -0.100151168 0.005163818 -0.059849329 6.208315575 -0.003424127 0.002454753 -0.002723852 5.078171954
9.549249810 0.024028966 0.012495387 0.014359468 7.328282437 0.114615499 0.005940001 0.091175231 5.291497471
10.207315372 -0.049444881 -0.078291153 -0.029547762 6.564987094 0.017127789 -0.037217695 0.013624947 5.119298384
9.551495833 0.034644242 -0.003899542 0.020703050 7.618201739 0.091906859 -0.001853747 0.073110785 5.227352342
10.044967606 -0.052174587 0.051742247 -0.031179007 6.097705146 0.061712789 0.024596996 0.049091771 5.053444584
9.753925558 -0.028151401 -0.116264526 -0.016822993 6.520467862 -0.006958077 -0.055269307 -0.005535065 5.069375822
9.346492502 0.012189132 0.138293770 0.007284102 8.308717988 -0.049481506 0.065741469 -0.039361935 5.225614031
9.765692982 -0.098091871 -0.034295248 -0.058618713 6.338212217 -0.054861047 -0.016303121 -0.043641294 5.099646335
9.393153945 0.017750138 0.140149063 0.010607304 8.201196950 -0.028985425 0.066623430 -0.023057552 5.246608906
9.259371983 0.055138881 0.164809627 0.032950440 8.612483543 -0.089252155 0.078346458 -0.070999001 5.267149957
8.975401276 0.234449689 0.348025179 0.140104771 9.058483199 -0.099527239 0.165442641 -0.079172705 5.415148513
9.568544027 -0.024296426 0.029515005 -0.014519299 7.028579701 0.067931019 0.014030710 0.054038297 5.188031036
9.750452371 -0.071798751 0.068846038 -0.042906210 6.720944555 -0.109570306 0.032727719 -0.087161842 5.136441766
9.730734707 -0.076204484 -0.043669688 -0.045539032 6.414087316 -0.056388360 -0.020759500 -0.044856253 5.104057126
9.711578426 -0.031995941 -0.074676154 -0.019120452 6.497738536 -0.025550618 -0.035499214 -0.020325205 5.084815307
9.181742147 0.158468491 0.347826399 0.094699173 8.832158683 -0.108105243 0.165348146 -0.085996403 5.384017573
9.805193719 -0.102330163 -0.007125423 -0.061151474 6.243849884 -0.020936249 -0.003387251 -0.016654531 5.076260755
9.830414383 -0.099753326 0.006508468 -0.059611582 6.204285629 -0.001179085 0.003093966 -0.000937948 5.078561826
9.910564071 -0.041726026 0.093411680 -0.024935052 6.744517457 -0.143478909 0.044405623 -0.114135722 5.124359160
9.759269437 -0.096052148 -0.035530391 -0.057399796 6.351899591 -0.057727485 -0.016890277 -0.045921511 5.102679330
10.205906668 -0.050450549 -0.082906602 -0.030148739 6.563043819 0.022990808 -0.039411767 0.018288907 5.116575447
9.269419629 0.039124410 0.148272609 0.023380353 8.550969708 -0.078102140 0.070485165 -0.062129300 5.236854757
8.535243027 -0.024940425 0.283097145 -0.014904147 9.306012230 -0.098896608 0.134577445 -0.078671045 5.230922409
10.381083013 0.002970802 -0.005510962 0.001775322 6.198174232 0.009640971 -0.002619776 0.007669275 4.937503207
10.188109054 -0.055156449 -0.120814080 -0.032960938 6.553220778 0.050858356 -0.057432053 0.040457202 5.106704212
8.685704219 0.094082338 0.297391008 0.056222657 9.171595416 -0.195090553 0.141372397 -0.155192155 5.287995216
9.175165181 0.162108358 0.353679047 0.096874321 8.839095693 -0.107607305 0.168130352 -0.085600299 5.382642385
9.874449954 -0.049257525 0.093085199 -0.029435801 6.735927703 -0.142457291 0.044250423 -0.113323037 5.119512357
9.470326516 0.032135425 0.127289292 0.019203806 8.037114241 -0.000151073 0.060510210 -0.000120176 5.254344918
9.548024320 0.011421268 0.046393813 0.006825234 7.162441583 0.094945637 0.022054482 0.075528096 5.218143926
9.878574755 -0.035265737 -0.161334727 -0.021074449 6.534017041 0.036996587 -0.076694576 0.029430334 5.065207973
8.639155636 0.049854708 0.276286015 0.029792671 9.227228089 -0.189983622 0.131339601 -0.151129654 5.310304322
9.911210889 -0.036341239 -0.167299082 -0.021717158 6.536667693 0.045913265 -0.079529884 0.036523442 5.065282840
9.008210413 0.233985386 0.359163020 0.139827308 9.048945762 -0.098194757 0.170737298 -0.078112732 5.413796686
9.549616419 0.029485362 -0.003719512 0.017620155 7.459961761 0.114216539 -0.001768165 0.090857863 5.273906374
10.207931466 -0.048919393 -0.076130365 -0.029233736 6.566065125 0.014055489 -0.036190510 0.011180970 5.120813397
9.549041075 0.010345438 0.047188332 0.006182329 7.156017576 0.093693047 0.022432177 0.074531676 5.214776820
8.914845292 0.224523011 0.345778587 0.134172688 9.058222497 -0.108925264 0.164374666 -0.086648719 5.394933438
9.032029619 0.227951400 0.370411997 0.136221459 9.026087037 -0.099264048 0.176084786 -0.078963340 5.401258888
9.840749542 -0.033457921 -0.153651073 -0.019994116 6.530960831 0.024995033 -0.073041955 0.019883244 5.068619286
9.785126666 -0.029915883 -0.135240455 -0.017877430 6.524930726 0.004681590 -0.064289998 0.003724148 5.071730313
9.600117489 -0.090627576 -0.019882748 -0.054158126 6.823746298 -0.004117498 -0.009451771 -0.003275419 5.237339807
9.551136477 0.033665631 -0.007361100 0.020118242 7.585629683 0.099129564 -0.003499286 0.078856359 5.236976119
8.536412682 -0.028125816 0.275610350 -0.016807704 9.310776896 -0.083695032 0.131018406 -0.066578377 5.199391478
10.093973729 -0.056856013 -0.157954609 -0.033976581 6.563081672 0.073966694 -0.075087750 0.058839603 5.068104222
9.338691966 0.012035579 0.137660340 0.007192341 8.326633098 -0.052514410 0.065440352 -0.041774573 5.221866497
9.369811849 0.014187877 0.139799145 0.008478532 8.255044645 -0.039355041 0.066457087 -0.031306455 5.237168710
10.147531298 -0.058949066 -0.145194210 -0.035227368 6.555487739 0.066032210 -0.069021769 0.052527818 5.084523858
8.535860656 -0.028129496 0.277033860 -0.016809903 9.310830393 -0.084395249 0.131695108 -0.067135391 5.200581912
9.582827411 -0.050044631 0.000797587 -0.029906167 6.970181371 0.045623756 0.000379153 0.036293141 5.204030128
9.238529780 0.097212850 0.223489537 0.058093419 8.716508022 -0.103033173 0.106241449 -0.081961632 5.346181196
9.542696691 0.020461507 0.030349416 0.012227591 7.241248534 0.108859914 0.014427369 0.086596734 5.265075879
10.193224443 -0.040229478 -0.034809154 -0.024040731 6.631846895 -0.058625383 -0.016547419 -0.046635777 5.140084015
9.710413961 -0.033669790 -0.072300327 -0.020120727 6.493389799 -0.027500517 -0.034369803 -0.021876325 5.088706045
9.200465089 0.147266356 0.327256048 0.088004890 8.811328973 -0.108613570 0.155569505 -0.086400770 5.387727232
9.244149440 0.083989073 0.202317750 0.050191024 8.688923125 -0.100775310 0.096176900 -0.080165530 5.322878155
8.543906359 -0.021115322 0.271717014 -0.012618304 9.298365314 -0.114969124 0.129167610 -0.091456536 5.247105240
9.733970705 -0.079864713 -0.041526764 -0.047726348 6.406123238 -0.057950107 -0.019740806 -0.046098603 5.104287741
10.116092145 -0.026412266 0.012842222 -0.015783704 6.727537409 -0.115861712 0.006104878 -0.092166579 5.159871409
9.168518608 0.165725185 0.359136227 0.099035700 8.846182547 -0.107008850 0.170724561 -0.085124235 5.381346127
10.199385113 -0.041097399 -0.040697093 -0.024559391 6.618167654 -0.049576154 -0.019346401 -0.039437226 5.140436048
8.558958613 -0.014229341 0.262916468 -0.008503311 9.287777061 -0.134201248 0.124984046 -0.106755456 5.263347933
9.534736642 0.041250687 0.040344805 0.024650995 7.779794094 0.058335258 0.019178932 0.046404986 5.216079914
9.556393029 0.001599748 0.049111456 0.000955993 7.111997199 0.085578130 0.023346383 0.068076359 5.196702145
9.769940254 -0.099181336 -0.033018803 -0.059269767 6.328777221 -0.052411580 -0.015696330 -0.041692773 5.096992125
8.540686245 -0.029060741 0.260674385 -0.017366406 9.306713813 -0.074557799 0.123918215 -0.059309820 5.186701630
9.052860092 0.217221125 0.379950110 0.129809155 8.992212870 -0.103370693 0.180618971 -0.082230126 5.380767773
9.085393809 0.203615557 0.389622264 0.121678605 8.948369914 -0.105826764 0.185216876 -0.084183900 5.369478483
9.334808951 0.012077986 0.137339841 0.007217683 8.335595728 -0.053932251 0.065287995 -0.042902448 5.220102063
9.524849259 0.042792892 0.065225261 0.025572601 7.843368478 0.045817669 0.031006491 0.036447397 5.228413654
9.750117338 -0.028007175 -0.113355199 -0.016736806 6.519746662 -0.008351091 -0.053886284 -0.006643191 5.069046835
8.543316487 -0.031628649 0.244871622 -0.018900962 9.296331777 -0.060631480 0.116405968 -0.048231603 5.174307508
10.076104219 -0.022744632 0.039934773 -0.013591963 6.755044593 -0.125751767 0.018984012 -0.100033997 5.154353126
9.563971376 -0.013048144 0.041019568 -0.007797439 7.058858223 0.075768778 0.019499697 0.060273139 5.187031004
9.669969372 -0.086586620 0.027515611 -0.051743291 6.724685391 -0.065642470 0.013080247 -0.052217784 5.185246267
9.595466747 -0.078215753 -0.023089300 -0.046740946 6.887933973 0.016711415 -0.010976087 0.013293727 5.235180033
10.175011119 -0.037461668 -0.021595916 -0.022386715 6.663243204 -0.077864216 -0.010266169 -0.061940034 5.141125424
10.053378732 -0.050180729 -0.167658286 -0.029987498 6.560198840 0.072541315 -0.079700641 0.057705731 5.071036105
8.812771692 0.183454995 0.347294984 0.109630856 9.062424356 -0.155036497 0.165095525 -0.123329642 5.296470249
9.551145301 0.008077385 0.048399513 0.004826964 7.143330288 0.091263843 0.023007943 0.072599274 5.208643583
10.144345868 -0.031458003 -0.004484773 -0.018798986 6.700928629 -0.101389050 -0.002131951 -0.080653752 5.152773049
8.566309243 -0.035411360 0.202410939 -0.021161472 9.227040343 0.034508862 0.096221200 0.027451379 5.181778498
8.855814922 0.202623525 0.349878239 0.121085776 9.054113154 -0.133854048 0.166323540 -0.106479262 5.336931924
8.579985539 -0.030751609 0.179765395 -0.018376852 9.178185116 0.090961012 0.085456063 0.072358375 5.193720016
9.982200564 -0.039861322 -0.175355940 -0.023820724 6.545945793 0.061516822 -0.083359916 0.048935881 5.072951716
8.745353111 0.143304723 0.331143208 0.085637458 9.110144729 -0.185171088 0.157417366 -0.147301342 5.270366331
9.060690640 0.213507688 0.382976989 0.127590043 8.980636445 -0.104591168 0.182057875 -0.083200998 5.375668768
10.206639610 -0.049956574 -0.080547979 -0.029853545 6.563984528 0.020108352 -0.038290535 0.015995948 5.117880697
10.403466975 0.000056284 -0.000571870 0.000033635 6.216344921 0.000596167 -0.000271853 0.000474243 4.945686222
10.085548389 -0.041860539 0.045915089 -0.025015436 6.092277332 0.064471045 0.021826908 0.051285930 5.040492678
9.510671484 0.041193243 0.095933089 0.024616667 7.921838905 0.027258370 0.045604240 0.021683701 5.244764443
9.767823075 -0.098661415 -0.033710269 -0.058959067 6.333524955 -0.053687277 -0.016025036 -0.042707574 5.098375189
9.549378698 0.032043497 -0.008350224 0.019148871 7.528954607 0.108876450 -0.003969492 0.086609888 5.254757802
9.714688702 -0.030112856 -0.079087175 -0.017995139 6.503437275 -0.022807712 -0.037596105 -0.018143257 5.079087450
10.028958233 -0.056538593 0.053299720 -0.033786893 6.100322406 0.060117714 0.025337381 0.047822909 5.057323190
9.549116839 0.031505009 -0.007662908 0.018827076 7.512312189 0.110793583 -0.003642759 0.088134944 5.259739836
9.165022491 0.167612537 0.361860011 0.100163563 8.849978503 -0.106675470 0.172019381 -0.084859035 5.380707410
8.655887842 0.066471458 0.282671638 0.039722673 9.206641754 -0.193607265 0.134375170 -0.154012218 5.303542721
9.906366118 -0.089946650 0.035932124 -0.053751211 6.142723505 0.036385021 0.017081251 0.028943840 5.072456169
10.140997608 -0.028932349 0.035819818 -0.017289680 6.087426883 0.064360441 0.017027864 0.051197946 5.017665633
9.474416473 0.032993065 0.125562367 0.019716323 8.027929440 0.001745107 0.059689272 0.001388211 5.254118458
8.567746234 -0.035079575 0.200826179 -0.020963201 9.223283099 0.039678278 0.095467844 0.031563586 5.183029736
8.566160600 -0.010398995 0.261746480 -0.006214334 9.283779592 -0.141596806 0.124427862 -0.112638532 5.270590859
9.230812338 0.115124072 0.257486725 0.068796985 8.751286475 -0.105242606 0.122402879 -0.083719210 5.372178537
9.565391115 -0.016645919 0.037652734 -0.009947434 7.048431928 0.073390497 0.017899187 0.058381245 5.186790582
9.533287779 0.041586974 0.043793671 0.024851957 7.788989946 0.056616598 0.020818438 0.045037813 5.217496153
9.709909753 -0.036881223 -0.069289712 -0.022039847 6.486038454 -0.030694065 -0.032938631 -0.024416754 5.094103002
10.206589312 -0.042512327 -0.050268245 -0.025404938 6.597525749 -0.033414060 -0.023896292 -0.026580477 5.139476724
9.741010498 -0.086263490 -0.038463268 -0.051550192 6.390010021 -0.059934013 -0.018284495 -0.047676776 5.104924017
10.400223019 0.000348901 -0.001373645 0.000208499 6.213700683 0.001598737 -0.000652997 0.001271776 4.944166896
9.786271465 -0.101906337 -0.023268776 -0.060898200 6.289026241 -0.039242837 -0.011061406 -0.031217198 5.084220795
10.405515744 -0.000016921 -0.000137427 -0.000010112 6.218042997 0.000122699 -0.000065330 0.000097605 4.946591822
9.901394078 -0.090814345 0.033954979 -0.054269737 6.145743045 0.034621382 0.016141365 0.027540887 5.073212617
9.719552353 -0.059710167 -0.054716046 -0.035682194 6.444771853 -0.047454555 -0.026010667 -0.037749520 5.104067036
8.554923552 -0.016222346 0.264246973 -0.009694311 9.290240107 -0.129676329 0.125616535 -0.103155938 5.259252496
8.808137636 0.181208623 0.346818091 0.108288447 9.064251603 -0.157347043 0.164868821 -0.125167654 5.292949546
9.548444449 0.036862543 0.008141428 0.022028684 7.678750210 0.078160722 0.003870235 0.062175901 5.214716471
9.549873561 0.036153512 0.003913966 0.021604974 7.660989445 0.082088008 0.001860604 0.065300009 5.217484857
10.395860336 0.000917464 -0.002521548 0.000548267 6.210196549 0.003248086 -0.001198682 0.002583813 4.942179486
9.640959615 -0.091297123 0.011200708 -0.054558240 6.744477868 -0.045015294 0.005324542 -0.035809118 5.202016058
8.556276499 -0.036852581 0.212365574 -0.022022731 9.250247147 0.000444470 0.100953390 0.000353571 5.172827866
8.601701586 0.014117662 0.265656539 0.008436573 9.263639541 -0.171130284 0.126286608 -0.136132054 5.302330927
10.133281469 -0.030688986 0.037275397 -0.018339429 6.087864546 0.064687638 0.017719810 0.051458227 5.020995900
9.596401652 -0.082613837 -0.024334294 -0.049369196 6.869779998 0.011034509 -0.011567927 0.008777817 5.238967381
8.551284674 -0.017923181 0.266009895 -0.010710712 9.292667017 -0.125270154 0.126454585 -0.099650879 5.255489686
8.538102865 -0.028242490 0.270690156 -0.016877427 9.310101444 -0.081049554 0.128679466 -0.064473931 5.195246377
9.589026334 -0.061094888 -0.010332116 -0.036509690 6.942476096 0.034968741 -0.004911635 0.027817207 5.215449923
8.532438485 -0.026896769 0.286811949 -0.016073238 9.307994851 -0.092084448 0.136343372 -0.073252055 5.219588864
10.388304341 0.002021023 -0.004308460 0.001207743 6.204119849 0.006481248 -0.002048136 0.005155753 4.939315471
8.532246787 -0.028220211 0.285236165 -0.016864114 9.309514576 -0.088067663 0.135594283 -0.070056751 5.208801853
8.992630554 0.234878088 0.353084521 0.140360778 9.055261833 -0.098747245 0.167847729 -0.078552229 5.415604749
9.596124294 -0.081250898 -0.024110186 -0.048554718 6.875710253 0.012887493 -0.011461392 0.010251844 5.237962854
9.720794002 -0.061831573 -0.053270564 -0.036949925 6.441094122 -0.048738740 -0.025323521 -0.038771073 5.104082727
9.986145205 -0.028027079 0.081968474 -0.016748700 6.765494786 -0.136645277 0.038965804 -0.108699651 5.135063491