5.0581982747 -0.0066596767 2.6517216042 2.5248583746 4.8813768221 5.0049891788 2.1779402652 1.6720952424 2.5880487329 7.2377870608 1.4665710385 -0.0209659341 7.5212122658 4.2225165184 2.5331208141 0.9624521304 4.5719214094 2.1921067299 3.8680715358 1.6360234224 4.8614625923 8.7663351711 1.2922225388 2.7364141938 5.8812258158 4.6784071550 0.3335591365 1.1429147149 4.5747797650 3.7271719050 3.7140395569 1.5826883389 1.3313256778 8.6827771547 1.4763611920 1.2099223126 6.1796249154 4.5800861226 3.9083465343 4.4285355133 4.6853733839 0.7914723313 0.4136503018 1.3929121131 3.1983102665 5.3453176728 1.6572716178 4.4731699507 9.2907209420 4.5649894430 1.7798279028 1.6632735636 5.7773514933 1.4509995300 3.1952859307 0.3772854992 4.0353959991 8.0093845761 2.5342486787 3.3917944733 6.6456750021 3.4167496712 0.9689475377 7.9894856848 0.1559867892 3.4570530953 6.6613545772 5.8159468404 1.0376789200 1.6900689739 3.3542182614 1.5931617779 3.1362323675 2.8587138897 4.2336142572
4.3896762880 -0.0730053950 2.4695849454 2.5954938929 5.8129263686 5.2636114565 2.1172852380 2.4206003796 2.6269720927 6.8867089249 1.4331518839 0.0760141300 7.5359934098 4.8226765300 2.8220390799 1.0007478591 5.4227958085 2.4534801065 3.7731324122 1.8529956429 5.0918734123 8.6306023123 1.7865744985 2.8787472273 5.8623596779 5.3962777572 0.2711684049 1.2653095757 5.5041440944 3.9823343273 3.5286650274 1.9324551634 1.4035995637 8.0939828454 1.7875909216 1.4436705339 6.1409761582 5.4017304783 3.9752365767 4.3194198826 5.1435398276 0.5153310060 0.5880122597 1.3784747986 2.8473393056 5.2237658279 2.2398343510 4.7826223873 9.0918009137 5.6969666189 2.0875440594 1.9783224121 6.4149490437 1.7015448849 3.4909343490 0.3930980192 4.6434268438 8.4177814230 3.2400024229 3.4840085566 6.6481271026 4.3430929663 1.1010311893 7.7583635824 0.8120132896 3.7308841006 6.2721797319 6.8024209216 0.8485696528 1.4089256432 4.0186326137 1.9317214771 2.8322871585 2.8420296891 4.2880093619
4.7097283791 -0.4798334761 2.5208033078 2.7976870090 5.0512298697 5.1134353095 2.1062477379 1.8510138865 2.1308312743 7.2735836024 1.3383293444 0.2280732199 7.9931587306 4.6876304463 2.4647751558 1.1473571208 4.9871418380 2.2099911196 3.9737013772 1.5046906534 4.7369107516 9.1597162692 1.7695807956 2.9344568055 6.1814518735 4.9531755402 0.2843240795 1.4855063554 4.7942720622 3.7131150923 3.6837185245 1.6821612742 1.1611873442 8.6959424077 1.4716000914 1.4696584853 6.4645758803 5.0045353051 3.8830859862 4.6541604232 4.7281393448 0.5184509310 0.4799562632 1.7865906055 3.1092917224 5.5425387576 1.8450700115 4.6098355777 9.8364505920 5.2218891956 2.1196709003 1.8929647169 6.1532597837 1.4237018806 3.6503522357 0.0587769417 4.3571704353 8.5314482698 3.1259209715 3.3755641854 6.9113529656 3.8302431355 1.0363001802 8.4943531097 0.7808239646 3.9431088987 6.6759973993 6.2143962764 1.0468948058 1.7367366649 3.7300145285 1.4695282528 3.2463452219 2.5185766343 3.8074947754
4.7930923507 0.1962303732 2.6864690421 2.8409092989 6.9118353523 5.3214924541 2.0359482980 2.9083196720 2.5170127346 6.8435804762 1.0459161535 0.0829734243 7.5471346193 5.2285845272 2.8000978207 1.1608556302 6.0088105954 2.6041086230 3.7540519567 1.9233967004 5.1375234708 8.3692631042 2.0255786535 2.7980066070 5.7701421902 6.0941087249 0.2074800290 1.8075557872 6.0949208560 3.9987854753 3.2232974227 1.9132324625 1.3833255554 8.1136972167 1.8741475389 1.2700813447 6.1480381349 6.1457735491 3.9503703700 4.2307455085 5.7444078300 0.4255204119 0.4265752823 1.8434607375 2.9499274780 5.2875742686 2.1345993476 5.1541019101 9.1047656390 6.2944855826 2.7307599565 1.9157749121 7.0687248311 1.7473084016 3.4003759405 0.5218828312 4.5479622903 7.9593825894 3.4352724011 3.3315554381 6.5881604791 5.0896245827 1.0382796673 7.5001864877 0.9649187068 3.5771781371 5.9798819989 7.5214860028 0.8019484250 1.3394224767 4.5534628710 2.0571941346 3.0500469391 3.0356288388 4.2539457672
4.9346365396 0.0541280785 2.2155039776 2.6442392834 5.0970703036 5.1828952096 2.0149136814 2.0202832409 2.1927250873 7.2220048077 1.4331772863 0.0782901833 7.7396874551 4.7548801310 2.5211796814 1.0253185607 5.1287762935 2.2543838200 3.8564781180 1.4458962815 4.6010832047 8.8668113986 1.7812455709 2.8414546679 6.0814829874 4.6848102410 0.2610452557 1.3421250560 4.8673977201 3.7452787091 3.7019544662 1.6424131030 1.0781779552 8.4648320118 1.5833347037 1.3698961144 6.2344735942 4.9496796605 3.7724158619 4.5668597148 4.4066249630 0.5800534301 0.3854725368 1.6102255043 3.0259392397 5.3849470779 1.6716923218 4.2132705009 9.5039717255 5.1643815725 1.8122481967 1.8722380027 6.2994415146 1.5736865478 3.4719811812 0.0298258467 4.2109812302 8.3047402067 3.0915503183 3.4708310410 7.0081414224 3.6072587370 0.8456469498 8.2183742795 0.6590022517 3.7457267105 6.6588685786 5.9549089832 1.1017675552 1.5832439088 3.8397842634 1.4697592113 3.0701311366 2.5495119344 3.8383455137
4.4089427613 0.0510815753 2.4705655392 2.5960665589 5.9472222735 5.3191628454 2.0527459349 2.4885566511 2.6626250713 6.8682958930 1.4085867328 0.0643950462 7.5165480748 4.8791209393 2.8633141011 1.0174650920 5.4781241837 2.5368340107 3.7889919084 1.9231005517 5.1532479373 8.6147812780 1.8559428482 2.8539591491 5.8524072484 5.4258969948 0.2769182143 1.2472616932 5.5531377634 4.0709704174 3.5336631338 1.8855094568 1.4357508192 8.1320807473 1.8217356905 1.3861886521 6.1245723414 5.5001779329 3.9718980707 4.3681774553 5.1742994631 0.5024716302 0.5497932058 1.4210870561 2.8990128291 5.2676192809 2.2511374364 4.8185446589 9.0956219253 5.7262169366 2.1719760452 1.8980671436 6.4877132253 1.7344597058 3.5421013473 0.4415960615 4.6580215688 8.3904835765 3.2860709687 3.4779163561 6.7153344885 4.4067777768 1.1216371489 7.8266063478 0.8408930147 3.7282341561 6.2108900630 6.8891410922 0.8069086399 1.3853490611 4.0610799911 1.9474798651 2.9103802456 2.8273356962 4.3226649496
4.9760366317 0.1300549330 2.2493282684 2.6018806285 5.0265965928 5.1468067050 2.0085715900 2.0505512761 2.2256651887 7.1061606526 1.4689430458 0.0239337095 7.6649307023 4.7375799489 2.5477318297 0.9927364477 5.0890387111 2.2748921521 3.8490164483 1.5196103359 4.6364878955 8.7434251040 1.6996312527 2.8595857843 6.0220103279 4.6620477416 0.1634132326 1.2035143046 4.8694066800 3.7793157598 3.6466497731 1.6873154849 1.0514749599 8.4057308733 1.6139457393 1.3632858691 6.0982525448 4.8098386744 3.7246522258 4.5505140524 4.4523533968 0.5481296498 0.4034813449 1.5362736970 3.1026405805 5.3486222398 1.5695873844 4.2421223995 9.3794336163 5.1969033874 1.8321882850 1.7701524024 6.2002075294 1.5074258379 3.3677070359 0.0647079011 4.1707501978 8.1864982309 3.0274926678 3.4682232678 6.9156866546 3.5410813891 0.8515361449 8.0994895336 0.5617665556 3.7023950529 6.6441503726 5.8854243892 0.9443836272 1.6965325668 3.8800735755 1.4561972780 3.0756524994 2.5454139344 3.7605044976
4.5710366811 -0.9676812027 2.7003657332 2.7326206788 5.0343374604 4.9956298318 2.2105402146 2.0198784624 2.5008925746 7.0035674673 1.3670167831 0.2109764738 7.8192522145 4.5980925802 2.6182312274 1.1356103686 5.0654370268 2.1416844544 3.8197377851 1.6035499122 4.7438473535 8.7756456794 1.6886595584 3.0470288646 6.0927982085 5.0290269438 0.1291632905 1.3320224216 5.0112034440 3.6809240946 3.4172513506 1.7384129156 1.1124517297 8.3032885284 1.6620314509 1.5702926127 6.3277793769 5.0144308750 3.7095536758 4.5436635073 4.6959384468 0.2671928754 0.4712017444 1.5586171747 3.0931700961 5.3429188879 1.7382029098 4.5614655675 9.4747759750 5.2549336673 1.8848182677 2.0356252547 6.1470306162 1.3911658318 3.3769127269 0.2857918270 4.1353995748 8.3507993972 3.0796139914 3.6923537105 6.9437422988 3.9884326869 0.9105217585 7.9096832311 0.5783304382 3.7492707381 6.3003787096 6.4159494487 0.8214532707 1.7054728815 3.7911476601 1.4325595786 3.0920682828 2.7311306406 3.9035525870
4.7057533877 0.0715604692 2.6848773191 2.6790890903 7.7858742133 5.4673658407 1.6996971517 3.0510001655 2.7989395120 6.0441355286 1.5309500116 -0.0603510524 6.6959973702 6.0385135169 2.5402466909 1.4237522484 6.2213496732 2.7813759964 3.0573757594 1.5639565558 5.3341132637 7.0403427383 2.9271786128 2.6041189494 5.8359443195 7.6134314069 0.1273468610 2.1538454429 6.6834106226 4.0733482747 1.9421921808 1.8005745312 1.2791845080 7.1140828674 2.6400998414 1.0799788484 5.8050457611 7.2458655164 3.8387975107 4.4627381678 7.6137720720 0.8349633986 -0.1349198035 2.9390213764 3.0840545560 4.4728776840 1.7795052591 5.9836043141 8.4480383617 6.1178566644 3.2916184595 1.6188329381 7.3283320786 1.7108835513 3.0639269796 0.1161621465 4.7237649926 6.2804960000 4.2621368571 2.7955807852 6.6976180463 6.4708672261 0.6954777634 6.1728975607 1.7925842529 3.3918689736 6.4755543832 9.0227207753 0.3223949498 2.0227228612 4.8988765680 2.2059869351 2.7751956914 2.5982872198 4.1952297747
4.6705948522 0.2185492076 2.5036417367 2.7622698948 6.6022162696 5.2645301213 2.0692093993 2.7576164172 2.5667658989 6.9278129226 1.1218856644 0.0586269582 7.4881533088 5.0817229075 2.7268707649 1.0951328167 5.8570352966 2.5752180636 3.7674938456 1.9763780980 5.0660862355 8.5083184792 1.9963786428 2.7449936221 5.7883074177 5.8875296491 0.2272370592 1.5988873429 5.8762848919 4.0480895460 3.2974987742 1.9734494337 1.3390040238 8.1060801266 1.8657930000 1.2633491159 6.1576045666 5.8579487814 3.9589519363 4.2923835746 5.5076230644 0.4550946217 0.4789902074 1.7035862642 2.9411295790 5.2704636635 2.2152583972 4.9909930568 9.1342707620 6.2427859725 2.5560895567 1.9351120139 6.8787750772 1.7170985197 3.5034077625 0.5372684342 4.4922150577 8.1154504189 3.4270153858 3.2909001121 6.7183135707 4.9612433295 1.0577571312 7.5952581039 0.9310305570 3.4669369422 5.9448802790 7.3371648561 0.7918436446 1.3749865340 4.4345933971 1.9916230482 2.9116957082 2.9516357897 4.2114527229
5.4277225736 -0.0220801590 3.0958098527 2.8236781937 7.5288067839 5.4900832244 1.9548004927 3.2341791490 2.6701322730 6.6420546949 1.2819667968 0.1321934559 7.3420260090 5.5857399947 2.8553568725 1.3693666478 6.3845802599 2.7097506309 3.5655127522 1.9605207501 5.3403218661 7.9927903210 2.4270091940 2.8206712539 5.8819761699 6.9637357363 0.2421703312 1.9375107372 6.6324551613 4.1130190508 2.7548473204 2.2082074922 1.3406236026 7.9659680984 2.0312582708 1.3045129574 6.2907902318 6.8669384358 4.0862056164 4.3405172876 6.8424351078 0.5754844626 0.2436057924 2.4252099009 3.0745961741 5.1115747590 2.1361823181 5.4478267059 9.0222360801 6.5014906140 3.0568735461 1.8516413284 7.5014956543 1.7585880559 3.2947640698 0.4810310009 4.8212027725 7.2170330808 3.7339508097 3.1121817608 6.6103376825 5.8653234742 1.0489179977 7.1959976043 1.3339510209 3.5743429344 6.3538329345 8.3870985613 0.7926466605 1.8125365294 4.9835871188 2.1721416642 3.0146948454 3.0113326572 4.2621951308
5.3679531884 0.0147659423 3.0640880684 2.8016357480 7.5018381483 5.4499936609 1.9507271247 3.2177582803 2.6699655001 6.6340500691 1.2359889011 0.1115261867 7.3561977213 5.5686332070 2.8186606297 1.3366617120 6.3776886641 2.7040093824 3.5591049911 1.9735481909 5.2935212417 8.0216464783 2.3968768044 2.7795664209 5.8542496479 6.8680514314 0.2388876792 1.9313665427 6.5828411028 4.1065700633 2.7678001542 2.2095717885 1.3013731745 7.9580853337 1.9932982998 1.2580638471 6.3037650337 6.7980601360 4.0427730792 4.3357606945 6.7621392711 0.5070555291 0.2446906159 2.3906262439 3.0587391747 5.1274934767 2.1238157333 5.3745773436 9.0149160259 6.4853541759 3.0207717218 1.8090260204 7.5091396856 1.7565648768 3.3132104266 0.4940090017 4.7481246963 7.2417997256 3.7178276968 3.0853954132 6.6127413661 5.8026672369 1.0192601064 7.2120324114 1.2743357772 3.5085864863 6.3131758679 8.2966677871 0.8210576223 1.7400967605 4.9760015388 2.1727225842 3.0014411558 3.0220238978 4.2632359591
4.7105312011 -0.5037544117 2.5195786434 2.7944342764 5.0448010047 5.1066855271 2.1014395884 1.8489758888 2.1370135373 7.2728811943 1.3371212926 0.2331821684 7.9979945734 4.6879827366 2.4644134952 1.1526840269 4.9878665143 2.2065831936 3.9730936841 1.5134186042 4.7401335681 9.1580806678 1.7700178190 2.9367305257 6.1874287886 4.9592483796 0.2831283111 1.4928382937 4.7917758060 3.7113775588 3.6852758324 1.6839508951 1.1676511732 8.6993994435 1.4787656711 1.4677821954 6.4575943472 4.9990593234 3.8741633740 4.6521900223 4.7398545210 0.5110604845 0.4826475063 1.7732120363 3.0990945549 5.5460184570 1.8403112693 4.6127200330 9.8335228837 5.2199316986 2.1139824363 1.8934363210 6.1607748920 1.4205754681 3.6524423178 0.0781351648 4.3613076705 8.5210868427 3.1273686913 3.3746079200 6.9168916064 3.8387781879 1.0350432844 8.4952968445 0.7793413983 3.9515545045 6.6761141984 6.2340807695 1.0337649882 1.7370370406 3.7278020245 1.4773172137 3.2615275878 2.5228062893 3.8004339156
4.5011255523 -0.9525851405 2.6883436772 2.6701889486 5.0533552836 5.0114572047 2.1691961959 2.0823360586 2.5127653386 6.8805935523 1.3553421317 0.1552108828 7.7619088409 4.5149352333 2.6159910106 1.0880671769 5.0765819436 2.1992650909 3.7644529355 1.6123140556 4.8026949982 8.6580857019 1.6907699749 2.9782064496 5.9710648889 5.0104326730 0.1269508098 1.3519144201 5.0257339007 3.7187881663 3.4188300841 1.6265897449 1.1670557798 8.2693866073 1.7064824406 1.4860831805 6.2964413643 5.0051975894 3.7485774261 4.4808360632 4.6976930966 0.3098092176 0.4278522796 1.5127634683 3.1380156342 5.2804659532 1.8069051901 4.5379829833 9.3611706181 5.3074405947 1.9085009632 1.9606304922 6.1383731524 1.4800976642 3.2361115335 0.2698141016 4.1345626384 8.2843938641 3.0324632457 3.6933857775 6.8318703015 4.0053025620 0.9740607402 7.8872256550 0.6035531958 3.7943240121 6.1984858516 6.3976019537 0.8517744557 1.7029289072 3.7264717442 1.5885636906 3.0519322185 2.8118775380 4.0967356033
5.3883178151 -0.1497187839 2.6911438581 2.8463541119 7.5730070655 5.4534946469 1.9003066898 3.0781770803 2.6294645910 6.3533081272 1.7250350424 0.0800028011 6.8900739266 5.8472321230 2.7002603520 1.4406137551 6.1879568980 2.7559546939 3.2476222197 1.6810640977 5.3282819858 7.4729544632 2.9050905078 2.7592219391 5.8606410923 7.4937327854 0.0875736743 1.8172364003 6.8766091041 4.1031756834 2.1533732426 1.9070254772 1.3079858486 7.5716932273 2.5459755272 1.2629654008 5.8679157180 6.9349180454 3.8872014128 4.4868365410 7.5603515894 0.7412592372 0.0301277974 3.0266875730 3.0736389010 4.7080614444 1.9897874246 5.8360682144 8.7347619423 5.9996963432 3.2487728393 1.6054789438 7.1912693751 1.5973767513 3.1142471498 0.2587783183 4.7407301342 6.4241171563 4.0701048047 2.9259680925 6.7312446806 6.5402984936 0.8992424357 6.7873921778 1.6488715569 3.5191564788 6.4319259162 8.9040450947 0.1230943007 2.3121757250 4.9342289447 2.4339560195 2.8586376490 2.6636603719 4.2307681746
5.3648568797 -0.1255354520 2.6873379122 2.8547547361 7.5813594935 5.4442861005 1.8946594982 3.0595517404 2.6189943641 6.3350212145 1.7110625744 0.0704026422 6.8739361119 5.8658063352 2.6767814535 1.4345614524 6.1892959194 2.7583655157 3.2352967290 1.6602057647 5.3258510136 7.4101080313 2.8898541591 2.7441337154 5.8504867134 7.5085389281 0.0769549039 1.8414981896 6.8654749864 4.0874931967 2.1386093403 1.8901681689 1.3000485827 7.5559807401 2.5535144437 1.2272049965 5.8413543426 6.9335349038 3.8552204537 4.4764289715 7.5732373047 0.7208410355 0.0214611989 3.0298967785 3.0404520522 4.6923226703 1.9774044276 5.8783967493 8.6991568110 5.9641458305 3.2341998719 1.5802506815 7.1873096088 1.5884026674 3.0914704071 0.2238349180 4.7455761137 6.3797851951 4.0578146769 2.9224483813 6.7160616805 6.5467646854 0.8742390537 6.7595635698 1.6404709781 3.5200499724 6.4259679896 8.9393116869 0.1160385477 2.3084605662 4.9271257425 2.4342937400 2.8357824704 2.6720164534 4.2101436303
4.3379456831 0.0326049563 2.6331092735 2.7540635282 7.7002815527 5.3672225178 1.6525351617 3.0658365145 2.7358609619 6.0890678825 1.4813018708 -0.0387002520 6.7696770997 6.1587625052 2.6371997303 1.4735183284 6.2453119287 2.7323144633 3.0445036815 1.6009954081 5.3945425816 6.9343199323 2.9397554132 2.6205463249 5.8734339366 7.6460009250 0.0822635476 2.3351888729 6.4183804801 4.0492447489 1.8829598392 1.8192851990 1.3649486707 7.1557346769 2.5701251225 1.1278174963 5.8697479730 7.4184145099 3.7444267302 4.4509400642 7.6550094803 0.6974987807 -0.2404202240 2.8681189545 3.1130575778 4.4869605629 1.7248117038 5.9694586644 8.5206997235 6.2557998545 3.3555909263 1.7862190375 7.4632438824 1.8223523558 2.8320333466 0.2022746734 4.6872185989 6.2956600450 4.3625963775 2.8019385157 6.7440453769 6.5989941762 0.7684386544 5.9059676763 1.8697545532 3.2705762964 6.5157655659 9.0002470216 0.4112691757 1.8688297723 4.8535120259 2.1710484529 2.8713216082 2.6045381862 4.1914991414
3.9248307014 0.0585641719 2.5475717102 2.7926142208 7.5897706176 5.2952343165 1.4870492332 3.1106001352 2.7689176746 6.1744085512 1.5684063323 -0.0176292830 6.9428236544 6.1870309641 2.7281053507 1.5642565768 6.2198119210 2.8168316856 2.9262794097 1.6314349277 5.3046851915 6.9156391814 2.9543362740 2.6712912573 5.9230946681 7.6588129599 0.1180691188 2.4320436802 6.1522993715 4.1066878786 1.9311026788 1.8663157296 1.3393269257 7.0657687692 2.5590304539 1.1847153047 5.8868475182 7.4800434510 3.7501814072 4.5411765913 7.6649770318 0.8367734557 -0.2918231338 2.7986323635 3.2308380940 4.4388325822 1.5578610326 5.7753813176 8.6649383690 6.4791020336 3.5068478529 2.0651873766 7.3942675551 1.9225066817 2.5808424941 0.2134243619 4.6406544507 6.2815422814 4.3511642388 2.7683244425 6.7372963951 6.5263849485 0.8113138780 5.9217598419 1.8877710626 3.3238394276 6.6664720894 9.0201526762 0.4286448038 1.7045938639 4.8741582921 2.0397086097 2.6490563882 2.7693545506 4.2372410160
4.7752378838 0.2026458594 2.6541202518 2.8363244832 6.8601747377 5.3179946486 2.0549396643 2.8850214951 2.5157398099 6.8639275526 1.0535172490 0.0835404131 7.5428938356 5.2058665787 2.7913619514 1.1631751982 5.9887258039 2.5989754355 3.7565105660 1.9316122887 5.1423448665 8.3931817668 2.0174380927 2.8029642760 5.7777868710 6.0630043309 0.2264542567 1.7851576805 6.0592323209 4.0028036369 3.2267517676 1.9383865666 1.3859775338 8.1184323234 1.8769552268 1.2649154401 6.1442563433 6.1044476394 3.9368131017 4.2429322938 5.7040497035 0.4325319130 0.4347178316 1.8205374157 2.9611287389 5.3026685670 2.1525676351 5.1356634354 9.1199779545 6.2984457766 2.7048597185 1.9256744148 7.0442738863 1.7535922621 3.4186945043 0.5175745063 4.5346703848 8.0116384711 3.4216625511 3.3416765449 6.6033359358 5.0692606313 1.0413306773 7.5154275441 0.9570282559 3.5548898385 5.9701227670 7.5070815668 0.8060380047 1.3366101151 4.5230408187 2.0602920034 3.0295622662 3.0333440477 4.2588797384
4.5838302621 -0.9652378168 2.6993477333 2.7446813707 5.0353340806 5.0007794973 2.2114863502 2.0070019108 2.4946442128 7.0297276090 1.3710677987 0.2227573440 7.8347728095 4.6176651073 2.6190567451 1.1467684274 5.0696835019 2.1339677017 3.8312630430 1.5975390451 4.7355546666 8.7999855176 1.6929843424 3.0635621681 6.1091416034 5.0373651276 0.1445023351 1.3242980695 5.0121281706 3.6717019158 3.4190948222 1.7689463289 1.1240395603 8.3117934285 1.6560428010 1.5757724547 6.3392187624 5.0175336428 3.7043429532 4.5614968806 4.6998933242 0.2671773062 0.4713204765 1.5693144739 3.0865599159 5.3761151048 1.7356861489 4.5712542376 9.5005235990 5.2411011712 1.8911408924 2.0446632223 6.1508654411 1.3910839822 3.3992947324 0.2800972129 4.1332350089 8.3681614617 3.0826792248 3.6880517212 6.9562107391 3.9949563849 0.8879839233 7.9241534605 0.5791563373 3.7475273299 6.3236127874 6.4097864057 0.8144044535 1.7015415365 3.7989253405 1.4086742840 3.1074913806 2.7337601608 3.8892875153
4.4662115619 -0.9274131323 2.6662854061 2.6395748346 5.0779668122 5.0390780694 2.1304818936 2.1101825468 2.5163534179 6.8375095410 1.3504914581 0.1321191359 7.7457701307 4.4816658968 2.6100253942 1.0885179541 5.0876211519 2.2329221868 3.7299577210 1.5817388864 4.8401996822 8.6169392001 1.6845961594 2.9520193254 5.9226752931 5.0258926613 0.1670946542 1.3225164238 5.0395030283 3.7379666305 3.4479289485 1.5935848844 1.2352570401 8.2497188033 1.7314439845 1.4260746532 6.2847454098 5.0006372524 3.7926006234 4.4225521480 4.7043530933 0.3540266557 0.4346095876 1.4988753909 3.1418495532 5.2777072292 1.8580851746 4.5347406881 9.2923466735 5.3073085412 1.9477124767 1.9411102622 6.1399812304 1.5292622194 3.1917034013 0.3045158428 4.1533096038 8.2558409076 3.0243205919 3.6729847952 6.7493767869 4.0281943214 0.9621422468 7.8824745891 0.6177308912 3.8189668823 6.1611547146 6.3789745443 0.8470657547 1.6619681525 3.7217155530 1.6742170713 3.0177038732 2.8738535218 4.2073997963
5.5023886668 -0.2492939040 2.8070404750 2.7933409388 7.6636113884 5.5322201273 1.9293655921 3.2427119743 2.8144689078 6.4866834530 1.8000379370 0.1283159894 7.0873791223 5.8729145631 2.8434423205 1.3751982034 6.3275460998 2.8066414140 3.3305963540 1.7530536830 5.3606043377 7.7021068619 2.8336675695 2.8561932496 5.9204406398 7.4491988098 0.2092515345 1.8138373431 6.8567420660 4.2043122429 2.3206836431 2.0120643002 1.2689416223 7.8412997272 2.5078431741 1.3495695013 5.9853061960 6.9564239726 4.1034549899 4.5450889487 7.4220355408 0.8799355878 0.0801308057 2.9697741139 3.2191334430 4.8297543422 2.1171102879 5.7046972908 8.8318429851 6.2257993618 3.1977702673 1.6979037709 7.4033045853 1.7525973680 3.2452054787 0.2825540520 4.8480544541 6.7173932759 4.0628153560 3.0461055993 6.8196892135 6.4786038226 1.0126587291 6.9819101858 1.6209462295 3.6404642398 6.5773983533 8.8471157723 0.2736174983 2.2319042860 5.0700123146 2.4932023963 2.9321511565 2.8154906569 4.3334090495
5.1976237202 0.0017021014 2.4709615023 2.8316851454 4.6414650560 4.9020056580 2.2270195008 1.5757395914 2.4602686583 7.5572072373 1.5570475086 -0.0034779018 8.1793627908 4.6543770581 2.5307333149 1.1445305462 4.6283980626 2.1696173266 4.0982225620 1.6301266726 4.6797696270 9.2561743467 1.5517762861 2.7457797129 6.2987574475 4.6297190186 0.2965525836 1.4216517265 4.6660983837 3.6893526351 3.8870230047 1.5710573125 1.3055171893 9.0653937463 1.5671973143 1.2228028614 6.4694647353 4.6454253891 3.6883425585 4.8110052907 4.7586033100 0.6147851206 0.3755659098 1.4706333345 3.0126939086 5.5746600636 1.5139008354 4.2911828169 10.0159871340 4.6078438176 1.8873705866 1.8636176084 5.8184990927 1.4429849293 3.3757017556 0.4296894163 4.0024085519 8.5116380817 2.7485599551 3.4441096086 7.0021428270 3.3901188269 0.9775178862 8.5623305188 0.3518560240 3.4251097081 6.9856578931 5.9267706981 0.9244462651 1.9133017996 3.3938562322 1.6066270851 3.3285340651 2.8311510383 3.9925582743
5.0480449364 0.1471265920 2.5450298603 2.6034120562 4.9463940111 5.0474922588 2.0588849075 1.9629565252 2.3131531975 7.1232094193 1.5590327446 0.0149645594 7.5484216038 4.5573086081 2.5782934799 1.0100020858 5.0300038197 2.2941188239 3.7021073164 1.5020529729 4.6792311032 8.6857239438 1.4844965857 2.8706602380 5.8398072265 4.6940429951 0.1345914369 1.2106679883 4.8966605751 3.8122146745 3.5408267580 1.7294878718 1.1310031783 8.4813292383 1.3617255813 1.3366070348 6.0051967814 4.6275426729 3.6639256903 4.3497114326 4.7052880791 0.5535507691 0.4773813424 1.5541438752 3.3071085339 5.2240462779 1.5282811321 4.3962288943 9.2065513448 4.9768335865 1.8576393887 1.8200026165 6.1667148432 1.5743320756 3.0958933433 0.2107425759 4.1336487365 8.0110924351 2.7471380063 3.5798359278 6.5487649729 3.4938622686 0.8298509840 7.8354319365 0.3228188047 3.5605948296 6.5323308657 5.9292474258 0.8241622042 1.5464353220 3.7161927887 1.5538414208 3.1064853623 2.7374666801 3.9583664780
4.5308848169 -0.9644979480 2.6968035392 2.6962080117 5.0414160655 4.9957056886 2.1929903545 2.0576961382 2.5100206630 6.9282261966 1.3591297835 0.1777132474 7.7809892821 4.5474646255 2.6171154500 1.1010286812 5.0676276724 2.1722998286 3.7912486567 1.6219305245 4.7785440248 8.7027354843 1.6880318791 3.0002720821 6.0239337734 5.0122959176 0.1058908811 1.3530623924 5.0180382855 3.7064866953 3.4170977251 1.6642545565 1.1124824880 8.2844332696 1.6863743643 1.5362861959 6.3041228903 5.0092347217 3.7341192993 4.5050864859 4.6950788545 0.2846789644 0.4473630214 1.5296359771 3.1193857795 5.2785257065 1.7686347521 4.5435813780 9.4091282215 5.2925744521 1.8880729512 1.9947294487 6.1437771795 1.4302779085 3.2936192495 0.2733471943 4.1318690825 8.3086665430 3.0554751092 3.6978203665 6.8919012574 3.9868268433 0.9647974199 7.8896808107 0.5895695548 3.7702255287 6.2376734822 6.4201458221 0.8456670534 1.7121811014 3.7534442072 1.5170267711 3.0682699575 2.7602890330 4.0013511211
4.7125355035 -0.5515701322 2.5158434501 2.7866556141 5.0334455651 5.0910635569 2.0921762137 1.8466835553 2.1504488881 7.2707491195 1.3362703669 0.2423398036 8.0062237967 4.6906986605 2.4647436420 1.1602113819 4.9921026950 2.2029960127 3.9776645821 1.5396058210 4.7493613957 9.1483636257 1.7706580756 2.9403639303 6.1945660006 4.9707346798 0.2717832742 1.5108987215 4.7940510662 3.7070768500 3.6894295200 1.6873867951 1.1701919161 8.7068149588 1.4949649179 1.4680748282 6.4432266357 4.9921849808 3.8603066023 4.6504841919 4.7647952081 0.4994815414 0.4858039335 1.7460825279 3.0777746411 5.5464494082 1.8254308496 4.6179220719 9.8266006784 5.2162694732 2.0976263493 1.8936874866 6.1765455563 1.4194183406 3.6529125482 0.1119688086 4.3611243499 8.5017775653 3.1323426452 3.3730561526 6.9339851405 3.8512845387 1.0356054421 8.4949026881 0.7740844968 3.9652386672 6.6739814784 6.2777350599 1.0107630925 1.7361269245 3.7265401769 1.4862180835 3.2880600289 2.5290897487 3.7873836275
5.5043531286 -0.2507056528 2.8109953232 2.7928988010 7.6665710704 5.5309978093 1.9300416694 3.2448072700 2.8168062722 6.4909713675 1.7998652917 0.1294326903 7.0919643078 5.8758788980 2.8446581779 1.3735252681 6.3335371098 2.8060602600 3.3326151632 1.7551463000 5.3590313772 7.7052505414 2.8272832901 2.8554781734 5.9226044045 7.4500013780 0.2108091812 1.8161596423 6.8535217794 4.2070507238 2.3280068852 2.0184902921 1.2677093726 7.8502480643 2.5062685493 1.3515983020 5.9881269652 6.9547781391 4.1122987452 4.5446241150 7.4174121725 0.8779344758 0.0784943264 2.9639930874 3.2151669893 4.8293965160 2.1192170870 5.7007555903 8.8372522512 6.2309546041 3.1920878030 1.6974005177 7.4121268990 1.7543416980 3.2476244273 0.2851985087 4.8504643547 6.7231273234 4.0596840698 3.0490675826 6.8207743177 6.4744271889 1.0136026948 6.9872570996 1.6148146776 3.6478435866 6.5778823512 8.8441438785 0.2798998687 2.2256303105 5.0746114010 2.4926795478 2.9351069963 2.8140033084 4.3383128318
4.5082391997 0.1967184714 2.4601148038 2.6601704301 6.2518441534 5.3250033144 1.9925852924 2.6108324649 2.6600919783 6.9091533968 1.2740642532 0.0314025068 7.5050746908 4.9717532792 2.8258000701 0.9983336168 5.5996829398 2.5830882835 3.8191668294 1.9269895295 5.1663594395 8.5535861439 1.9351153610 2.7793995387 5.8404924612 5.6003575131 0.2496759192 1.2960744721 5.6716850563 4.1170644750 3.4577870262 1.9064838883 1.3956141665 8.2044733798 1.8916117976 1.2899044205 6.1548317571 5.6241023940 4.0372876673 4.3369015717 5.2248563870 0.5031064935 0.5044396001 1.5438540866 2.9377479148 5.2773726054 2.3333196265 4.8620363195 9.0464915740 5.8999132296 2.4050980556 1.8744809666 6.6622238472 1.8092154253 3.5448019937 0.4680977115 4.5954078005 8.2733143024 3.3689393622 3.3862548352 6.7767130407 4.6555733782 1.0621986598 7.8008413388 0.9397823773 3.7174329676 6.0763884423 7.0898296658 0.7602655335 1.4190946491 4.2449984910 1.9588024799 2.9458158469 2.9409252438 4.3452822376
4.4852217815 -0.9427536046 2.6803302360 2.6563158603 5.0625642020 5.0233921237 2.1529104937 2.0948663305 2.5141159188 6.8589669405 1.3532187177 0.1440478341 7.7541968624 4.4987085035 2.6140494197 1.0871516794 5.0815062818 2.2144218127 3.7482983246 1.5982205199 4.8172631223 8.6378082042 1.6897773235 2.9676445603 5.9472345295 5.0147366441 0.1463805057 1.3423505794 5.0306005252 3.7249498144 3.4265909405 1.6104345909 1.2024044738 8.2604269773 1.7175891992 1.4557137484 6.2925985251 5.0025368334 3.7622428941 4.4597573051 4.6993639880 0.3276945320 0.4257090678 1.5054893515 3.1434417216 5.2853861373 1.8301628006 4.5361563657 9.3311356675 5.3094673361 1.9244696703 1.9470153575 6.1361360506 1.5059982438 3.2121998920 0.2800401097 4.1411409984 8.2716605308 3.0247595077 3.6865207429 6.7937189116 4.0180364912 0.9691130638 7.8861723067 0.6106282538 3.8069579447 6.1800601632 6.3832379903 0.8499991562 1.6890547645 3.7191709769 1.6284866280 3.0385062325 2.8432364969 4.1481061353
4.9597168745 0.0988578206 2.2206532912 2.6216172476 5.0642571409 5.1658835833 2.0080132262 2.0375317840 2.2097755498 7.1603855077 1.4508919898 0.0484461628 7.6981507999 4.7488247876 2.5375725316 1.0047397282 5.1105711053 2.2661385745 3.8501505609 1.4705336683 4.6189981483 8.7968878371 1.7467610482 2.8488614282 6.0530346301 4.6744426589 0.2027270765 1.2595507858 4.8585762689 3.7561138809 3.6703044730 1.6726185213 1.0653842022 8.4357694953 1.6090194584 1.3666517001 6.1660108045 4.8664190195 3.7465611141 4.5523587501 4.4125351235 0.5645391151 0.3772898965 1.5542186367 3.0595197286 5.3926349360 1.6334719045 4.2090492787 9.4522331895 5.1816654411 1.8165011747 1.8219668397 6.2452915916 1.5270160953 3.4024908665 0.0224302675 4.1998274853 8.2358302871 3.0535106121 3.4704280054 6.9693693000 3.5982368822 0.8459284192 8.1735751422 0.6243337248 3.7160591602 6.6690037490 5.8855229973 1.0259739264 1.6423019440 3.8756224848 1.4660927514 3.0767615826 2.5685995985 3.8009642507