-28926.9977468896
-28927.3992903814
-28926.4119745323
-28927.6335492554
-28926.6120357893
-28927.350184335
-28926.7934413392
-28926.556578065
-28927.3275648838
-28927.8248660026
-28927.5422416397
-28927.5746863003
-28926.405591017
-28926.8713900771
-28927.1310234175
-28927.1379023158
-28927.5147716257
-28927.4494110036
-28927.6644073571
-28926.4973402732
-28926.6312559962
-28927.1542694105
-28927.3603275092
-28926.8656703832
-28926.6989098565
-28926.4517834059
-28927.1279097565
-28927.5743024839
-28926.7957902247
-28926.7460040302
-28927.3286473521
-28927.2297108928
-28926.6821171759
-28927.4395517801
-28926.750933778
-28926.6012716516
-28927.2264761412
-28927.7268630293
-28927.1327497068
-28927.5234055213
-28926.6229116296
-28927.0129175005
-28926.4312097054
-28927.5435362206
-28926.4569249942
-28927.3317562511
-28927.5278895469
-28927.0600176607
-28927.1565411518
-28927.0803380233
-28927.2210178125
-28927.8309115527
-28927.6223687838
-28927.4247146446
-28927.1610502118
-28926.9350211445
-28926.7064848216
-28927.7294974981
-28927.0672134353
-28927.1689032771
-28927.4098607741
-28926.6447231753
-28927.1353758761
-28927.4695109541
-28927.5582903614
-28927.6488829984
-28926.8702303285
-28926.6021424154
-28927.4721682805
-28927.5188399976
-28927.7139425267
-28927.1660345184
-28926.8156365652
-28927.6551033815
-28927.2475358367
-28927.524156419
-28926.4699237296
-28926.7210099787
-28927.4884351013
-28927.0692688462
-28927.218838862
-28927.1612537529
-28927.1777646597
-28926.54218257
-28926.8346536392
-28927.3507405354
-28926.7578377107
-28926.672580407
-28926.5438729403
-28927.4498214871
-28927.4518239718
-28927.3210529309
-28926.7443461774
-28927.0108154222
-28926.5821725353
-28927.4448705144
-28927.3385273923
-28927.5114955128
-28927.650363569
-28926.6108608023
-28927.3429870638
-28927.0433291996
-28927.232470942
-28927.3599462779
-28927.1010647877
-28926.8514770687
-28927.5640510085
-28927.4750664274
-28927.5783218754
-28927.4028903095
-28926.5423488315
-28926.6343738749
-28926.7023244752
-28927.3479198048
-28927.1585339764
-28926.9082352244
-28927.815128686
-28926.7218504019
-28927.3555253827
-28927.3929596562
-28927.3722768381
-28927.3921891662
-28926.4914872436
-28927.049409036
-28927.5032812166
-28926.5964072111
-28927.2596658491
-28927.5021282708
-28926.6126689978
-28926.7537072969
-28927.1636747484
-28927.6480752289
-28926.6087463428
-28927.6693317987
-28927.0455542733
-28927.0019260118
-28927.3320554401
-28926.4407764068
-28927.8517883878
-28926.6520389521
-28926.9063838988
-28927.6603297333
-28927.0067365739
-28927.7232297672
-28927.6002248512
-28927.166188943
-28927.0324468286
-28926.8302243085
-28927.0840859813
-28926.9204165302
-28927.5922170893
-28927.0016332175
-28927.0047215719
-28926.4771460353
-28927.0307971393
-28926.4228287396
-28927.4892699462
-28927.4220978632
-28927.0956885013
-28926.5791356103
-28927.1705748716
-28927.5601484898
-28926.4788549094
-28927.6376091918
-28927.4138060145
-28926.7988203468
-28927.166277652
-28926.7788457046
-28927.2574539729
-28927.6090727642
-28926.450029361
-28927.4082229217
-28927.23439982
-28927.4337194311
-28926.7932078657
-28926.7106828557
-28926.7413102049
-28927.8540443464
-28927.5202958059
-28926.7341561997
-28927.6585479328
-28927.6941870721
-28926.648135345
-28927.5177118142
-28927.138048985
-28927.6528053813
-28927.3471672744
-28926.5262274554
-28926.9061188601
-28927.6181525181
-28927.673078124
-28927.32886722
-28927.070323967
-28926.6212077897
-28927.534763275
-28926.5224573201
-28927.3623797908
-28927.8012273495
-28927.2627049509
-28927.0037411463
-28927.5217088924
-28927.3664428565
-28927.600719826
-28927.6573675035
-28927.7581875339
-28926.9289539614
-28927.4862998251
-28926.7189774254
-28927.0555803026
-28926.5933387209
-28926.8064021147
-28926.4215835473
-28926.7342351127
-28927.1428626764
-28927.3866926055
-28926.5805301931
-28927.4512552542
-28927.1311477735
-28927.4544252428
-28926.6339161797
-28927.09920353
-28927.4099614561
-28926.4311173228
-28927.6090143958
-28926.6944504572
-28927.7465107269
-28927.0035188294
-28927.707519827
-28926.9277610149
-28926.6293771871
-28927.6736517397
-28927.5273004207
-28927.1588362948
-28926.9511826574
-28926.6046129357
-28927.6349290079
-28927.4501636701
-28927.3758298267
-28927.5920663383
-28927.0441169688
-28927.7895928562
-28926.8749051058
-28926.4337848534
-28927.0647708067
-28927.4513370244
-28927.063112954
-28927.7392100524
-28926.9683979306
-28927.0769567384
-28927.3541488956
-28927.1359777916
-28927.7995018765
-28927.8044372027
-28927.32188383
-28926.6624617231
-28927.4534992398
-28927.1955946377
-28926.621388201
-28926.7588050749
-28927.3473392503
-28927.5252795683
-28927.0928308993
-28927.476745505
-28927.1966977867
-28927.4800125021
-28927.2638577606
-28926.7682856522
-28927.0944977317
-28926.632502549
-28926.8657238535
-28927.678542031
-28926.6327847309
-28926.7054122854
-28927.4896355309
-28926.5634292076
-28926.7148525899
-28927.1338385698
-28926.6131232917
-28927.6507113303
-28927.0335959647
-28927.6648801546
-28927.4477780493
-28927.4173134241
-28926.9760421486
-28927.1585645892
-28927.3391766556
-28927.1385153879
-28927.0359389997
-28927.7155168405
-28926.7128774526
-28926.9337375842
-28926.625061736
-28926.8475228485
-28926.6716450162
-28926.8809713365
-28927.0169415179
-28927.0639280706
-28927.4498405351
-28926.7235730176
-28927.6572797469
-28927.5244832276
-28927.5728234099
-28927.4846203394
-28926.7838286507
-28926.767890271
-28926.4296353916
-28927.0143248725
-28926.5899719942
-28927.4504376886
-28926.6980460315
-28926.8086371206
-28926.9996154944
-28926.8074082551
-28927.6354600378
-28926.8503118778
-28927.5286838467
-28927.6211629119
-28927.6619737082
-28926.6391262046
-28927.518333594
-28927.3309431754
-28927.5761611565
-28927.5831637305
-28927.6455551839
-28927.4235938082
-28927.4110874626
-28926.5935594051
-28927.5814341758
-28927.2265440336
-28926.5812148311
-28927.823538632
-28926.4194089506
-28927.5497838151
-28926.6968507721
-28927.7215974932
-28927.4448680654
-28927.1666475906
-28927.4767925807
-28927.5565809432
-28927.0255080653
-28927.6862259777
-28926.7758855157
-28927.1060168488
-28927.2366940106
-28926.7121797531
-28927.565069394
-28927.5804500766
-28927.4035269195
-28927.0398566206
-28927.1106108084
-28926.9627927965
-28927.387356699
-28927.0521930312
-28927.8610812067
-28927.0334320162
-28927.6476696434
-28927.7666202014
-28927.4030447341
-28927.139039615
-28926.7189708947
-28927.3284673489
-28927.1108431935
-28927.5224694501
-28927.3355623054
-28926.4963820248
-28927.3720317997
-28927.6580273793
-28927.5091308448
-28927.6886756813
-28926.6392882483
-28927.6776197017
-28927.1586912581
-28927.0336344688
-28926.4514478897
-28926.562752733
-28926.4801561571
-28927.0568400529
-28926.6770683783
-28927.3456209883
-28926.9085352297
-28926.4255603529
-28927.0389487133
-28926.5629666144
-28926.4544740661
-28926.8776852915
-28927.2627287609
-28926.7165069052
-28927.1508209136
-28927.4066658871
-28927.2548683485
-28926.6866757606
-28927.8591483831
-28926.9142772369
-28927.1208950735
-28927.559435688
-28927.2875513807
-28927.4175772383
-28927.1685598696
-28927.2397156972
-28927.3130355089
-28926.8862659888
-28927.3320397936
-28926.9845957706
-28926.7344864097
-28927.0689665278
-28927.6518539358
-28927.1118938245
-28927.0592647221
-28927.1448114186
-28926.4941260662
-28926.5918476739
-28926.460827921
-28927.5422873548
-28926.961848698
-28926.6719553619
-28927.6347567599
-28927.1622695533
-28926.6143150136
-28926.7531657906
-28927.0845764663
-28927.4554852617
-28927.0701555286
-28926.7760984447
-28927.4613123044
-28927.1309673621
-28927.3630724562
-28927.6124743215
-28927.5135803119
-28927.6253667965
-28927.6791620421
-28927.5038631317
-28926.4716964143
-28927.0362761486
-28927.5784930349
-28926.8669490455
-28926.6364940488
-28927.5110574098
-28926.6968977117
-28926.9280811567
-28926.5781581779
-28926.5692917612
-28927.4530531094
-28927.3756513201
-28927.5328173899
-28926.4651051402
-28926.6443721486
-28927.0264344764
-28927.3468397856
-28926.5546565341
-28926.8228762862
-28927.7028895403
-28926.5629158651
-28926.6517722806
-28926.9161014872
-28927.8415467084
-28926.7814454789
-28927.4356846362
-28926.5831706483
-28927.0926740257
-28927.0758867874
-28927.4681351473
-28927.8625966079
-28927.3675696793
-28927.8200294537
-28927.5338024415
-28926.6990725805
-28926.7249271915
-28926.5514406944
-28927.5753872652
-28927.5134237105
-28926.6183093706
-28927.3688120144
-28927.544252696
-28927.3648175213
-28927.7854599933
-28926.9600108421
-28926.6259214792
-28926.862912919
-28926.6969034261
-28927.8418822246
-28927.4758154204
-28927.3348455579
-28926.6226766594
-28927.0442795567
-28927.06713357
-28926.4753577041
-28927.7545556323
-28926.939397277
-28926.6528152925
-28926.8633564643
-28927.3463341983
-28926.6948733218
-28927.3697178809
-28927.6332081609
-28927.6555002593
-28926.6286537729
-28927.339225364
-28927.7261926772
-28927.1116048397
-28927.6254258451
-28927.5255999822
-28927.7794650564
-28926.5925482306
-28926.457319423
-28927.1056590193
-28927.5532917688
-28927.4371611252
-28926.5452303795
-28926.857216899
-28926.6558990209
-28927.535615263
-28927.5679766567
-28927.0227855677
-28927.8047638752
-28927.4744854647
-28926.7670756987
-28927.4557488038
-28926.6140362331
-28926.9296580556
-28927.6381950526
-28926.6686893172
-28927.8188695691
-28926.9417837142
-28927.6441739348
-28926.6307108164
-28926.7061152912
-28926.6003066004
-28927.0660857962
-28927.3741082994
-28926.4201384875
-28927.0947948799
-28926.5944041821
-28927.1598357684
-28927.3629777606
-28926.8791857264
-28926.6501398706
-28927.0598230994
-28927.09165047
-28927.0656915034
-28926.4373702235
-28926.7544356092
-28926.5507993224
-28926.5993797811
-28926.766439769
-28926.9390714209
-28927.1801544983
-28926.6914055049
-28926.6205373015
-28926.8001494861
-28926.596294556
-28926.6723451648
-28927.1174362363
-28927.556085152
-28927.168855249
-28927.4506763323
-28926.670768538
-28927.4941990137
-28927.4058431514
-28926.5514123946
-28926.4636290594
-28926.651952556
-28926.7537485221
-28927.4163691895
-28927.6539856745
-28926.7162452678
-28926.4583865169
-28926.7610498769
-28927.0071905956
-28927.438548905
-28927.1365033792
-28927.408314488
-28927.3462570541
-28926.8068905588
-28926.924501501
-28926.6876687035
-28927.4496851582
-28927.6394084076
-28926.5949956212
-28926.8529656667
-28926.9649834479
-28926.6198170165
-28927.1573521866
-28927.5729216429
-28926.6031152219
-28927.0753643291
-28926.7086142473
-28927.0339279434
-28926.9979370971
-28926.6041280291
-28926.5191314104
-28927.6666558325
-28926.6927376375
-28927.4526521499
-28926.8375134182
-28927.0161733409
-28927.5572972825
-28927.5899386813
-28927.4161797984
-28927.1118297417
-28926.5914446735
-28927.8111769148
-28927.4623943645
-28927.6616849956
-28926.4331124605
-28927.7619609345
-28926.5149162331
-28926.7556560391
-28927.8005218947
-28927.6510831737
-28926.673891723
-28927.0968161404
-28926.6568959095
-28926.4618767833
-28927.6899180163
-28927.545923202
-28927.4495242029
-28926.6514801666
-28927.1308819184
-28927.4541208836
-28927.1584669004
-28926.6650546945
-28927.3502390299
-28927.5711609312
-28927.6846259491
-28926.6621330097
-28927.3897281699
-28926.8958673846
-28927.6334617708
-28926.5615159762
-28926.8593008818
-28926.9284798033
-28927.6440347486
-28926.9961471332
-28926.6336089633
-28926.9769893764
-28927.8202833358
-28926.7539365527
-28926.7308844406
-28927.5784865041
-28926.8855535951
-28927.4489610636
-28926.7551375265
-28927.0627929483
-28927.2669806735
-28927.1281877206
-28927.5019477234
-28927.5416072066
-28927.146343963
-28927.0146005237
-28927.8237808132
-28927.7045620872
-28927.0662761397
-28927.1653305603
-28926.7722710295
-28927.7646302339
-28926.8455871677
-28927.5027686904
-28927.1373345505
-28927.7290384423
-28926.5507047629
-28927.1652422594
-28927.7777103312
-28926.6090870292
-28926.4065469524
-28927.1385631439
-28926.6396007709
-28926.6928255302
-28926.6175723506
-28927.8097322632
-28927.0869796384
-28926.7329209396
-28927.3485350539
-28927.5078702781
-28926.9321582363
-28926.6039448966
-28927.3727806566
-28927.2671835342
-28927.6906173486
-28927.075304328
-28927.6413518436
-28926.4983136239
-28927.0642476681
-28927.5264961887
-28927.0207866205
-28927.0372371181
-28926.8606067554
-28927.5196062698
-28927.1968999672
-28927.2277797019
-28927.3436730624
-28927.7547484249
-28927.4693762578
-28927.4547947732
-28927.1616928083
-28927.3468672691
-28927.0235566019
-28927.6447857824
-28927.4685010041
-28927.4925861958
-28926.8484149732
-28927.3715219947
-28927.1835349668
-28926.5707950534
-28927.4566135811
-28926.5090457882
-28927.1317586687
-28927.053903538
-28927.3725548023
-28926.7158092056
-28926.9267864397
-28926.6464106884
-28926.5183539815
-28927.2690110498
-28926.9953909292
-28926.7845221324
-28927.1119994046
-28926.6975860233
-28927.6695056793
-28927.4957272042
-28927.1662673117
-28927.5385559957
-28926.6121058585
-28927.6590201861
-28927.2136131906
-28926.7463824042
-28926.5415016055
-28927.0404876523
-28927.6221094594
-28926.749215516
-28927.1594380742
-28926.6563749478
-28927.0960810253
-28927.2941803425
-28927.4134343072
-28927.3967195872
-28926.4171536723
-28927.5123616507
-28927.0828797013
-28927.5998411709
-28926.9963144831
-28926.4574935758
-28927.2912507664
-28927.2560889145
-28927.7723271059
-28927.2798328756
-28927.5926404982
-28927.0340963818
-28927.4388027871
-28926.5386770653
-28927.1633724301
-28927.3285402754
-28927.7534790145
-28927.1097581401
-28927.5433775783
-28926.6389881069
-28927.1384166107
-28927.3330289269
-28927.7043902474
-28927.4904188102
-28926.5637773771
-28927.5591073828
-28926.8582697069
-28926.5885325127
-28927.0386261225
-28926.8038608449
-28926.5548101423
-28927.1208743929
-28926.5216524077
-28927.6066868713
-28926.543920152
-28927.4235921756
-28927.6527456524
-28927.5280487334
-28926.72779078
-28926.9994980773
-28927.1289905921
-28926.6100482708
-28927.0571565212
-28927.6066589796
-28927.6506039815
-28927.4682419519
-28927.5169708486
-28926.9052955801
-28926.707105785
-28927.1976269189
-28927.1649417098
-28926.5302431733
-28927.4457366523
-28927.0589721998
-28927.1936079356
-28927.3579292351
-28927.1740878594
-28926.6836367948
-28927.5257737268
-28927.1239011135
-28927.1287116756
-28927.3822974251
-28927.0763855718
-28926.6558669115
-28927.601502425
-28927.2661669175
-28927.5343816355
-28927.2982289862
-28927.1135410647
-28926.590983849
-28927.6562961919
-28926.9547282989
-28927.1651087876
-28927.5934020084
-28926.5718443238
-28926.8787406844
-28926.919018546
-28926.8986747816
-28927.6933934525
-28927.1079401485
-28927.5342053058
-28927.1648342249
-28927.1578877064
-28927.4706478452
-28927.3823975629
-28926.5900700912
-28927.6481821696
-28926.9120751568
-28927.4262462365
-28927.8021925368
-28927.0532824384
-28927.056179633
-28926.7293347531
-28927.6888143232
-28926.6668107803
-28926.8947733515
-28927.5201262791
-28927.475041529
-28927.6521350292
-28926.6903160977
-28927.5920072896
-28926.8263616545
-28927.1295534593
-28926.6113618997
-28927.0300579424
-28927.3229492912
-28927.6309528825
-28927.6917018577
-28926.6214805836
-28926.7405452933
-28927.2103637448
-28927.4319504199
-28927.4549096051
-28926.8435856354
-28926.7501242397
-28927.1651294683
-28926.9951547345
-28927.5171103069
-28927.6844618646
-28926.635546685
-28927.06415651
-28927.0679304549
-28927.6519752985
-28926.9025314491
-28926.6902286131
-28926.498931322
-28926.5750314555
-28926.6164947804
-28927.7780043501
-28927.0901039118
-28927.0623338925
-28926.4098339499
-28927.4136647875
-28927.4946647363
-28927.5135969109
-28927.3783734095
-28927.127568662
-28927.3396811544
-28926.6609395191
-28927.4060081883
-28927.7877159519
-28927.7590644203
-28927.6489952453
-28927.0080401345
-28927.7670656515
-28927.5786285475
-28926.7510150039
-28926.548010293
-28927.012416131
-28927.5565335954
-28927.0570118927
-28927.2590926416
-28926.5743039595
-28927.7741456418
-28927.1346293322
-28926.6054174399
-28927.0975960183
-28926.5197281557
-28926.9362396696
-28926.5709813152
-28927.5609524498
-28927.5523010029
-28926.753915872
-28926.5315438768
-28927.4541463262
-28927.6180666662
-28926.4419649994
-28927.1670724961
-28926.638361293
-28927.5412575405
-28927.0378862453
-28927.54752187
-28927.811304128
-28927.0235146964
-28926.9173446386
-28927.1708648087
-28927.1209718096
-28926.8706410841
-28926.6592166312
-28926.5447017986
-28926.6199876318
-28926.8672708199
-28926.9482536255
-28927.0423973463
-28926.7841052543
-28927.4725341373
-28926.5823277762
-28927.4563952099
-28926.7542697559
-28927.0074695121
-28926.5584242204
-28927.0657440214
-28927.1571335433
-28927.662028267
-28927.2030851115
-28926.7554440625
-28927.667157066
-28926.4432757711
-28927.8011013609
-28927.6793655832
-28927.4701013048
-28927.783159272
-28927.6760702863
-28927.4994509442
-28927.6593771993
-28926.4614865722
-28927.3461264395
-28927.5247481303
-28926.4206867966
-28927.0306753684
-28926.9454040509
-28927.6401995781
-28926.629221266
-28926.995888081
-28926.6116119722
-28927.3499884132
-28926.6153368005
-28926.9562262848
-28926.5936742371
-28927.8234131876
-28926.801774141
-28927.7843017414
-28927.136979034
-28927.5488100562
-28926.6415718265
-28926.8011213402
-28926.6691323183
-28927.1037901424
-28927.0118789785
-28926.6916023791
-28927.158307986
-28927.0979319427
-28927.646845275
-28926.7116879076
-28926.4490547858
-28927.5947753662
-28926.7298157141
-28926.7983645563
-28927.503495098
-28927.4010851073
-28926.7885381225
-28927.049181685
-28927.5545487981
-28926.6823385404
-28927.6231739682
-28927.072549585
-28926.6304076817
-28927.6278969096
-28926.8963064401
-28926.750995956
-28927.6410693896
-28927.7821287774
-28926.781417043
-28926.5560213203
-28926.4222217899
-28926.6036027136
-28926.6340017595
-28927.608198599
-28927.7109005676
-28926.6768309591
-28927.5413968627
-28926.4176769469
-28927.1068991775
-28927.0212656767
-28927.4022466246