-0.0454344546958695 0.187726172060683 -0.100604900699452 0.49204281335188 -0.877392613976017 -0.0720908671608049 -0.0149021062190038 0.157316722251393 -0.165473799923997 -0.332728602087108 -0.0743104993724795 -0.0012747522883682 1.025716136239 0.87677657797704 0.0715501644455088 -1.04620627517995 0.626921015693941 0.314643986020298 -0.777408120148658 0.160680237668181 0.269980090543517 0.157108977223358 0.42452207969768 0.258613249343687 1.52023234955338 -1.70715016719805 -0.0479837021624227 -0.151328626084371 0.479812081936456 -0.112605261390718 0.00140793536327234 -0.621379005694793 -0.557472212775829 0.00970153854316201 -0.409484733522306 0.0843912754358802 -1.23322462290625 0.248787012361667 -0.490191877142933 -0.900082844754715 0.422318131207181 -0.450577111444081 0.139518269818499 -0.0257650114597372 -0.0124844991662555 0.815624463561016 -0.706991040280567 -0.330931144796269 0.0521663706229257 -0.418952044688561 0.540875236229088 0.452134170713616 0.448152305306202 0.278317916674919 0.40231264496159 0.986197786858852 0.921852363967328 0.0885927129397577 0.111147189541719 0.521288068251584 -0.290181494748716 -0.228994927568142 0.269634534457279 -0.0455046457758866 -0.0632509048415884 -0.166757551068778 -0.201391064078068 1.03761416707735 -0.0288346499371128 0.233468387645858 -0.550850340007188 -0.462237058252773 -0.351634685189282 -0.483450448139097 -0.531627754269479
0.178586676378024 -0.227412414390468 -0.0718910925484487 0.609585104480647 0.0920858118888844 -0.565507677331773 -0.17121224210312 0.344237625218255 -0.70165240443634 -0.0624451215274001 -0.653227758309707 0.38040814290279 0.260273409796691 -0.464228890842122 -0.916437880619053 0.502978480774463 0.46866172751089 0.129877152168392 -0.770062996434639 0.459884500076378 -0.420402146121881 -0.313250448827286 0.718522431997653 0.270692799971382 -0.858983010637627 0.159946445205292 1.54178229666953 -0.232458973066566 0.147954312039889 -0.209498262375129 -0.26641731473474 -0.229803024873979 0.646283212261134 0.131081713376743 0.0189058259919908 -0.614296134367652 0.166955011689485 -0.0300543806462735 -0.973726400311941 0.838930987448874 -0.0545940049728193 0.108469901203926 -0.893445288264897 -0.0526602792848772 0.268289591088894 0.681732792991942 0.000330129475245012 -0.352822534235724 -0.0722854995694969 0.232396752402228 0.56546576837191 -0.511986078933134 -0.0597032985336206 0.87588106320891 -0.137368057356292 0.256132136075685 -0.612246966207447 -0.0998759933300438 -0.502068567836073 -0.00931407349706058 0.162802939340784 0.0956419028328983 0.216312453560813 0.461201675544976 0.075610962679169 -0.0733095694292328 -0.537150223894703 0.0653401821903743 -0.00562582791887547 0.291412538305938 -0.457534770111998 -0.412736920229763 0.641399661441194 -0.404363098672711 0.936006022442999
0.325698952567892 -0.0203960366138912 -0.223740623864009 -0.654587356958536 -0.680785599076986 -0.331793492350764 0.0174631807539848 0.549102247871526 1.04534032808289 0.406328706023371 0.482246915371479 -0.494201767560317 0.0845018328146616 0.0231471155742663 0.765267891517724 -0.574986044235907 -0.00891143895014961 1.06063786976367 1.59854862558032 2.34163022227844 1.03477207111211 -1.34999352660391 -0.212756876837165 -0.0946072914556507 -0.730067707664633 -0.942481856627576 -2.40659528071151 0.723713229486533 0.710154266864632 0.167932030385693 0.381379505174968 -0.276319913441174 -1.46780835452688 0.305780626674409 0.233659934732352 0.528922183811533 0.019939923148872 0.297566727651316 0.509727623083794 0.231864534322978 -0.0498192117603777 0.444232403452943 0.0294478577240749 -0.271309093080543 -0.172712480022165 -0.966466380068566 -1.06276802763159 0.0528770231693254 -0.227592905739084 -0.235863626112667 -0.780089779359565 0.0213383454353655 -0.0334479779544969 0.733036044729823 -0.229447184380413 0.0717203713867956 -0.944247175145514 0.231265724706276 0.399880896848765 0.13364407346264 1.16930574580867 -1.01535922383883 0.51139832505431 -0.235996809187571 -0.535794481898623 -0.0949163378958722 -0.0695519041015803 0.747976460366125 0.491901402751113 -0.214913774164136 0.253063526039042 -0.800211222297785 -0.292973454228222 -0.764135578270855 0.331234277702276
0.0481510808916941 -0.0628130461995774 -0.00146321405266305 -0.509309047705524 -0.644271325077496 0.0666900106522405 -0.188168915796176 -0.78028544020899 1.17824340999751 0.0644356685658322 0.880547870144403 0.628666022507405 -0.81653231961794 -0.405843281997466 -0.292582903859922 -0.156673432572995 -0.244126633180755 -0.0128282554812108 -0.547675029244512 1.88688021256082 -0.144342942406484 1.07817201292822 0.539380140513706 -0.0253482358527496 -1.17376275083466 -1.10280265425963 0.640012294892578 -0.426452720063423 -0.0960836181276576 0.427463677303815 -0.0931250512494299 0.162384878182881 -0.199503361112921 -0.477128880064449 -0.356464757091114 0.0639931819405233 0.578000404023892 -0.372765799816978 -0.546464554501947 1.0280640664321 0.436209794406159 -0.250992246403081 -0.347104403761076 -0.0444623210931426 -0.22508608145276 0.00697565638074175 -0.173406934627023 -0.269736864310198 0.435413009948383 0.297968333757494 0.112693193073376 -0.275613117547522 -0.183790586486248 -0.383293176268619 0.252362386569422 -0.19934960922336 -0.482971194757589 -0.419220210609652 0.432305319163892 -0.321911976679353 0.659828290933142 0.0368099507101852 0.400165774931764 0.501097205563896 0.0943147000671547 -0.68652969768014 0.208748271970697 0.684716299557941 0.354453898348208 0.276436898574536 0.481959723296831 -0.318698613609561 0.293080926284805 -1.26701147208222 0.289370826341047
-0.213413793355274 -0.0840480333412913 0.710185377196801 -0.199884655514625 -0.81890210417661 -0.289263354284464 1.0823474823036 0.0727380134919511 -0.0440218913492994 -0.955187984771761 0.0994926420468738 -1.06000717848425 0.322429796588343 -0.154256339740613 -0.147677918592935 -0.264285099985357 -0.589037115748477 0.378369259149914 1.1101745174327 3.00423838851248 1.63597949738296 -0.320512525952127 -0.962848839790764 0.640821163528965 -0.294428440755022 0.982923488675639 -1.33069380781124 -0.0485231193268028 0.568583743563729 -0.00538800099940379 -0.0877211094186669 -0.254578162128348 -0.69072573587017 0.449153235249449 -0.0594235626542853 0.486544769194061 -0.347149655153321 0.0507481508523249 1.33360686618703 0.787721838038049 0.789834255303324 -0.0555782227541573 0.190473651478494 0.442926540832406 0.452099460838883 -0.275892339206491 -0.704000334629438 0.825184848613594 0.495166187857547 0.312626185302446 0.354348483173091 -0.646908504226708 -0.951434433207039 0.356177307906283 -0.089230346194125 -0.499103058982899 -0.970402736973551 0.392437814154943 -0.00656402297741834 -0.421380450369005 -0.0869675194716707 -0.89854584007947 0.417937487905604 -0.0540489313844086 0.0381872899616553 -0.424102990099043 -0.660454097119082 -0.0564549684789123 -0.914497470066347 0.404528420520516 0.339240688807517 -0.402841520608458 -0.689824564678009 -0.662343085635145 -0.834673499925056
0.258023438583397 -0.382159320360651 0.0871210142510486 0.907647540565196 0.526759630060532 -0.16154052834121 0.695070383746097 -0.144320059600178 -0.519118058305269 0.862222598946106 -1.17325752932465 -0.0283106593837254 0.430718178002921 -0.348317963825839 -0.909879256955482 -0.182674214070739 -0.162382049970865 -0.453126101800451 0.573264434449115 -2.25866359436774 0.541908562055419 -1.04352590151995 0.0829530010709888 0.19816278861765 1.34815775989577 1.02768431469149 0.102376389861787 0.182772944381092 0.0204209763016628 -0.427608430336964 -0.465590803482599 0.488762858744637 -0.0342722732018766 0.00752535795245035 0.0692644549167486 -0.0235230106621231 0.0842704336497702 -0.261934855800611 0.845617137763318 -1.33946023661805 -0.413539104001386 0.329443248166017 0.566059435784948 -0.0034272787422243 0.0229766515227963 -0.065176660113851 0.472770605348811 0.0131473292185776 -0.640215154827133 0.388768851840498 0.572829404019119 0.432041781226099 -0.0134275793182794 0.502540879242635 -0.380784552211013 0.030028412517769 -0.0846941512317047 -0.247412501322212 -0.216794535154336 -0.112877283964557 -0.561325265981454 0.744684421580271 -0.561764667284564 -0.570013790402758 0.29016658235809 0.390998511349318 -0.202064178537719 -0.472798116138415 0.037758944396423 0.436074040229423 0.2721827534831 0.0918292159260382 -1.08560532543508 1.43657512369058 -0.419995397812038
-0.206269986914711 -0.244558064068185 0.444304651414426 0.393435144555624 0.404317590170282 -0.638342107142429 0.126092747381686 -0.405918615281147 -0.209481035992853 1.03042176681216 0.293265274286168 0.533624214842125 0.126175279750497 -0.465664594105181 -0.82456829839425 0.156722283507806 -0.216169500298947 -0.112891425024633 -1.38325844210796 -1.41087644665811 -1.38797821374119 0.896314123689184 -0.138660807357485 -0.529808442613067 0.871467252693699 -0.707984256918317 1.94527276338042 0.473835555727678 0.0981867794263368 -0.0276012923882418 -0.0133697295270565 0.130752869452414 1.07756883243841 -0.063766667869113 -0.569569246895983 -0.112472849646363 0.26628850253295 0.420885770376504 -1.32400457217459 -0.995840961390425 0.293189169671938 0.143686025888376 -0.0117941583243296 0.678035548557344 0.171154392311897 0.0238611105530477 0.153029667056506 0.100518768788075 -0.342974957108498 -0.33900877542226 0.00705561764772088 0.44768307922184 0.922475341941252 0.306140066710541 0.39513387153611 1.0340202809364 0.186429565406742 0.260269810254126 -0.232009801576493 0.0116584041475933 -0.903764148357953 0.0811210910155988 -0.509180492613918 -0.610660596377025 -0.285342938210838 -0.0434855595071178 -0.351428482822346 1.18599991000467 0.103305328953734 -0.580225178439231 -0.945062985756847 0.497348539092656 -0.00434721897775908 0.265546482544199 0.191747375326129
-0.0794007667797231 0.289509408729798 -0.418084554930402 0.0654959909614011 -0.0727904639693265 -0.450637532337136 -1.68183355589783 -0.419145391546337 -2.06150482101554 -0.145966593213472 0.23467937660879 0.356908529267339 0.844085275291737 -0.192602523795494 -0.701206061158283 -0.440165434574886 0.565498421365178 -0.171570139478152 0.888361191502051 0.165362471214666 0.448390389335857 -0.304397888109092 0.445722871185026 -0.55901127433254 -1.74083288674982 0.11794029769238 0.371152690527502 0.215361145882926 0.0868975855018369 -0.446003892615278 0.368457147366701 0.285411843739939 0.385999518057115 0.35182263273321 0.126284808688545 -0.397746625217917 0.344535358810415 -0.166874536202139 0.245097995452932 0.418558923218429 0.291761693934741 0.491185865111233 -0.886340048351817 -0.164553345468096 -0.0179414056947602 0.642070719019379 0.499720123422609 0.0610271588669824 0.397755366964146 -0.211132711809811 0.534252335019714 -0.538144983193553 0.216490373807596 1.04033850657867 -0.7392959063605 -1.55897499751078 -0.74599131264154 0.352362307007774 -0.843259694493442 -0.465479731883451 -0.333949361237002 0.273160543509857 -0.15153020046801 0.910425616094809 0.2811271025367 0.449785469189969 0.148045843265112 -0.367456474533637 0.116360098506355 -0.0395743994000874 -0.793976043244696 0.279160209635124 0.982564819970058 0.911199517746279 1.8070490433344
-0.0818685103181979 -0.209803452162602 -0.108395339250794 0.530493384141145 -1.02394490418685 0.220001470469548 -0.0868335650662169 0.637021332131266 -1.66797326014121 0.689989372305449 0.0924354817380536 1.31802727463527 0.525655341823633 0.937509602794427 0.907364976473846 0.329253500850806 0.233459903009812 -0.385355971268534 -0.0515022550196875 0.681434030959049 0.832821535275376 -0.545854689147367 -0.699546157815462 0.662036096076389 -0.158127647769246 -0.0372465238012803 -1.44692303723434 -0.21259798274394 -0.642627362566034 -0.483660250048599 -0.0719872517569703 -0.0496312642164492 -0.228827805949054 0.246564294827794 -0.369451906665551 0.64184111962577 -0.132254135812193 0.135914613490591 -0.523007364046726 -0.859283058221436 0.15857373393712 0.338388882770534 -0.859386159404904 -0.0149550709167456 -0.496390289439823 -0.198011607829921 -0.0174652376354505 -0.418649683113103 -0.343915466158689 -0.25582437518638 0.141915565166774 0.167485429997453 0.598251944714817 -0.101526640706269 -0.272939428752294 1.0523087853785 -0.455651180909782 -0.195705586596687 -0.690371180927519 0.233863308887273 0.408720602057798 -0.0264658938191749 0.748170321444267 0.461180592509953 0.723566162461735 -1.81820068331088 0.100971025600346 -0.00869263818423567 0.133437871095704 -0.269707296639128 -0.358002275986726 0.735339494861225 0.879661097122502 -0.846447603655095 1.22135333152695
-0.0340318751805728 -0.0314499747207516 0.193392623388506 0.173916269899967 0.435303995230701 -0.0345661501412886 -0.927526014380281 0.29008893508276 -0.350726829132358 -0.485432767651667 0.172201859198305 -0.688838547125389 0.867485644396468 0.720946466804982 0.675854482873151 0.0822971129936133 -0.10478396961739 -0.122266690745299 -0.640714205692749 -0.322099152892732 -0.0806986589845805 -0.566546402471953 -0.016070414891522 0.591503316625852 -0.423809884490181 -0.404133242168918 0.909703650700348 -0.240202617564564 0.0724616200449976 -0.356358570585448 0.083516843702774 -0.134164464473463 0.269595710819614 0.456749555612466 0.288823438760987 -0.509923283933219 0.383747747072539 0.0719797955616571 -1.16969989571954 0.373481080346676 -0.0945137033489613 -0.0345316973767381 -0.257445712001718 0.159633799222506 -0.15105480373925 0.827397538850322 0.439758686265043 -0.197658338438187 -0.491845352731173 -0.545598350294704 -0.0436655366353667 -0.259384837003508 -0.113330054997194 0.532434051804034 -0.38150934581749 -0.704374687056195 0.0107428347851731 0.251852537076111 -0.729560686383338 -0.0729419018672387 -0.343768913354258 -0.183902429415945 -0.520526250778725 0.298148310885743 0.478202572189545 0.73191298744955 0.524328396168073 0.346766303870151 -0.0711768404594841 0.0952747494912706 -0.270284509000441 -0.0447729101944635 0.634022398954274 0.17809816702992 0.53426647607979
-0.31331318371199 -0.0879615074399707 -0.221761903894004 0.450079860349748 0.672088332909453 -0.553015464860022 -0.160878469619438 -0.974128777748668 1.05296518767624 0.431367381215533 0.931562130036352 -0.205823900746837 0.110509042066985 0.793715590629102 -0.0136049853446961 -1.27885319579044 -0.486051888972843 -0.177375173194726 -0.247856016388254 0.0732175239836427 -1.62650524424176 0.794798024500427 -0.0459890413610592 -0.24137478288983 -0.503018589963044 0.193024441606146 0.499672043818348 0.032683846489989 -0.0771477102442309 0.22001843974164 0.22828247525046 -0.108675332240313 -0.470172764057631 0.029890601459567 0.29507173043342 0.315802267395671 0.0236124850058811 -0.702174595218445 0.278608965402316 1.0505259833681 0.0693112489700932 -0.405741723475097 -0.584808681675362 -0.0445826486588861 -0.681697826007025 -0.304447253264269 0.00556360725453801 0.164938496522548 0.0924542507814281 -0.0252281653971893 0.0265857071645519 -0.201143466971634 0.197100923560982 0.12369133827048 -0.0200579367229666 0.179949617459234 0.321657951818339 -0.0758032810962121 0.804420115996976 -0.195289068099883 0.202427475226598 0.166220962116413 -0.135042495749134 -0.03021096074785 -0.844454228404648 1.11732886539077 -0.330713886691454 -0.64841491279015 -0.1603920171528 0.243285882881649 0.758393279438985 -0.136283309493318 0.36118787115673 -1.09483095302912 1.10281165311604
-0.268684769440492 -0.17130994397274 -0.136860264744447 0.330146444517104 0.841719090275632 -0.0113074487475081 -0.067925167972394 -0.768665602588879 0.588487414176768 0.55308899837242 0.526723891745065 -0.310904318405471 -0.0710693684029012 0.688955789368934 0.143155864690592 -1.00544042719085 -0.123897797747599 -0.275003252192942 0.404762133677057 -0.541269643250136 -1.21477413904872 -0.458058503555202 -0.397770022244589 -0.246200226808364 0.544742173384606 1.37123314172892 -1.01688671543729 -0.115916583440313 -0.0500405836281237 0.0259264766547948 0.216778080102611 -0.0371292815577353 -0.0601416713959982 0.192524876520164 0.502498456062405 0.440593780140118 -0.328796616055237 -0.559304637051586 1.16141169185349 0.0438406286701345 -0.17642232285574 -0.14644738925608 -0.145626950661448 0.0350963113390731 -0.495674751799942 -0.856456131757013 0.132306843399752 0.248054505449694 -0.173407191737206 0.114015767855822 0.0968657473049904 0.100934773064513 -0.0163699482549647 -0.0940604180959574 -0.152852518140272 0.0840151232378401 0.483001533759208 0.276528944020126 0.216851099394643 -0.272052398620211 0.418150632247488 -0.561014933990316 0.295649971235466 0.168428510149477 -0.264206167159111 1.23526402087949 -0.304949389452083 -0.403584569037943 -0.575207416103653 0.487987157321884 0.139399999134221 -0.345265551730739 0.21126949442728 -0.581830060202844 0.482374184912169
0.268533074432396 0.0297831294029842 -0.128968781891102 -0.451372867461124 -0.459023438072799 -0.332534226788599 0.285987770550335 0.513997451896406 0.918071301613003 0.332183271388514 0.583419772465647 -0.589865524758788 0.0466652411429084 0.0764712533521985 0.792034090030891 -0.768322103384107 0.14935659097913 1.08869244740492 1.82021796980837 2.37668333910673 1.21870869618243 -1.39477080767149 -0.24447116082626 -0.0653260411302976 -0.993926776076407 -0.777656488585641 -2.65978401940977 0.600110080008895 0.756919009648443 0.0654795359096755 0.296731376666058 -0.163390693219608 -1.52706659533336 0.316252210216293 0.21928618993985 0.632190488898884 0.090374229399238 0.299144869955875 0.709259009206685 0.424212519037092 -0.0422568299415447 0.451642318933131 -0.225375073298691 -0.205580674513518 -0.0359990251923326 -0.890708350364599 -0.96492371896929 0.113097370281387 0.0408440094847913 -0.251935326555105 -0.7185998221628 -0.0225907291377942 -0.211253553595921 0.770476429609245 -0.419042547473052 -0.596735765964413 -1.02540914668024 0.389194883414082 0.194752993367885 0.165043911697666 1.13188412997262 -0.956417742778067 0.501149398931088 -0.144684898950157 -0.419880726670325 -0.25336023119047 -0.122456438060509 0.426113077511399 0.490347685913959 -0.176288882670653 0.238622161268356 -0.917438296341933 -0.43365129097301 -0.571023719202417 0.338159026266742
-0.0345743776671514 0.342683394160734 -0.404056623334321 0.0793506302939967 0.319864608290431 0.369227963695972 -0.929882172099241 -0.492923415729383 -0.14092929050397 0.83698672024342 -0.164982205253695 0.619375088926834 0.157609570750073 0.174068479128429 -0.417381872799682 0.930555029448708 -0.266016479959111 -0.132511245995406 -0.207811105352887 -1.37476866385828 0.158872753080196 0.336141996879439 -0.604285035163902 0.155754006557827 0.72406675598845 0.683764477659688 0.944222749678108 -0.732356245405409 -0.0546986488173869 -0.0975414328664732 0.580110507297518 0.314604391052084 0.076937394114363 -0.224381856660941 -0.0657207052615289 0.00307040980792518 -0.15513000014317 -0.148228648605377 0.573015551791765 -0.869836145691398 -0.074159832805117 0.3191850660762 0.833270963875631 0.125716338073462 -0.523978726318904 -0.092308983527913 0.0322830117143605 0.0428373847352388 -0.525956160737992 -0.619858713181457 0.365699897761929 0.485002365204969 0.00940251940008573 -0.327273752440069 0.674993420869572 1.03802734314177 0.380817719424648 -0.139939159188418 0.424136671533044 -0.369811346701682 -0.471740364844678 0.0249602565862817 -0.715797064055599 -0.190631774241169 -0.140313511615176 -0.111002179398387 0.123538614821651 -0.109150986079256 -0.389270473807946 -0.767778058236429 0.635646563981628 -0.0766656286507072 -0.419300943207181 -0.010050951282148 -0.302795834557494
-0.20505025620555 0.232649234602143 0.291664506285487 -0.124048207204779 0.634381324770039 -0.378965754774967 -0.188573093004186 1.23640044788929 1.6683026182859 -0.297291876865461 0.0659978700390321 0.478600064532791 1.13061863365085 0.599912362278004 -0.242821284780584 -0.184699213873721 0.379121820656177 0.352041176388941 0.598580788639146 -0.493798361682856 0.168184512585608 -1.74934503358544 -0.892801484366133 0.559384341208382 0.328666261192349 -0.62237993563804 -0.552374489173273 0.211838222152547 -0.72059576851508 -0.895063025537671 0.344088244201808 -0.777479853889774 -1.21183922630735 0.299284223675176 -0.0991082623229709 -0.184096804714454 -0.0952133001574828 0.0331314753189622 -0.56944891933024 -1.22338912995763 -0.275751699936274 1.01730914746831 0.266244279581438 -0.108125887778787 -0.0304852973133378 -0.433256369731596 -0.105063962606908 -0.125343014087438 -0.943398197320546 -0.112098754329789 -0.347667475062311 0.0563616374824061 0.454829456764234 0.194282224622422 0.112362035157399 -0.55006461128729 0.21452193824492 0.569984479841872 -0.709901784664717 0.0743873753172601 0.569492370951203 -0.64857097867136 0.529254370168244 0.501420393064194 0.776541915941414 -1.19009644655379 0.859574364059016 1.01726852405937 0.353049305417318 -0.215582003530306 -0.0744902193905452 0.183982647793108 -0.188668995102524 0.759997132761865 -0.356761719352725
-0.227661811268185 0.169111394796089 0.262797460465289 -0.724842714521386 0.309541634434444 -0.150472449174273 -0.495007807984688 1.60386746394044 1.62312218845105 -0.342704734305941 0.46357094588328 0.768583841550617 1.00107829582247 -0.0275956359642111 -0.183744820873636 -0.286829806400356 -0.130860598619181 -0.216509399961154 0.542655981358019 0.0726032877559477 -0.510076778712597 -0.355134726113356 -0.349533580772068 0.211683184712069 0.565334127958105 -0.203618409595239 -1.25053945108452 0.0760737610089517 -0.57286308545312 -0.630363978157342 0.196729656456423 -0.833942792784366 -1.21163970880518 -0.00163959163834691 -0.0886073682202008 0.510682273194063 -0.0355100016238622 0.452413649482769 0.108662990951519 -0.963427080592809 -0.211939266454549 1.22380719111553 -0.336034781933039 -0.293724215963203 -0.193235786176747 -0.818028700884237 -0.262145429040662 -0.559531922453546 -0.400193285721368 0.153707666609638 -0.216788878730306 0.17713940315672 0.438391888531085 0.135398079132517 0.327912928355536 0.276416843980245 0.0920744990408231 0.551382043866072 -0.333564467292732 -0.0312913377377094 0.65517511083736 -0.596414378235397 0.513952971834711 0.35296703015869 0.588119489504591 -1.61753081329672 0.508367253104416 -0.267199186801889 0.342076871238536 -0.386422721418683 0.00119196280937373 0.179490161561833 0.418622686543866 -0.356928326751447 0.799393869025352
0.124832650373761 0.0950109544432945 0.0592135036346006 -0.207770224833757 -0.0630045932860707 -0.671652788259091 -0.331167686164824 0.0848787563432513 1.00490332401812 0.351913392627885 0.563667796860704 -0.124316887346236 0.551963369990316 -0.138015203687438 -0.2727142002318 0.985951218193151 -0.0280476356662989 1.32441980512048 -0.642115456191258 0.45833926787527 -1.61247885530678 -0.461163109017494 -0.557435703129813 0.562340336984777 -0.184086520307125 0.474178797822267 0.0270703598599077 -0.404474170271858 0.307153595052765 -0.312458549462991 0.79023329030767 -0.375095989407434 -0.992121862590254 -0.289086205368231 0.120565649773164 0.0662434102640002 -0.207010464242363 -0.118655321111894 -0.232599869446966 -0.448759085338584 -0.111927518947769 0.520580758137566 -0.233524951886165 0.0588622911243321 -0.17993804750099 -0.489862518998237 -0.320912075176839 0.0687047260478947 -0.693776862414354 0.04459576127823 0.0536018167758018 0.162997828859659 -0.122713548243722 -0.395344958996528 0.138639724322462 -0.505284244897514 0.595000786448094 0.124862475155013 -0.96857956866439 -0.166167226088122 0.23097390464833 -1.04732444736674 0.286584780395755 1.22180661677996 0.510332603344894 0.384449143652343 0.26256220464765 1.33784327067583 -0.210157492884886 0.0976136808279559 0.337207204368489 -0.492812087020052 -0.451552844589373 -0.0356406135969342 0.709650588015718
0.244661936582203 -0.0519609395865388 0.0136782617469117 0.240315746045177 -0.152720620616284 0.340109721226776 0.858674478417772 -0.115828651757654 -0.375603524909096 -0.851744587649642 -0.79656617123038 -0.578403038570803 -0.196048571581093 0.0213743408610152 -0.40457032948038 -0.493006205208378 0.220781799875598 0.179126350652588 0.0237551811575641 0.387801603331253 -1.04928671228502 -0.798741580490542 -1.0038851676926 0.257110183212626 0.884138928073333 0.093863985915983 0.620157732324533 0.30217928433815 0.48915289489257 0.332049831203427 0.195114233175298 -0.323641042661458 0.455091194930745 0.997687783836441 0.945435281302139 0.45939084852461 -0.0729233899340474 -0.133313429767029 0.616407780302377 -0.714784307043925 0.276806880128179 -0.695864339991857 -0.898033933704693 0.358784405164059 -0.165776161499455 -1.41614849096488 0.252374213637849 -0.159389801658637 0.352948261115315 -0.414866563877313 -0.88274050578684 -0.24429195502856 -0.0436706788390309 -0.0601951503141064 0.30804473894778 0.701620008553255 0.285749943630863 0.541895192325892 0.493052742151539 0.388738255728696 0.2791391266001 -0.0281939313605469 0.180060689058382 0.605578299385461 0.6481323486988 -0.172181547493831 -0.379019490803259 -0.797515936247167 -0.451988132129552 -0.304017365037937 0.0909439855652372 0.364528246657029 0.534626944556655 -1.11796161355166 0.50380097625056
0.0434837597358353 -0.0602445154692832 0.0914054983441038 -0.505276531592017 -0.489281192873993 0.0156179009690677 -0.6769932238746 -0.499485381825336 1.42523862149237 0.124704609502521 0.923286524569288 0.322834745126903 -0.353431885369938 -0.241495881786123 -0.0757953106805325 -0.737953276983764 -0.491375098206077 0.0291223562321277 -0.178257318233329 1.59515862781466 -0.730502223874262 1.25406571724728 0.312157216328266 -0.522041401088397 -1.22973615194042 -0.645037513423469 -0.554363236440422 -0.292534310035295 -0.0435380099844932 0.54747319775069 0.275662996923066 -0.222486697500481 -0.441518862579317 -0.287691125514119 -0.256725289268357 0.34995626991327 0.427406084622776 -0.281078508712073 0.377176782120174 1.01713302699281 0.386388525764316 -0.162854875597793 -0.320900505218594 -0.0722209649135105 -0.32318904295937 -0.592791952864114 -0.195417880301672 -0.162131624652416 0.433703741450386 -0.0263957027391578 0.0751905875296164 -0.0942640493610618 -0.107578757308911 -0.508156936974548 0.276344853128946 0.227762084239637 -0.082241062973673 -0.622511576051845 0.834256210097702 -0.241777417436741 0.811711503682703 -0.176806702579643 0.553439439552139 0.302362089678414 -0.0182550801182796 -0.241227972975216 0.203038369021911 0.177263073154846 0.205803074821997 0.266695507952976 0.671254010364928 -0.321905291814589 0.456029904209654 -1.30010309532278 0.374446529084639
-0.0535372821198154 0.247251807457704 -0.398308153858053 0.0082596646357056 -0.226913620635036 -0.597782718630454 -1.69256687760623 -0.264091238907215 -1.90646609498741 -0.213263641008278 0.217338323191831 0.273342063299205 0.814489064991949 -0.275716218730991 -0.661252424237957 -0.789815486259949 0.311565605796694 -0.103626973792933 1.37266781655125 0.809809659657479 1.09693334299725 -0.615937011556915 0.441066605767046 -1.12396976431297 -1.97798874864331 -0.125534304063748 -1.05002436140065 0.510125372537224 0.102035975979213 -0.210512304937719 0.728725078287897 0.0478152949924185 -0.695567120620064 0.564343225312003 0.155296350431709 -0.0545374407325126 0.318724067517699 -0.172493936366435 0.693374227867443 0.227618616757405 0.336670872526307 0.539699214251073 -0.884839039102221 -0.250891716321445 0.0635578944003443 -0.220832193471508 0.396396796756051 0.129864039549048 0.40052315808643 -0.068482582849599 0.439350138183918 -0.487980472457121 0.419859643635302 0.995817307253569 -0.81987526622007 -1.61770127734819 -0.672712596434293 0.332590019698356 -0.739840208618362 -0.38328443452239 0.103376805584667 -0.127795588125103 0.385006558529548 1.00916775351689 0.296468867168998 0.564327541590828 0.218873785205977 0.280005587917527 0.47027355124945 0.058190976435964 -0.791204395469664 0.314010209418679 1.08896061332601 0.599083181937144 1.89248804276687
0.024846870995485 0.322501273219276 -0.272595672437339 -0.0799710371660887 0.0511222461688992 0.342476677573432 -0.108899018099708 -0.612474765829773 0.537482153141231 1.16726017719103 -0.249668900290086 0.534489904829002 -0.828152157238051 0.369213308415529 -0.14560072542276 -0.357884005302448 -0.257568096448928 -0.0139320294977426 0.497713892663001 1.75083858663972 1.24274901253317 0.448964516374971 -0.721917829077159 -0.284042732014332 -0.0535269977124869 -0.00743048429484489 -1.8012872041286 -0.461595825455841 0.0730231486851339 0.893140355587607 0.727521031299912 0.162432186456592 -1.379863816359 -0.0792472720003452 -0.202557315869121 1.22049381218447 -0.514753870055418 -0.0435192409411187 1.06385508948621 -0.377288625049871 0.228670197406744 0.186729612990551 0.551650981117712 0.128997835341805 -0.621271019417844 -1.71458785057802 -0.503125804909444 0.245550252265203 0.196662550698605 -0.491631179948557 0.0525083271665985 0.892827195384454 0.309715183808112 -0.928028407678278 0.516067445981451 0.193350971538826 0.135872704530727 -0.0720684985748654 0.357643350170961 -0.274049373413223 0.775453568535875 -1.24238365896283 0.661184547149589 -0.445526953225418 -0.211389564882841 -0.406207350016895 0.238639130540448 1.54249757719923 0.312583762122216 -0.633077519030968 0.626502954536038 -0.757730192276479 -0.311027988403596 -1.57284223524235 -0.544507946007699