5.65293586875438 0.586187395014571 -1.10079415103396 0.586187395014571 2.45695706821289 0.319210957681202 -1.10079415103396 0.319210957681202 0.0947959813719933
0.0466318947799241 -1.07031301352016 -2.62248893976621 -1.07031301352016 1.54773479340986 0.846035805292909 -2.62248893976621 0.846035805292909 5.37155016536364
-7.61084253726741 -0.848520645071692 0.185210090041029 -0.848520645071692 6.72571059532714 0.0882978336242116 0.185210090041029 0.0882978336242116 -3.94109842761725
-7.52209883101547 -0.418309368954187 -3.06511210227741 -0.418309368954187 -0.707142028470174 1.79026450165512 -3.06511210227741 1.79026450165512 -2.52230589732495
-5.71717028515013 -1.54394725667938 2.87829952286868 -1.54394725667938 -0.396362803798067 -1.44226255832281 2.87829952286868 -1.44226255832281 -4.13794466373479
5.28087808744538 -1.64092520828775 -0.131455334365593 -1.64092520828775 0.777399649782731 -1.79051231291066 -0.131455334365593 -1.79051231291066 -4.21563658482764
2.26185740083419 0.255173443234905 0.00204138754587924 0.255173443234905 -0.512388274015688 -0.969659084292637 0.00204138754587924 -0.969659084292637 3.04370883090594
-1.14209576912084 0.924251576121863 -2.80024962651109 0.924251576121863 2.42589601329926 4.79680223030752 -2.80024962651109 4.79680223030752 4.81372216762783
3.00106532580606 1.31994907836318 0.181882747018549 1.31994907836318 -2.95169715161531 -1.81363082027067 0.181882747018549 -1.81363082027067 -0.309200669931533
-2.66486413605768 -0.249906104733993 1.83584869246895 -0.249906104733993 -0.257114934678243 0.71848005111023 1.83584869246895 0.71848005111023 6.05301420985508
-6.76207308691744 -1.24356837051158 -2.47625211633596 -1.24356837051158 -3.63818580169361 0.712942917011013 -2.47625211633596 0.712942917011013 -6.36206312966316
-4.27941739942283 -1.51133854992275 0.102922696948144 -1.51133854992275 -5.1298838952575 0.254598250345409 0.102922696948144 0.254598250345409 -7.89796274475759
-8.40489453321075 -0.832295867064995 0.418304140441992 -0.832295867064995 6.8933934896549 0.521802072097743 0.418304140441992 0.521802072097743 -4.44825485428778
6.4691831022504 0.405242563691765 -1.06244941568929 0.405242563691765 1.62516965957215 0.608913696738921 -1.06244941568929 0.608913696738921 0.579517863103249
2.35764535005753 -1.19586905408925 -1.45287599992422 -1.19586905408925 6.81068406462669 1.78331350171203 -1.45287599992422 1.78331350171203 6.6507103534437
1.00505533478323 -1.99702401156146 -2.17761989203032 -1.99702401156146 3.81868680585606 2.43150105732713 -2.17761989203032 2.43150105732713 5.4466670616768
-0.113417520915557 -0.363451601115761 -2.14462221367598 -0.363451601115761 -3.4128363111863 2.17297659390487 -2.14462221367598 2.17297659390487 -2.6343796903568
-2.41703055139225 0.600425136973763 -1.94691044414471 0.600425136973763 -7.47337670488619 0.176295040217828 -1.94691044414471 0.176295040217828 -1.56366035671465
-8.62373150345997 -1.26418599217148 -2.82582751191272 -1.26418599217148 -1.11297943232352 0.884930194520037 -2.82582751191272 0.884930194520037 -3.49014485681852
-2.49095535035784 0.502858959143788 -2.65857500340577 0.502858959143788 3.61761403097114 4.90128352583186 -2.65857500340577 4.90128352583186 2.65645323564567
5.22485288208744 0.865904821971049 1.20217853924136 0.865904821971049 8.08528118961802 -0.124000933243427 1.20217853924136 -0.124000933243427 -3.49304323814535
0.229144349526636 -1.99410142266632 1.6149220823782 -1.99410142266632 -3.23257207367933 -2.15777595804249 1.6149220823782 -2.15777595804249 -5.82954136831454
-5.42347521976773 0.874689794811916 -0.531986731696541 0.874689794811916 -3.01857639895228 1.54415624368846 -0.531986731696541 1.54415624368846 -1.14964922917193
6.22643663781516 -2.72681887482452 -0.160165572676917 -2.72681887482452 -4.02416001350755 -1.08912589420304 -0.160165572676917 -1.08912589420304 -3.8239530476614
4.55955010537625 0.718933211636089 -2.73909349345563 0.718933211636089 -0.920739025428675 2.08322459862972 -2.73909349345563 2.08322459862972 6.67010257462371
-9.20207516761688 -0.540281538728093 0.494897889474933 -0.540281538728093 5.44603791037918 1.07840195130127 0.494897889474933 1.07840195130127 -4.20771262361439
0.515929128267554 -1.90265927197082 1.78254878708314 -1.90265927197082 -3.19930655200833 -2.03641867559574 1.78254878708314 -2.03641867559574 -5.30942938878515
-0.870721101711884 -0.00468129624576282 0.456426383961875 -0.00468129624576282 0.257471293516955 -1.6618601672458 0.456426383961875 -1.6618601672458 -3.24647894643652
6.30437256097053 0.518714198054537 0.0336009197120348 0.518714198054537 4.6348268627788 0.178504885970185 0.0336009197120348 0.178504885970185 -2.15885909149823
-2.60166987140198 -1.16818062209986 1.87772695066404 -1.16818062209986 1.03038466843667 -1.30391991973823 1.87772695066404 -1.30391991973823 0.215948882606489
-2.95611973518569 0.223843570892281 0.671530712676843 0.223843570892281 4.63379268403815 -0.923066271720746 0.671530712676843 -0.923066271720746 -8.58682399268224
-3.16371592875262 -0.706717336902985 -2.881909638648 -0.706717336902985 4.90519073713349 0.763959239580486 -2.881909638648 0.763959239580486 5.41596463794811
-6.09066253477564 1.6321796211795 0.857157555896849 1.6321796211795 -0.638129580925664 -1.2973195440601 0.857157555896849 -1.2973195440601 2.20923409369974
1.65626075680407 -1.7411270104585 0.224484929021378 -1.7411270104585 -5.97075158775154 -0.662504302721629 0.224484929021378 -0.662504302721629 -1.57960736640653
-3.5028132171831 0.578580358473297 0.591112785010625 0.578580358473297 -5.13202866703571 -2.46471055234112 0.591112785010625 -2.46471055234112 0.827140151463631
-2.92198475213202 -2.31197159065423 -3.55587743238651 -2.31197159065423 -9.76672317967455 -0.403780953860739 -3.55587743238651 -0.403780953860739 1.02899017274188
-2.898826220533 -2.48935684794134 0.162703061956951 -2.48935684794134 -2.23987881960735 -2.58426696741623 0.162703061956951 -2.58426696741623 -7.53586348630609
0.721632977656791 0.963859431695435 -1.12534373438786 0.963859431695435 -0.953766662777158 -0.587903789489624 -1.12534373438786 -0.587903789489624 -3.47948208457593
-3.29169118893187 1.16878890041784 1.57211865084032 1.16878890041784 -3.14423730168064 0.420677266569686 1.57211865084032 0.420677266569686 1.32057966670587
-2.06534037367723 -1.40175654253312 -1.46605730136491 -1.40175654253312 -7.34829071929746 3.48767315903653 -1.46605730136491 3.48767315903653 -1.82356952046969
4.21412826204435 -0.438207565498886 -3.45160848948021 -0.438207565498886 1.86672562042918 -1.32427484551646 -3.45160848948021 -1.32427484551646 -5.19478660245596
-0.662337931426143 1.50405905261353 1.46660541958646 1.50405905261353 -2.87013103617995 2.74988516172461 1.46660541958646 2.74988516172461 -4.27365665277345
-6.68303267292315 -0.770043674575631 -0.176378718757547 -0.770043674575631 6.07646195719598 -0.423739117015082 -0.176378718757547 -0.423739117015082 -3.06081605843889
-1.42441294147737 -0.935110786008044 -3.21580249955673 -0.935110786008044 -0.902490642310089 -0.505612227318303 -3.21580249955673 -0.505612227318303 0.562697478789724
-3.15887396538897 -0.317592591661914 -2.75175862976867 -0.317592591661914 3.31873600817182 4.090336801337 -2.75175862976867 4.090336801337 0.375142927063738
3.32809481974436 1.66404740987218 0.759221630754182 1.66404740987218 -2.36346733683408 -1.56524459491102 0.759221630754182 -1.56524459491102 0.2366067410912
-5.78717662336769 -1.59608811188565 -0.893049300697922 -1.59608811188565 -4.74754780219047 0.211725974025647 -0.893049300697922 0.211725974025647 -7.99944160837926
-1.18837526192917 -1.58886296033262 -1.06011449577382 -1.58886296033262 1.19361039524164 2.248489757703 -1.06011449577382 2.248489757703 3.19343132060263
-1.35303892427139 -1.03670958834154 -1.26797557343311 -1.03670958834154 6.60835906824886 -0.71506379298429 -1.26797557343311 -0.71506379298429 1.55240615279861
-0.921807420247185 -1.21249101015468 -0.542085613611271 -1.21249101015468 1.18106575719171 2.16048614120434 -0.542085613611271 2.16048614120434 2.81256014018601
-1.04237904131075 -2.28071445592274 1.02060611094395 -2.28071445592274 -3.18429106614511 -2.42223850330696 1.02060611094395 -2.42223850330696 -7.09525368328231
-6.00159116365007 0.311369680173528 3.18737970315039 0.311369680173528 3.32999177040544 -0.461112350791332 3.18737970315039 -0.461112350791332 3.18262596757522
4.74162612278458 3.24159426624683 1.05764958020289 3.24159426624683 -1.1593466552224 1.75427454408652 1.05764958020289 1.75427454408652 5.57808456482003
2.74544688013463 1.78007113995706 1.03433115019026 1.78007113995706 -2.15038723076591 3.59078912880864 1.03433115019026 3.59078912880864 3.67762186734313
1.87619381594711 1.04613615861096 1.78133008368012 1.04613615861096 -3.65488879595315 2.83273644963925 1.78133008368012 2.83273644963925 -4.32157002549615
3.19263966787001 -1.86320611800554 1.21748125092851 -1.86320611800554 -3.16864988952659 -0.331858600417296 1.21748125092851 -0.331858600417296 -3.95631427846884
-8.17276845649001 -1.94860494908552 -0.513941821588213 -1.94860494908552 -7.96719172785473 0.649534983028508 -0.513941821588213 0.649534983028508 -2.26571798793783
1.36113642808687 -0.318463462377343 1.91549875148447 -0.318463462377343 0.731286469162789 -3.38043067842025 1.91549875148447 -3.38043067842025 -1.71498471961725
1.67734541642364 2.23976111685377 -1.38029487042182 2.23976111685377 -2.1585673009466 3.02595489527193 -1.38029487042182 3.02595489527193 -3.18834252708626
-0.408239733814995 -0.866846707516255 -0.980835724100962 -0.866846707516255 7.43579515163026 -0.304854346680029 -0.980835724100962 -0.304854346680029 3.16253248338499
2.95058815215986 -1.34540256799134 0.421121942013548 -1.34540256799134 -4.90853172671636 -0.358227106518018 0.421121942013548 -0.358227106518018 -0.101178648405852
4.37123056002591 1.57650938230443 1.39736058886074 1.57650938230443 8.0026819847726 -0.562737974699574 1.39736058886074 -0.562737974699574 -2.47225334952285
-1.06106588545222 0.316800857415183 0.742095159150634 0.316800857415183 -3.92312294662089 -0.451332728372315 0.742095159150634 -0.451332728372315 2.56695489261754
1.25434487004093 0.813001304656161 -1.60535495713058 0.813001304656161 -0.131628782658617 -1.16143043522309 -1.60535495713058 -1.16143043522309 1.36016408747237
-6.62180436561517 -1.14854148881611 -2.64273408919537 -1.14854148881611 -3.4292944926737 0.857323623168425 -2.64273408919537 0.857323623168425 -5.88151222116497
0.541944169654932 0.283517088754663 -2.05236264248951 0.283517088754663 -0.745173233275531 0.413985129597517 -2.05236264248951 0.413985129597517 -2.46383877130159
4.35571485534187 -2.3849389561633 0.948373376863595 -2.3849389561633 -3.4293501433422 -0.752296180803189 0.948373376863595 -0.752296180803189 -4.41773927450384
4.23092518951828 1.34295038353864 1.64606144189219 1.34295038353864 9.0196589239233 -0.31153080997448 1.64606144189219 -0.31153080997448 -3.25423400149018
1.26187131534256 0.789637264815592 -1.57411350175657 0.789637264815592 -0.118703641116069 -0.843828057499015 -1.57411350175657 -0.843828057499015 1.16381178572494
-6.78008597683564 -1.41693734213051 -2.04517635562792 -1.41693734213051 -4.03324007366517 0.462340399543546 -2.04517635562792 0.462340399543546 -7.1608368941068
-0.376387313278164 1.27820121153524 -1.02054009774751 1.27820121153524 -0.737618090451167 -0.166721897156771 -1.02054009774751 -0.166721897156771 -2.86963750257714
-3.17021719887775 -0.670073628314425 -2.91097559841512 -0.670073628314425 5.35180117565226 0.432801655009645 -2.91097559841512 0.432801655009645 5.02005980556872
4.85973184043356 -0.695399205702852 1.93502387673837 -0.695399205702852 -1.49561220472903 1.17109257540104 1.93502387673837 1.17109257540104 -1.28396896821077
0.493410790881015 -0.152850081957706 2.60381455405144 -0.152850081957706 -4.7410341210741 1.05117951100738 2.60381455405144 1.05117951100738 -3.84538627240965
-0.184055002533214 3.34980104610449 0.912386941128931 3.34980104610449 -5.20349785733186 1.87210231148069 0.912386941128931 1.87210231148069 -3.68372940784332
-1.21324044600614 -0.996866353724789 -2.1637409228135 -0.996866353724789 -5.58708816855056 2.92877789195112 -2.1637409228135 2.92877789195112 -3.1348484560286
-4.97399273659405 0.305139837551673 -1.04558405874349 0.305139837551673 -0.638019660335316 -2.62889706198364 -1.04558405874349 -2.62889706198364 1.22909473027807
-4.43992273925958 -0.183519587155868 1.44521674885246 -0.183519587155868 -4.02700366815888 -2.17512419776785 1.44521674885246 -2.17512419776785 -1.51195114418187
0.749497515636199 1.25262041540583 1.91394175273188 1.25262041540583 -5.32687853673617 -0.975124795429795 1.91394175273188 -0.975124795429795 3.7604546632266
0.623905048059481 -1.68837462566973 2.17545839126003 -1.68837462566973 -3.37401282569009 -1.36273997339308 2.17545839126003 -1.36273997339308 -3.34391214354687
-2.30590662729511 -1.84472530183609 1.38903423025158 -1.84472530183609 -5.78947271067307 -0.194904012545182 1.38903423025158 -0.194904012545182 -2.54747779777364
1.83013459585741 0.573231813070281 2.05101290915055 0.573231813070281 -0.738890548040133 2.36392385298249 2.05101290915055 2.36392385298249 -0.965027868792629
-3.8166026815113 -2.40024304616292 -0.489238729003928 -2.40024304616292 -0.74331851091757 -2.55160972474977 -0.489238729003928 -2.55160972474977 -6.80339160719827
-2.22944553804339 -0.685685248016821 -0.441627786858292 -0.685685248016821 7.68199913456133 -1.88660291403498 -0.441627786858292 -1.88660291403498 0.445501714813189
-4.31477951572416 3.08322001449093 3.95179355746595 3.08322001449093 2.91469081958533 1.36551860487615 3.95179355746595 1.36551860487615 -6.20101012024454
3.70964256676788 2.41751987497233 2.14398583739464 2.41751987497233 -0.99514287956835 -0.916990297403296 2.14398583739464 -0.916990297403296 1.62557370903312
-2.08556921541618 -0.984224289836798 1.61708667244585 -0.984224289836798 0.953403069904539 -1.29654598515035 1.61708667244585 -1.29654598515035 0.897924874026473
-7.17645806381748 -2.15402972630869 -1.32387628209236 -2.15402972630869 -9.34141086176059 0.251230647591784 -1.32387628209236 0.251230647591784 -0.884768802388456
-3.07456691606219 0.301342496034505 0.683479719266666 0.301342496034505 -2.68151148645197 1.29926655898935 0.683479719266666 1.29926655898935 -0.626705046100745
-2.61867202749786 0.536508415389805 -2.08982801804219 0.536508415389805 -7.50345340952313 -0.311685841321696 -2.08982801804219 -0.311685841321696 -1.55587440463043
-2.8402533089815 0.48274089514164 -2.27577850566773 0.48274089514164 -7.28708875047142 -1.34860948484014 -2.27577850566773 -1.34860948484014 -1.36904296188317
-4.00361242339007 -2.52252313292525 -0.423168368704235 -2.52252313292525 -8.43039321548437 -1.26950510611271 -0.423168368704235 -1.26950510611271 -4.5861558919959
-3.79541178547698 0.319415843332221 0.874740119975167 0.319415843332221 -4.8350790402446 -2.37996118561263 0.874740119975167 -2.37996118561263 0.00417537050107478
-5.61835740088712 2.56127815231193 3.24327529346008 2.56127815231193 0.194856326042328 1.46575258589618 3.24327529346008 1.46575258589618 -2.83407700877119
-8.39402075089873 -0.142668541428264 1.25633491705486 -0.142668541428264 0.841105580062151 -1.7184106407852 1.25633491705486 -1.7184106407852 -3.18129553572874
2.22951831709814 1.79025468532164 0.625695289449077 1.79025468532164 -3.00078353103129 3.69798685356026 0.625695289449077 3.69798685356026 2.37508824158221
2.39591581156843 0.843632328017054 -0.604819484393765 0.843632328017054 -3.61074636391299 -2.09739975703932 -0.604819484393765 -2.09739975703932 -0.851419703352596
0.149522916568575 -0.193348599011089 -2.07785294403917 -0.193348599011089 -2.87444917196485 1.94637589671162 -2.07785294403917 1.94637589671162 -2.32276116945321
-0.204325741712883 -0.567272782913398 2.21532119962389 -0.567272782913398 -4.93339126372552 0.787729504235193 2.21532119962389 0.787729504235193 -5.12696301903246
2.11061221584391 1.0005397230797 -3.06481115174939 1.0005397230797 -0.101107172016475 3.4502822450622 -3.06481115174939 3.4502822450622 7.44401553971296
0.387304961977386 -0.46980779411458 0.45376557675457 -0.46980779411458 3.50637036583077 -1.53317763054953 0.45376557675457 -1.53317763054953 -8.12652896551366
1.05284998626289 1.0022509111375 -0.0214073010145874 1.0022509111375 0.342516816233398 0.59551219186034 -0.0214073010145874 0.59551219186034 3.64313340902796
-1.5391044461557 -2.36304198535213 0.804902678554926 -2.36304198535213 -3.0591740316699 -2.482689680813 0.804902678554926 -2.482689680813 -7.36105253664927
1.97670445111016 0.596643075794406 -1.06617523544131 0.596643075794406 -3.81592158475466 -2.2075793804393 -1.06617523544131 -2.2075793804393 -0.967599422918755
1.66746508887767 1.35108448132212 -1.4485854232732 1.35108448132212 -1.79680307309849 1.56797433178473 -1.4485854232732 1.56797433178473 0.171124102199857
-8.84728567679522 -1.36475133578481 2.15135152932073 -1.36475133578481 -3.91530246332502 -0.0137655033868785 2.15135152932073 -0.0137655033868785 4.55244862008911
0.627996547907186 -1.47619967754806 -2.42227239907057 -1.47619967754806 0.372448169105128 -1.16084210370722 -2.42227239907057 -1.16084210370722 -0.358855170232678
-0.602067403479116 -0.402232265303069 0.689175027812265 -0.402232265303069 -5.49290431089032 2.91298143725853 0.689175027812265 2.91298143725853 3.06413878536605
-0.576315775185227 -1.54952826346972 -2.90332664102747 -1.54952826346972 -0.133205061245642 -1.31030284735509 -2.90332664102747 -1.31030284735509 -0.801948838111519
2.32009105247331 1.34146233760847 1.29035901046148 1.34146233760847 -2.13611907474415 2.99465497081357 1.29035901046148 2.99465497081357 4.7219474283818
-6.69361893612273 0.0660834990508932 0.100191111464257 0.0660834990508932 -0.225962932238538 -2.25749759660954 0.100191111464257 -2.25749759660954 -1.02322837240093
-7.79482131006514 0.884863215637306 1.86687131891021 0.884863215637306 1.49941022220164 -0.688461594982725 1.86687131891021 -0.688461594982725 -0.969337030972609
-4.82803040899297 2.03882868816856 0.0987886065401261 2.03882868816856 -2.37933409794516 -1.84965901607045 0.0987886065401261 -1.84965901607045 4.28154024515398
2.18494694239892 0.711015988381598 -0.843358380379632 0.711015988381598 -3.73932131116015 -2.15899745377186 -0.843358380379632 -2.15899745377186 -0.934181590574362
0.288523032978213 -0.293768906305089 0.952126008828102 -0.293768906305089 0.89442140223246 2.10621814074095 0.952126008828102 2.10621814074095 1.57900787138986
3.54957109826028 -2.06175087453879 1.19185598566937 -2.06175087453879 -3.23760879328642 -0.481941766017311 1.19185598566937 -0.481941766017311 -4.18749401676452
-4.40698282345077 0.131730464831409 2.40228465865278 0.131730464831409 1.02031232760328 0.967620141670713 2.40228465865278 0.967620141670713 6.44760747865732
-3.4662601400506 2.0927571807444 -0.507462162064274 2.0927571807444 -4.38472471436527 -2.42617240292713 -0.507462162064274 -2.42617240292713 5.3744856254989
5.58438435928025 -1.72192726799525 -0.298678579993919 -1.72192726799525 0.463856885596617 -1.67441022117803 -0.298678579993919 -1.67441022117803 -3.40086292220349
3.48732989775505 -1.13693513908002 0.489210071863757 -1.13693513908002 -4.38375952664507 -0.174913098320003 0.489210071863757 -0.174913098320003 0.66958920450626
5.73498849565787 -1.78161262743599 -0.70362422754434 -1.78161262743599 -0.0225520585751391 -1.32380583836066 -0.70362422754434 -1.32380583836066 -1.65983151113024
5.28900671223675 -1.71954531868301 -1.17558457734799 -1.71954531868301 -0.276475913984327 -0.860896545170708 -1.17558457734799 -0.860896545170708 0.150600701113414
-9.0667863770516 -0.307202019933507 0.361286882597856 -0.307202019933507 3.94603157999096 1.20284734565514 0.361286882597856 1.20284734565514 -3.44628744897237
0.581033841284722 1.89725335929705 0.0592891674780329 1.89725335929705 -2.74508845423292 3.03362906929268 0.0592891674780329 3.03362906929268 -4.42692450502646
-1.51875899548765 -0.974879084941395 0.041047540418585 -0.974879084941395 -6.78310605417118 3.28123776221064 0.041047540418585 3.28123776221064 1.45205674230745
4.71661512176274 1.05561337098747 1.50982151467929 1.05561337098747 8.88649821871124 -0.191356208684979 1.50982151467929 -0.191356208684979 -3.55586097677253
-4.87182409770937 -2.36167996610178 -0.22544558465698 -2.36167996610178 -8.20951848519197 -0.989761103372106 -0.22544558465698 -0.989761103372106 -4.19273800734017
-0.153438842390079 1.37574826481952 1.99730560941662 1.37574826481952 -5.54980490949878 -0.520131669118911 1.99730560941662 -0.520131669118911 3.48228152475111
-5.42881056812385 -2.34376359868801 -2.41135120013855 -2.34376359868801 -10.5000609221223 -0.211483785183941 -2.41135120013855 -0.211483785183941 0.72384140908318
-3.07340344508415 1.08300883302965 0.0752670231449179 1.08300883302965 -5.47358518314987 -2.58416779464218 0.0752670231449179 -2.58416779464218 2.46917650928189
0.290325509036413 1.48593874170455 1.00294266758034 1.48593874170455 -7.12089293982038 3.33346470829991 1.00294266758034 3.33346470829991 -7.65403614732362
1.60010262284312 0.296408335157751 -1.74579485537828 0.296408335157751 -0.748556643025508 -0.0904296615735513 -1.74579485537828 -0.0904296615735513 -2.84853433956687
-5.63764484909902 -1.65666724326227 2.95255839099559 -1.65666724326227 0.00622027750911992 -1.38712188453374 2.95255839099559 -1.38712188453374 -4.08257547181904
-0.901555487608324 1.97445924040536 2.41732860273928 1.97445924040536 -5.75993783749762 2.00082051197286 2.41732860273928 2.00082051197286 2.24598033755056
3.25998720059466 -1.37228280425299 -1.07216390253046 -1.37228280425299 -1.93989898794559 -2.32483410102448 -1.07216390253046 -2.32483410102448 3.01206289047605
5.78324673360506 0.369307965937334 -0.730881733635144 0.369307965937334 2.27192073286057 0.197222055107896 -0.730881733635144 0.197222055107896 -1.11372454649165
-3.38499077885184 0.302685182272758 0.704725042696117 0.302685182272758 4.62807954268958 -0.831806607772466 0.704725042696117 -0.831806607772466 -8.44976879062196
-3.60966091922642 0.117752876961716 -1.95897968036309 0.117752876961716 1.68493662125219 -2.37218523042875 -1.95897968036309 -2.37218523042875 2.06816871172759
-5.28612975888457 0.251607433516733 3.05726768273162 0.251607433516733 3.14034560889281 -1.06102379983 3.05726768273162 -1.06102379983 2.04846429363152
1.89880448347883 -0.896282075619712 -2.62703366991985 -0.896282075619712 1.30192698053381 -1.76358951517413 -2.62703366991985 -1.76358951517413 -5.48972771317074
5.45068509521719 -0.893357025572695 0.959755182878774 -0.893357025572695 -2.16095821050693 1.19919096225524 0.959755182878774 1.19919096225524 0.551305912177744
-0.665985008735936 2.52719786584967 -0.48872664139177 2.52719786584967 -0.18991967929732 1.71434163845714 -0.48872664139177 1.71434163845714 0.59508166179827
-0.912016848723199 1.4024967522482 1.73342295221688 1.4024967522482 -2.83257068782713 2.64347000213074 1.73342295221688 2.64347000213074 -4.00854057700153
1.11477977147624 0.865089279675001 -1.1526116641734 0.865089279675001 -0.981107083946285 -0.678451942369025 -1.1526116641734 -0.678451942369025 -3.5788970491511
-1.25261250460509 1.84485188962757 2.2248284862128 1.84485188962757 -5.93287596323413 1.02724707490626 2.2248284862128 1.02724707490626 2.85375526676765
-1.30845775071492 -1.75832582433598 1.76381202035575 -1.75832582433598 -4.95677810386135 -0.389519917403603 1.76381202035575 -0.389519917403603 -2.40295385665885
2.78065315980923 -1.44149756600917 -1.72021612862122 -1.44149756600917 -0.0914545283570774 -2.31467056294222 -1.72021612862122 -2.31467056294222 2.97662714914583
6.02739264924368 0.462030098548296 -1.86702162549743 0.462030098548296 -0.0231015049274148 1.08997100521166 -1.86702162549743 1.08997100521166 3.37701999302573
1.80511804232664 1.83692628976851 -1.94030309395462 1.83692628976851 -1.49896366069855 1.91445889290809 -1.94030309395462 1.91445889290809 0.262418041395502
8.6469920560209 -2.39304203495715 -2.24885874916894 -2.39304203495715 -4.43764112925945 -0.793008071835172 -2.24885874916894 -0.793008071835172 -0.296376754120216
-1.79850975634708 -0.590433611387772 -2.49233727203317 -0.590433611387772 -0.391808479446263 1.1863090072123 -2.49233727203317 1.1863090072123 -0.386366695009509
3.5667649988842 1.06479281369626 -1.23740949934101 1.06479281369626 2.02097288136886 0.385963151048372 -1.23740949934101 0.385963151048372 3.44263614628573
5.72773715573119 0.270632197705827 -0.512268088514602 0.270632197705827 2.14959288463486 0.112119053335271 -0.512268088514602 0.112119053335271 -1.65278949313202
-3.11094542717222 -0.737140228279132 -2.90582814625977 -0.737140228279132 2.23919698329429 3.39939160345536 -2.90582814625977 3.39939160345536 -0.455103967024508
-0.069087141556672 1.70349151895451 0.811280433708348 1.70349151895451 -2.86810333376698 2.92337304701232 0.811280433708348 2.92337304701232 -4.53606432277807
-3.40935200581851 0.305857802278574 -2.11747709269782 0.305857802278574 0.733630952318537 -2.63294373849598 -2.11747709269782 -2.63294373849598 2.80833073001236
1.29235713180368 1.21725020430407 1.88285297559374 1.21725020430407 -5.20568704393867 -1.1525028530113 1.88285297559374 -1.1525028530113 3.90038044187644
1.27718187647642 0.370460463156448 -1.77976460271664 0.370460463156448 -3.56211983804276 -2.29530049200428 -1.77976460271664 -2.29530049200428 -0.621751826276555
-8.15569434328373 -0.0971624174133 1.1481028506592 -0.0971624174133 -5.29832610874158 0.991453238911224 1.1481028506592 0.991453238911224 1.96704322599987
-9.23788315885529 -0.20850127811327 1.88714932333133 -0.20850127811327 1.72758201865281 -1.32121728273817 1.88714932333133 -1.32121728273817 -4.20193902320111
0.874120712297439 0.0288748583641797 1.4778677508212 0.0288748583641797 0.564372231663512 2.15248944169339 1.4778677508212 2.15248944169339 0.913495519157684
-0.663741860038506 -0.68550388823649 -2.27141169316456 -0.68550388823649 0.20129876083135 0.761670986929433 -2.27141169316456 0.761670986929433 0.21490002845509
-2.77198962919732 0.316495367624828 -2.64879009012188 0.316495367624828 3.77670311165734 4.79203724403766 -2.64879009012188 4.79203724403766 2.01367522488817
-5.71029513402322 0.00998303345108954 -3.0273548940429 0.00998303345108954 -0.71129113339013 1.92422969769751 -3.0273548940429 1.92422969769751 -1.99660669021791
1.53651452407962 -1.22475795397651 -2.40275242243754 -1.22475795397651 0.692544952157624 0.554481328254818 -2.40275242243754 0.554481328254818 4.60731673959526
2.73363043820543 0.316203520837195 -0.0244802725809442 0.316203520837195 -0.734408177428325 -0.891489926489383 -0.0244802725809442 -0.891489926489383 2.67650980218323
0.918167132201359 1.32448247231345 1.24005331073172 1.32448247231345 -6.16069038416716 3.20566972880647 1.24005331073172 3.20566972880647 -6.83348526552161
0.118757862354148 -0.239563274059229 0.591741762419805 -0.239563274059229 0.368558883168045 -1.19986391964708 0.591741762419805 -1.19986391964708 3.0058024471705
-4.87186136975492 -2.30396152813466 -0.115473012149947 -2.30396152813466 -8.08036149306417 -0.860548876260322 -0.115473012149947 -0.860548876260322 -4.02505928065531
0.309457259807245 -0.161761749444696 0.590782041450196 -0.161761749444696 -0.105496793116106 -2.11931335504356 0.590782041450196 -2.11931335504356 -2.77104909918306
-3.82576971054501 0.0021420883037766 -1.80149626347612 0.0021420883037766 2.22134557101634 -2.19564051137102 -1.80149626347612 -2.19564051137102 1.51659851907383
0.778276070697736 -1.14295400096753 -2.52606176089322 -1.14295400096753 1.09181014489311 0.716013985041917 -2.52606176089322 0.716013985041917 5.03878164628877
-2.48090921936888 -2.47005184860578 0.380007976708581 -2.47005184860578 -2.59219726969068 -2.56505384278292 0.380007976708581 -2.56505384278292 -7.58387347802697
-1.2097162965293 -2.32890960488293 -0.194761580620363 -2.32890960488293 -7.66427966553936 -1.08353273725413 -0.194761580620363 -1.08353273725413 -3.75258932800925
4.48416343861807 0.258154468134404 0.84764104891375 0.258154468134404 -1.48184730133843 -0.278481591609554 0.84764104891375 -0.278481591609554 -1.06107584540282
4.42539765713201 -0.357669125713409 2.57643014285083 -0.357669125713409 -0.818395457140851 0.935597769521516 2.57643014285083 0.935597769521516 -2.95632729332609
6.74918992102172 2.38748310975229 2.51381629672573 2.38748310975229 2.22689007546402 -1.01923045761622 2.51381629672573 -1.01923045761622 -6.91192419576717
-2.8151981311198 0.0710310714327957 2.64472355968109 0.0710310714327957 2.25642036918181 -2.26825888108728 2.64472355968109 -2.26825888108728 0.0426186428596774
-0.669994676032661 -0.698340604634043 -2.21098243090778 -0.698340604634043 -4.52246406322046 2.58205640532587 -2.21098243090778 2.58205640532587 -3.04847577594861
-3.05835989889386 1.88110081452513 -0.515312695293076 1.88110081452513 -5.06933627076928 -2.57656347646538 -0.515312695293076 -2.57656347646538 4.94155548047303
0.0202702036581859 2.89357157220603 -0.276181524842782 2.89357157220603 -0.24324244389823 2.13343893502406 -0.276181524842782 2.13343893502406 1.7609739428049
-0.884726731496194 1.51920218751203 -0.927699172740294 1.51920218751203 -0.538419410881969 0.23002895018901 -0.927699172740294 0.23002895018901 -2.23456694469324
-7.38214679895546 1.07207849453098 1.63555282138093 1.07207849453098 1.01298755388754 -0.812500433847299 1.63555282138093 -0.812500433847299 -0.198376729302977
-0.389174486074238 -0.533504096803757 -2.1881399912386 -0.533504096803757 -3.96648698058446 2.38659320599169 -2.1881399912386 2.38659320599169 -2.87886027115844
-1.83530376078747 0.603090361109831 1.00659686170849 0.603090361109831 -3.7530443335252 -0.14751850559521 1.00659686170849 -0.14751850559521 2.2409796511743
0.187956141720277 -0.367857020223972 2.4300044036693 -0.367857020223972 -4.83047284221113 0.910244743473915 2.4300044036693 0.910244743473915 -4.50020705033122