5.1795300187 6.1642102216 2.4507775543 3.0619137998 4.5991057932 4.9814144280 2.3963345395 1.6394172751 2.5351331295 7.3344780501 1.5360062487 -0.1000559583 8.0023186611 4.5076318897 2.4269032824 1.2326827966 4.6441630359 2.2868586791 4.3347107163 1.5197565271 4.7017644300 9.1611917616 1.4669479771 2.5895899818 6.0387823448 4.5918828073 0.2594392124 1.4915808158 4.6007980330 3.8165160560 3.8727249287 1.5673520326 1.3157782200 8.8949558266 1.5153512421 1.0644934259 6.4788559622 4.5658587149 3.6481899336 4.6112417641 4.6510651086 0.6958581788 0.5870476435 1.4478399946 2.9115187449 5.7492745913 1.4653934665 4.2897385246 9.7850024190 4.6446089859 1.9456326379 1.9600929463 5.8335113423 1.5840515238 3.5290730618 0.3031333277 4.0276061534 8.4846879551 2.6698985076 3.3500923965 6.8401486267 3.3542637390 0.8734218135 8.4300158326 0.2878924290 3.3146509955 6.8188473301 5.8220667817 0.9177761107 1.9039472870 3.4253571704 1.5571299037 3.5574264342 2.7464377110 4.0122260462
5.1914590036 6.1663180407 2.4488521183 3.1208923922 4.5493622487 4.8699628438 2.3446920501 1.5146169420 2.4085120160 7.2738520082 1.5705809108 0.0759863411 8.0373906065 4.5865602822 2.4604627695 1.2727846451 4.6094204544 2.2170101600 4.3369799012 1.4975746471 4.6069909349 9.1144855668 1.5094371457 2.7244505073 6.0532958179 4.6401889713 0.2979117408 1.4686574306 4.6178813116 3.7600275995 3.8670665392 1.5306455010 1.2082842118 8.8597613440 1.5163361391 1.1843803876 6.4936305209 4.5900612994 3.7010011076 4.6216307032 4.6848458494 0.7044076412 0.5456562666 1.4937705949 3.0966652322 5.7420819048 1.4467100815 4.1614443591 9.8168475991 4.6325248880 1.8890339587 1.9596358066 5.8048146517 1.4831129962 3.5252505244 0.2917180992 3.9611728985 8.4549921629 2.7147858274 3.4559361547 6.8601842813 3.4176473690 0.9433629198 8.4404128712 0.2962321390 3.4433177644 6.8635052500 5.8402828122 0.9672274631 1.9462191889 3.4200786325 1.4658752023 3.5561344487 2.7469524462 3.9847095734
5.1795483595 6.1706434542 2.4898835468 3.1246445330 4.5523410008 4.8759832527 2.2877257256 1.4933994616 2.3714827113 7.2715560386 1.5760035418 0.0571155754 8.0669366203 4.5979109401 2.4788590045 1.2307545833 4.6256092096 2.2410419080 4.2548535918 1.5099209506 4.6248454822 9.1519429054 1.4965558544 2.7379938683 6.1246694904 4.6276570237 0.2525481582 1.5582883328 4.6106003067 3.7252287440 3.8056676139 1.5098258925 1.2375792385 8.8258449921 1.5161050187 1.2569429178 6.5637730054 4.6228077806 3.6412642040 4.6021599914 4.6794668200 0.6494640597 0.6045395217 1.4927078302 3.0267346257 5.8085030555 1.4441704384 4.3190267731 9.7994768296 4.6413326395 1.8669216153 1.9053291480 5.8476359904 1.5052609828 3.5460620074 0.3037991062 3.9012091776 8.4990955904 2.7207430811 3.4777054162 6.8552069912 3.4157357752 0.9030664067 8.4994346284 0.2752880002 3.4815185016 6.8429568183 5.8311631003 0.9709259420 1.9045387682 3.4071937681 1.5094874824 3.5381993499 2.7195682449 3.9690686040
5.1847891069 6.1656627089 2.4632830597 3.0578260523 4.6141116364 4.9959792296 2.3891637001 1.6555235569 2.5378262040 7.3367026088 1.5289716552 -0.1085810163 8.0053972200 4.5011256617 2.4003378195 1.2394307750 4.6511655826 2.3238095158 4.2622639246 1.5101734291 4.7044249075 9.1131213244 1.4625968015 2.5499006979 6.1015389486 4.5963142057 0.2595166829 1.5160216334 4.6291009536 3.8051390519 3.9067265027 1.5654992776 1.3165393381 8.9059189772 1.4729699225 1.0571484326 6.5077010053 4.5603277780 3.6428415539 4.5682728276 4.6472180166 0.7321996082 0.5486917233 1.4289019111 2.9838425228 5.8127518692 1.4269789757 4.2395855702 9.8249585844 4.6610732864 1.8945769791 1.9554051506 5.8637334379 1.6071230658 3.4866754520 0.3330236004 4.0541281081 8.4886214211 2.6844878235 3.3383489329 6.8791897764 3.3870237367 0.8305512343 8.4335532343 0.2589093294 3.3334808648 6.8724699445 5.8077229523 0.8698015857 1.8952151185 3.4124129976 1.5961381769 3.5047376222 2.7028663142 4.0675111012
5.1755634278 6.1655614345 2.4499188448 3.0651138882 4.5936581063 4.9712897282 2.3986088268 1.6332141694 2.5364480286 7.3301744170 1.5383763687 -0.0904650340 7.9985668711 4.5100899390 2.4347772592 1.2251100584 4.6405184026 2.2803012892 4.3189231858 1.5265996329 4.7046114151 9.1819117623 1.4692005981 2.6018947916 6.0480673176 4.5889414746 0.2516548651 1.4819811976 4.5912676427 3.8232546960 3.8654722475 1.5682190588 1.3012629505 8.8887977245 1.5289811733 1.0659638086 6.4694934179 4.5661158192 3.6492821716 4.5793573045 4.6531265816 0.7009607407 0.6039620897 1.4544121544 2.8938630016 5.7966419924 1.4730805805 4.2803511173 9.7801155405 4.6409913082 1.9602395747 1.9664309525 5.8251554203 1.5740374308 3.5516139997 0.2973393253 4.0232528756 8.4761564793 2.6744883716 3.3464125884 6.8222362041 3.3600918643 0.8899438180 8.4216702306 0.2879167775 3.3028254040 6.8000842376 5.8164928725 0.9345911174 1.9132517444 3.4296451092 1.5420899795 3.5795030127 2.7505182022 4.0058049275
5.1404092292 6.1897039199 2.4557216415 3.0973279756 4.5562198424 4.8566745077 2.4463250695 1.5809623122 2.5201704722 7.2760294656 1.5578639707 0.0551682615 7.9570644863 4.5413531483 2.4512049535 1.2374570896 4.6061685386 2.2708174493 4.3499473855 1.5298998926 4.6154611641 9.1212740544 1.5083153373 2.5935460573 6.0475514451 4.6059766945 0.3264628877 1.5280267472 4.5546373700 3.7657202010 3.9684981853 1.5736986854 1.2260662553 8.8991096655 1.5653186286 1.0908361634 6.4465463578 4.5494665549 3.7127482082 4.4958261985 4.6644773908 0.7685884131 0.5660404170 1.4795152189 3.0243799101 5.9035630683 1.4706910543 4.1231261747 9.8049808453 4.6262415592 1.8930134378 1.9736667125 5.8420312631 1.5945972533 3.5835947955 0.3298669369 3.9471345704 8.4388780098 2.7243028631 3.3770049716 6.7812716830 3.4046830281 0.9618052708 8.3974285734 0.2829600882 3.3146430095 6.8191592999 5.8299287166 0.9283809038 1.9396345873 3.3705478967 1.5534211589 3.5903415586 2.7021071790 3.9578295459
5.1733283212 6.1741239953 2.4330072790 3.1006281325 4.5496236776 4.8467995442 2.3832653064 1.5459299993 2.4780840437 7.2701336376 1.5648619973 0.0787873395 7.9943469545 4.5657159462 2.4517074675 1.2467309488 4.6080132960 2.2214146426 4.3524612476 1.5080107958 4.6021414039 9.1477584298 1.5088520898 2.7116840795 6.0468977007 4.6230195217 0.3069666973 1.5204844662 4.5846838289 3.7603694156 3.9988486759 1.5548800141 1.1965400717 8.9082316374 1.5393900732 1.1654470519 6.4624385527 4.5628945926 3.7088549494 4.5795811884 4.6953779688 0.8248450581 0.5907018643 1.4991185526 3.0350998846 5.8262415519 1.4515045522 4.0546002632 9.8020551594 4.6135956346 1.8828837285 2.0018132112 5.8165326955 1.5546059483 3.5223659584 0.3007519059 3.9523138461 8.3829266671 2.7195581950 3.3722884837 6.8140997136 3.4186510760 0.9974319805 8.3461792532 0.3114585684 3.3390144361 6.8343932181 5.8482905753 0.9647721524 1.9585874947 3.3857659872 1.5322764548 3.5665238073 2.7310175044 3.9582262881
5.1628181214 6.1279522629 2.4341984572 3.1218206380 4.6089903759 4.9714014175 2.3352221689 1.6212708322 2.5786463414 7.2766638151 1.4903317670 -0.0285749228 8.0417954556 4.5070361257 2.3088506468 1.3006656376 4.6803532215 2.4223476117 4.3229726118 1.5170356584 4.7282292206 9.0849202473 1.4707486668 2.5455335680 6.0521926176 4.5923030292 0.1480780394 1.5463414614 4.6512671398 3.9506470125 3.8910913084 1.5522222659 1.3515931912 8.8607680124 1.4763861446 1.0126634104 6.4742063641 4.5799744545 3.5356398684 4.6197100378 4.5944000601 0.6440324017 0.5162896668 1.4787037360 2.9227079088 5.7743260922 1.5724190331 4.3161126057 9.8714689283 4.6693223751 1.9657096671 2.0494797974 5.8860785858 1.7534429819 3.6399658277 0.2574877307 4.0525815454 8.3525859770 2.6993060459 3.2079388177 6.8956010116 3.4240074919 0.8358788053 8.3303573101 0.2698141660 3.2143180666 6.7910342742 5.8189630668 0.8389867987 2.0226062963 3.4608417365 1.7336221122 3.4641273758 2.6791096249 4.0455996742
5.1880485219 6.1674855601 2.4658471671 3.1252520603 4.5501869982 4.8747003499 2.3266208260 1.5044309942 2.3856308008 7.2742236169 1.5732658145 0.0700036616 8.0517841455 4.5924037087 2.4671419406 1.2569795421 4.6149893722 2.2290437581 4.2825785557 1.5059108116 4.6250110786 9.1169270521 1.5030909830 2.7198656020 6.0971840217 4.6331639900 0.2836602204 1.4955234566 4.6188045221 3.7507574309 3.8194436678 1.5209492232 1.2169738133 8.8395143220 1.5140110711 1.2000634975 6.5214670754 4.6045997884 3.6807911704 4.5796700518 4.6802911320 0.6712684546 0.5614538384 1.4918463862 3.0875444600 5.8079053008 1.4449094997 4.2219811675 9.8148812658 4.6386897860 1.8815025521 1.9368437091 5.8287127348 1.4804955050 3.5314439816 0.2937569667 3.9393683530 8.4789023798 2.7268248792 3.4845717293 6.8607341947 3.4180184023 0.9133304295 8.4750420900 0.2800112623 3.4767814396 6.8632189170 5.8413209771 0.9634746452 1.9324754028 3.4096261786 1.4704059171 3.5505940555 2.7331106172 3.9854110287
5.1566059903 6.1299992742 2.4261154643 3.1139224107 4.5961349633 4.9856011724 2.3327656977 1.6101980007 2.5777176955 7.2884454800 1.4911809194 -0.0411283108 8.0430441816 4.5087939465 2.3158450674 1.3110371863 4.6736970906 2.4208455856 4.3329492826 1.5246087210 4.7339836219 9.0887148848 1.4851378764 2.5389342684 6.0580704137 4.5909376549 0.1496685097 1.5437640381 4.6495786501 3.9047983020 3.8769222813 1.5685155615 1.3577073314 8.8162294197 1.4888629520 1.0645658508 6.4383333557 4.5855733321 3.5336313198 4.6127598300 4.5639944327 0.6316048859 0.5223847344 1.4971606552 2.8982352169 5.7754061249 1.5714156672 4.2951372699 9.8921363411 4.6546618900 2.0060493272 2.0546829599 5.8822231153 1.7515379664 3.6542212063 0.2566015918 4.0487540319 8.3625656734 2.7042891999 3.2093446891 6.8969912998 3.4322215977 0.8422716858 8.3347815832 0.2832504465 3.2069190231 6.7811868100 5.8358765007 0.8317529096 2.0193956473 3.4572728297 1.7261161115 3.4596674214 2.6832961578 4.0592091664
5.1813710755 6.1717568439 2.4912500392 3.0933390904 4.6373167237 4.9930417200 2.3472659160 1.6600396544 2.5608007380 7.2839230363 1.5129605627 -0.0707739782 8.0154098914 4.4995618880 2.3353137504 1.2380750217 4.6770203864 2.3583659248 4.2714685259 1.4947463527 4.7024633103 9.1550433091 1.4372864618 2.5621096118 6.1373477020 4.6063971298 0.2192647726 1.4359259486 4.6505160657 3.8467714064 3.9226515074 1.5586283160 1.3236528570 8.9297437750 1.4380364555 1.0789493370 6.4866978354 4.5408600570 3.6022666276 4.6682489040 4.6540115071 0.7365793212 0.5753912028 1.4326200026 3.0371763578 5.7300176012 1.4040496581 4.1466904227 9.8353358632 4.6900214746 1.8927436087 2.0205417467 5.8510858759 1.6432965891 3.4987903734 0.2814982453 4.0635659681 8.4015805095 2.6609155075 3.1906709440 6.9416780235 3.4131279509 0.8541563929 8.3474700645 0.2614738473 3.2334228197 6.9067480300 5.8041962989 0.8952803757 1.9674061352 3.4632176001 1.6648270178 3.4494794670 2.7031114226 4.1349693206
5.1659412193 6.1777804972 2.4359639383 3.0989184411 4.5508133246 4.8457332411 2.3961270403 1.5526312154 2.4884045997 7.2685290237 1.5634300168 0.0762243910 7.9852969261 4.5610849375 2.4510693707 1.2475027797 4.6079462247 2.2209559090 4.3853102180 1.5055538215 4.5993315757 9.1453192116 1.5097252124 2.7024001221 6.0228168354 4.6240417852 0.3144854284 1.5345469282 4.5758040990 3.7652321193 4.0091490934 1.5603355197 1.1929812211 8.9119151204 1.5457445003 1.1456649959 6.4572420619 4.5584135654 3.7181999750 4.6053820125 4.6896057059 0.8125583473 0.5782826271 1.4973842420 3.0290458167 5.7922927523 1.4566803056 4.0768767261 9.7979773900 4.6132979942 1.8789081478 1.9943327240 5.8161917920 1.5751712311 3.5290249905 0.3104450606 3.9462601068 8.3924388164 2.7113986706 3.3622617273 6.8106025485 3.4059140809 0.9997383884 8.3526121479 0.3162489640 3.3247982383 6.8322707557 5.8499462670 0.9568202619 1.9499275872 3.3856689725 1.5511627178 3.5626068379 2.7299748564 3.9482582218
5.1826647034 6.1729867801 2.4906688418 3.0844878281 4.6347454811 4.9961087328 2.3509973787 1.6613751805 2.5569906203 7.2934058211 1.5155120500 -0.0813530761 8.0140689653 4.4988757151 2.3473116832 1.2395589260 4.6741500605 2.3527226532 4.2987636492 1.4943378267 4.6929341488 9.1500812763 1.4383605857 2.5634662639 6.1087083633 4.6090648990 0.2253743157 1.4645825264 4.6497431064 3.8440406511 3.9288423356 1.5608854897 1.3252684486 8.9186668363 1.4387172723 1.0785660050 6.4939392962 4.5434313979 3.6051663081 4.6909825333 4.6509298033 0.7309949763 0.5700760065 1.4301412684 3.0348647965 5.6970811628 1.3985949738 4.1724840357 9.8260600408 4.6859512007 1.8805745637 2.0051494063 5.8523115936 1.6384476286 3.4800040115 0.2810075313 4.0586186545 8.4180853778 2.6745568490 3.2084499293 6.9460315494 3.4068419341 0.8602576144 8.3670285937 0.2573645041 3.2435488473 6.9168092275 5.8039989821 0.8956947974 1.9516578038 3.4517667488 1.6541976280 3.4396388531 2.7162663241 4.1272397734
5.1450933497 6.1835838262 2.4615668533 3.0915299841 4.5688283381 4.9027281862 2.4402876431 1.6045796900 2.5353733080 7.2942586691 1.5495894954 -0.0085279727 7.9627861807 4.5247319076 2.4571476746 1.2396719605 4.6142580885 2.2800108674 4.3816506225 1.5309093943 4.6466843354 9.1551983086 1.4945052519 2.5955203930 6.0017798068 4.5983187773 0.2799384464 1.4753238701 4.5571334100 3.8075871932 3.8877242690 1.5750350339 1.2541549686 8.8838140310 1.5691724866 1.0761535907 6.4475356413 4.5554536455 3.6687659675 4.5707040361 4.6509795885 0.7006406266 0.5899327105 1.4674044829 2.9457234417 5.7965763542 1.4846116696 4.2347231141 9.7852541395 4.6376251105 1.9453361299 1.9592020976 5.8120349651 1.5736206271 3.6207631532 0.3041937268 3.9839716534 8.4792451029 2.6946631259 3.3416328207 6.7872219859 3.3905252721 0.9593064452 8.4326973185 0.2850317311 3.2749175951 6.7918727952 5.7998715702 0.9626434667 1.9287052019 3.4249436782 1.5230058586 3.6082474852 2.7549871712 3.9744880608
5.1822843711 6.1638272648 2.4534082646 3.0596216975 4.6043198690 4.9885258717 2.3949890283 1.6454436171 2.5348749321 7.3372978031 1.5337164788 -0.1058755073 8.0040339447 4.5052061320 2.4183883636 1.2383927178 4.6462228148 2.3018523677 4.3238090253 1.5144868418 4.6992416463 9.1371453476 1.4663964973 2.5691385763 6.0497585638 4.5938010158 0.2655260988 1.4992179367 4.6108344861 3.8009004437 3.8825455287 1.5665501462 1.3253564025 8.9024036704 1.5006556765 1.0721181587 6.4895378225 4.5648668993 3.6447848219 4.6113029341 4.6493598860 0.7018895660 0.5740883484 1.4406505576 2.9353749994 5.7462722353 1.4544635727 4.2833072448 9.7974917820 4.6495179869 1.9284571945 1.9554149786 5.8448075449 1.5934100626 3.5116208830 0.3151916475 4.0356839006 8.4911460421 2.6700091117 3.3510711138 6.8545051446 3.3595180569 0.8556894151 8.4355525280 0.2812844880 3.3257688151 6.8373976923 5.8206664138 0.8987558604 1.8966467467 3.4202495722 1.5720417667 3.5380429121 2.7335463245 4.0260694834
5.1850397557 6.1675407110 2.4697511140 3.0592027481 4.6188239643 4.9979363018 2.3829897292 1.6589659523 2.5405578869 7.3320219460 1.5263148177 -0.1069562308 8.0066619879 4.4997996261 2.3910245841 1.2378888757 4.6558269675 2.3233106812 4.2530965148 1.5084650557 4.7088096465 9.1175777939 1.4572785089 2.5596424636 6.1124135833 4.5995035100 0.2485175336 1.5239009754 4.6361746184 3.8327382100 3.9179321107 1.5652541244 1.3055171907 8.9018278449 1.4615913477 1.0329913036 6.5121110053 4.5568965702 3.6432280021 4.5721978422 4.6465482299 0.7414857408 0.5371605156 1.4259327023 3.0019408012 5.8176478646 1.4144673412 4.2205101517 9.8289578054 4.6667465359 1.8811093124 1.9598625592 5.8660879629 1.6128988934 3.4743149056 0.3256988131 4.0575237438 8.4796246386 2.6929876462 3.3209074653 6.8965059615 3.3948177503 0.8309010100 8.4272452691 0.2514626286 3.3242509722 6.8904983096 5.8046716294 0.8672679270 1.9014749346 3.4128538130 1.6062374789 3.4850082602 2.7012032115 4.0855355082
5.1643717369 6.1712128096 2.4530316081 3.0749148315 4.5827491406 4.9445171102 2.4103199333 1.6212253972 2.5395035417 7.3172446553 1.5431516244 -0.0618277173 7.9847834117 4.5151356753 2.4477262888 1.2194623588 4.6284701053 2.2926217259 4.2945274263 1.5359427122 4.6853162335 9.1885473419 1.4802282958 2.5942486996 6.0668187522 4.5860121975 0.2534150489 1.4608517287 4.5753215582 3.7972034616 3.8605278798 1.5702711081 1.2825412576 8.8881262938 1.5501282208 1.1042376767 6.4573026706 4.5643031602 3.6410428077 4.5191099755 4.6548080512 0.7139407336 0.6355361910 1.4629481342 2.8884950941 5.8711962739 1.4820226643 4.2544206649 9.7860188137 4.6380414017 1.9732233123 1.9729255525 5.8163560323 1.5615951566 3.6003749063 0.3057904215 4.0192864235 8.4684018975 2.6846496723 3.3353003235 6.7889321511 3.3896949320 0.9188121038 8.4131362096 0.2803435095 3.2815434367 6.7736063770 5.7931333192 0.9560063896 1.9271186510 3.4354507968 1.5211884949 3.6168532648 2.7416615006 4.0033518735
5.177151483683 6.171589292096 2.495875155797 3.123958783611 4.553442751586 4.877235150201 2.275294510688 1.490725559875 2.369814115476 7.269951840647 1.576259246007 0.052097172883 8.070683108965 4.599179125480 2.482516378436 1.228498942826 4.628617090758 2.225092770822 4.287050552644 1.501677871314 4.629640985051 9.171998302035 1.496064162295 2.766657540772 6.100273831606 4.633044789388 0.237278281090 1.581600329964 4.606951655407 3.741272918820 3.815691848469 1.508676166950 1.222052683561 8.818896914897 1.517729597645 1.250477392774 6.571631774592 4.626046656618 3.644856719449 4.662891283939 4.678842919855 0.635555589668 0.595000238816 1.493429879966 3.004764207286 5.737605960922 1.445838333197 4.356194721926 9.792313705416 4.641292862169 1.862150127290 1.891329464471 5.837902796405 1.519001120862 3.549539477231 0.305081151708 3.889787839362 8.509884387921 2.703979189096 3.464296487886 6.861293800598 3.402645745897 0.911822708118 8.509168207180 0.286772156687 3.472754122297 6.837774467001 5.829641590427 0.977126495214 1.890613237535 3.420701982524 1.527458755273 3.526030203058 2.732076996238 3.955091626457
5.1911327114 6.1664169296 2.4419334483 3.1167723904 4.5488261216 4.8647578141 2.3512374147 1.5204572604 2.4232340350 7.2739614235 1.5694822504 0.0787407842 8.0291775965 4.5828912224 2.4576076450 1.2706496643 4.6079168712 2.2257800594 4.3300226327 1.5006050013 4.5973049006 9.1183652118 1.5109246161 2.7152004202 6.0600130563 4.6370701114 0.3036792623 1.4641964112 4.6146181257 3.7445386545 3.8964243765 1.5348779547 1.2161965868 8.8742057102 1.5188427580 1.2001012534 6.4850266135 4.5839534495 3.6955707413 4.6008360752 4.6896102544 0.7400649992 0.5604822652 1.4953487931 3.0894170466 5.7687892471 1.4458855878 4.1194811567 9.8170267851 4.6282006674 1.8915737838 1.9757622951 5.8051145790 1.4883980431 3.5244511388 0.2931038530 3.9677821017 8.4331011519 2.7179852165 3.4389815312 6.8494895115 3.4272934534 0.9562749529 8.4127105486 0.2972916226 3.4231763077 6.8563861592 5.8367866692 0.9688128714 1.9555839339 3.4134740833 1.4691027225 3.5645701502 2.7410884923 3.9860767527
5.1714455616 6.1439899382 2.4602136376 3.1417520089 4.6342143610 4.9702483676 2.3620542446 1.6455456408 2.5712480744 7.2465977991 1.4965722731 -0.0222707347 8.0202562995 4.5053087679 2.2972216169 1.2809206266 4.6858862119 2.4127247740 4.3148215644 1.4954775913 4.7141695999 9.0764531336 1.4422513869 2.5108132724 6.0835826427 4.5987762550 0.1966074226 1.4011808644 4.6552119543 3.9147418296 3.8878498113 1.5407496438 1.3397968345 8.9939812432 1.4510127416 1.0064695335 6.5200236297 4.5422219410 3.5835862666 4.6529035566 4.6472812073 0.6743295896 0.5036687318 1.4407369268 3.0264006848 5.7313520571 1.5232719619 4.2569018718 9.8640948924 4.7034703403 1.9276413743 2.0477188100 5.8727644454 1.6993118689 3.5684357491 0.2463189612 4.0659172201 8.3582502232 2.6623705088 3.2234853984 6.9174227543 3.3945546982 0.7962233170 8.3283500609 0.2610019310 3.2562692070 6.8467010091 5.8303148167 0.8533285051 2.0251554857 3.4742061362 1.7060533950 3.4670014152 2.6869056038 4.0811845085
5.1844029874 6.1715737726 2.4827084239 3.0686419542 4.6276881998 4.9993591307 2.3660173699 1.6621660920 2.5480056669 7.3143734467 1.5207232604 -0.0982930388 8.0105691977 4.4986030666 2.3707612987 1.2395305824 4.6668031143 2.3288821374 4.2891167879 1.5003341597 4.7024555565 9.1374899083 1.4445024113 2.5747947740 6.0962240850 4.6078517901 0.2311264085 1.5141429812 4.6455587495 3.8642438948 3.9313369470 1.5640734794 1.3073837622 8.9013425170 1.4455769065 1.0300299165 6.5088217483 4.5494968298 3.6288193999 4.6487760502 4.6468719205 0.7362608622 0.5394426424 1.4257824370 3.0241218049 5.7424571651 1.3992305471 4.2008185803 9.8205065314 4.6769719045 1.8685844850 1.9770833108 5.8593264489 1.6260876650 3.4599359699 0.2935514902 4.0550537796 8.4514831784 2.6962989260 3.2659213075 6.9341987936 3.3964207132 0.8508455316 8.4042337775 0.2499491720 3.2838082347 6.9185635253 5.8063508573 0.8824763967 1.9232430323 3.4265387905 1.6288354743 3.4457570606 2.7202478487 4.1085105016
5.1821679907 6.1696402329 2.4831211626 3.1252933785 4.5514234790 4.8753152061 2.3005357420 1.4964050554 2.3740182831 7.2728249600 1.5754801536 0.0617534426 8.0628214322 4.5964635035 2.4750951267 1.2362118086 4.6223750980 2.2475055475 4.2449097887 1.5140121677 4.6228808506 9.1361446646 1.4978087473 2.7198603398 6.1318508698 4.6253101701 0.2660447127 1.5362588851 4.6139113623 3.7208941762 3.8017128866 1.5121359981 1.2409890241 8.8311193830 1.5148362502 1.2508725398 6.5530221718 4.6183649001 3.6461092128 4.5695407876 4.6797245175 0.6581356323 0.6001736658 1.4921116966 3.0486874897 5.8397612869 1.4435386412 4.2860739108 9.8059067578 4.6410925773 1.8717244553 1.9171199458 5.8495980395 1.4938756833 3.5418264224 0.3012753970 3.9129861024 8.4910474806 2.7304196568 3.4867328527 6.8527937209 3.4235682637 0.8991263330 8.4914860995 0.2699954919 3.4862909174 6.8492317008 5.8337987956 0.9663268484 1.9159590013 3.4008129922 1.4936105329 3.5466769757 2.7144500478 3.9793839404
5.1667383143 6.1311016844 2.4430996559 3.1338873858 4.6203119299 4.9652165966 2.3499137420 1.6324364490 2.5773355906 7.2610120130 1.4920395524 -0.0211769733 8.0318273452 4.5059203928 2.3023463725 1.2875218912 4.6822132329 2.4142816670 4.2702642530 1.5107743972 4.7352839876 9.0727318636 1.4629213075 2.5425143477 6.0904454355 4.5897824586 0.1526041678 1.4989745692 4.6541912075 3.9678403109 3.8975731930 1.5421310181 1.3155702383 8.9290430825 1.4642544646 0.9754288264 6.5088113426 4.5652611174 3.5655293288 4.5728232857 4.6214679387 0.6740608346 0.4853627025 1.4593539877 2.9634008188 5.8376437209 1.5670247676 4.2946752980 9.8868002106 4.6872862648 1.9419646568 2.0430463725 5.8768766835 1.7380174998 3.6190474487 0.2650560938 4.0684594010 8.3582055392 2.6746001277 3.2167989366 6.8889946179 3.4284935523 0.8051523893 8.3318653258 0.2635658698 3.2372457554 6.8061567886 5.8104097071 0.8365348977 2.0215674857 3.4768334575 1.7276919442 3.4814637757 2.6569686464 4.0623973151
5.1380245978 6.1901126970 2.4595142970 3.0973667341 4.5584795563 4.8657182161 2.4513176181 1.5874243033 2.5248489657 7.2796467783 1.5560362810 0.0427027423 7.9550631450 4.5368065059 2.4531914825 1.2369514644 4.6076168339 2.2691958226 4.3563315287 1.5336156366 4.6303184754 9.1262983381 1.5044256854 2.5916862527 6.0355181810 4.6027627870 0.3140198410 1.5196742462 4.5525281387 3.7936283716 3.9467266140 1.5753477490 1.2257985298 8.8886961507 1.5691131650 1.0604694772 6.4457049490 4.5494571961 3.7100296158 4.5000763282 4.6590415541 0.7481023071 0.5631804552 1.4751144813 3.0128358349 5.8970987349 1.4743933626 4.1477984510 9.8012117309 4.6303663251 1.9037200634 1.9678222428 5.8385345840 1.5898833409 3.5934233011 0.3170987880 3.9502827536 8.4521366869 2.7229747334 3.3756883790 6.7829960345 3.3984764706 0.9601627529 8.4120005971 0.2799286407 3.3077121785 6.8175562657 5.8268707241 0.9351750909 1.9377652062 3.3782861257 1.5434733935 3.5929102231 2.7179164257 3.9598309015
5.1853237356 6.1686812831 2.4332517738 3.1072852447 4.5482696551 4.8532081504 2.3640138076 1.5330113293 2.4533639156 7.2735734274 1.5674605353 0.0816302593 8.0119669746 4.5745559619 2.4534978844 1.2546411441 4.6072244971 2.2373844700 4.3082716350 1.5110496374 4.5933832006 9.1350414518 1.5100072815 2.7032512097 6.0804787233 4.6249590762 0.3069288374 1.4814890994 4.6024018621 3.7297960751 3.9558906038 1.5437704779 1.2194589183 8.8976116005 1.5271528024 1.2128727568 6.4733228842 4.5731591187 3.6881938843 4.5502759949 4.6981007619 0.8102308197 0.5963459168 1.4985540629 3.0610721339 5.8462839795 1.4450863715 4.0516942029 9.8133431939 4.6191741105 1.8910849980 2.0023256245 5.8160869970 1.5124713093 3.5220084657 0.2946956835 3.9668304827 8.3903804742 2.7288649120 3.4045098348 6.8236540469 3.4408081098 0.9779172072 8.3605771736 0.2980599026 3.3800449443 6.8407769020 5.8373231518 0.9701820790 1.9677968837 3.3920689927 1.4915102195 3.5764482334 2.7255303694 3.9815293036
5.1601158623 6.1283240100 2.4301089179 3.1172465702 4.6027289613 4.9776622526 2.3317078694 1.6156266579 2.5784261052 7.2833403432 1.4903897263 -0.0341425078 8.0437629191 4.5077834356 2.3122465269 1.3066305449 4.6776511113 2.4261547827 4.3428800517 1.5209394183 4.7269441782 9.0875322387 1.4768547878 2.5393038727 6.0450073649 4.5920250641 0.1501259777 1.5499623276 4.6502760307 3.9227977756 3.8839145691 1.5598342560 1.3623949485 8.8347593658 1.4826304289 1.0458462126 6.4548104378 4.5842860065 3.5290195300 4.6318773892 4.5793859807 0.6322831162 0.5262880447 1.4883738018 2.9081001854 5.7507936692 1.5716673466 4.3143453166 9.8775407507 4.6611588341 1.9846939709 2.0524967787 5.8866615807 1.7553829323 3.6476430003 0.2547810849 4.0475551010 8.3551999879 2.7050410088 3.2063317959 6.8976949891 3.4255515904 0.8436472237 8.3315142912 0.2757765020 3.2074052867 6.7858997445 5.8273372065 0.8375033769 2.0214281671 3.4565561623 1.7323071326 3.4588461725 2.6855874753 4.0474460543
5.1704463564 6.1679223391 2.4507799725 3.0694800290 4.5881249864 4.9586231905 2.4030615288 1.6271086031 2.5382082917 7.3243611030 1.5407946129 -0.0774257466 7.9925024547 4.5125537265 2.4417855610 1.2194661730 4.6349896043 2.2838635736 4.2995381216 1.5327720348 4.6993985455 9.1913459147 1.4738963947 2.6021555564 6.0624552912 4.5863486654 0.2490853073 1.4707348066 4.5827653731 3.8148885539 3.8611104093 1.5691549746 1.2892596008 8.8866298403 1.5406422982 1.0815550367 6.4624022222 4.5656437465 3.6458281057 4.5408811492 4.6545914339 0.7093516855 0.6232731137 1.4595445927 2.8857962905 5.8468211950 1.4784184842 4.2662155073 9.7821774943 4.6388704240 1.9700335768 1.9715969574 5.8200053888 1.5657757836 3.5768629006 0.2993074291 4.0215443040 8.4697551578 2.6803905647 3.3409549625 6.8035602219 3.3744643009 0.9046257321 8.4147262919 0.2839329180 3.2915184879 6.7838631753 5.8052076652 0.9473505248 1.9217107904 3.4329931722 1.5294267112 3.6010286475 2.7467835822 4.0045318205
5.1903014842 6.1667119248 2.4569817832 3.1237446640 4.5498051730 4.8732788462 2.3367210214 1.5092572364 2.3957095283 7.2740731642 1.5718713762 0.0731172581 8.0449902569 4.5897365705 2.4636397636 1.2676022148 4.6118091746 2.2180444367 4.3169800734 1.4997079592 4.6187670636 9.1140154633 1.5065376748 2.7257955678 6.0683785846 4.6385369049 0.2904793621 1.4797488729 4.6192285830 3.7630104802 3.8407782076 1.5260017730 1.2069701235 8.8475801027 1.5147588363 1.1828511502 6.5058576732 4.5970140358 3.6966318541 4.6094278288 4.6817312646 0.6821582756 0.5458745984 1.4925449945 3.0963714937 5.7631446173 1.4462106465 4.1939021399 9.8163025875 4.6360958149 1.8855706315 1.9466447935 5.8135839560 1.4803627609 3.5274492124 0.2916727127 3.9513326753 8.4702169100 2.7186659867 3.4721034765 6.8638126685 3.4143169666 0.9283091125 8.4615097154 0.2899797994 3.4618710114 6.8660244719 5.8423662050 0.9651328396 1.9385830095 3.4180032482 1.4662150507 3.5514055023 2.7441747573 3.9845066101
5.1777741416 6.1713387344 2.4943236807 3.1241338979 4.5531292444 4.8768351921 2.2785978693 1.4914186438 2.3702085506 7.2704254442 1.5762123223 0.0534865417 8.0696999063 4.5988522638 2.4815435329 1.2287594514 4.6278277434 2.2301782051 4.2754450625 1.5042131667 4.6282477189 9.1661548681 1.4961170746 2.7581019381 6.1088743947 4.6313710553 0.2413702492 1.5752356710 4.6079611422 3.7360662693 3.8124383039 1.5088818038 1.2274457477 8.8208826594 1.5172657803 1.2531431392 6.5697830627 4.6252790679 3.6431075419 4.6430256046 4.6790645386 0.6401050013 0.5991308338 1.4932264022 3.0106479641 5.7621689980 1.4452526570 4.3454039217 9.7943036611 4.6413234977 1.8634330559 1.8953435074 5.8412917844 1.5150739045 3.5486818174 0.3048538077 3.8928472328 8.5066721693 2.7091849822 3.4682827011 6.8593643997 3.4065106891 0.9090998360 8.5063314163 0.2830935369 3.4754451745 6.8390581470 5.8299644709 0.9753154506 1.8946272608 3.4163488223 1.5224171225 3.5295859014 2.7282042770 3.9591177241
5.1449382668 6.1879927106 2.4509114621 3.0971893346 4.5545532701 4.8504544298 2.4370084667 1.5740242421 2.5141233009 7.2726874648 1.5594026765 0.0640842965 7.9615544897 4.5461982721 2.4500744365 1.2408657498 4.6057305976 2.2647265463 4.3614918858 1.5217687871 4.6027122778 9.1219464335 1.5109815916 2.6106308669 6.0432133907 4.6119710705 0.3325186686 1.5343892928 4.5578928718 3.7473281541 3.9882460464 1.5714865603 1.2223955940 8.9084864146 1.5610219312 1.1174414257 6.4477460138 4.5503469532 3.7153439894 4.5218447824 4.6703839623 0.7833907686 0.5673371535 1.4845574620 3.0290650158 5.8741159453 1.4675713661 4.1088296718 9.8043412924 4.6218800272 1.8845943515 1.9781825977 5.8381581568 1.5978961376 3.5715182355 0.3367824226 3.9453047500 8.4271073889 2.7193401725 3.3717362184 6.7854820971 3.4045988657 0.9701982941 8.3841966932 0.2919895617 3.3164754572 6.8211083604 5.8341566055 0.9284173670 1.9399416339 3.3708038865 1.5623279794 3.5831590610 2.6995368110 3.9527792571