-28927.2804598256
-28927.2277843278
-28927.3246680974
-28927.2479154353
-28927.4026584687
-28927.1758790478
-28927.350313589
-28927.334453306
-28927.4380120247
-28927.2633588401
-28927.3550357141
-28927.2387378566
-28927.290536468
-28927.3145871012
-28927.3523495437
-28927.2087326953
-28927.1845034194
-28926.9295005018
-28927.4712660875
-28927.2602439546
-28927.4046307488
-28927.1907165915
-28927.2110496074
-28927.2902367347
-28927.2117343815
-28927.1146236691
-28927.3145871012
-28927.3336028147
-28927.1872505433
-28927.299633365
-28927.2834967505
-28927.3960773989
-28927.4025867667
-28927.312944895
-28927.2586122248
-28927.1902760394
-28927.3236561066
-28927.253225462
-28927.3731610716
-28927.4467949025
-28927.1844469558
-28927.406476496
-28927.40596914
-28927.4080176119
-28927.2668463854
-28927.3664870749
-28927.2650668978
-28927.2084620782
-28927.2459373048
-28927.2435473302