-0.123415973264259 0.0985765584640872 0.180404188263154 0.224549235390212 -0.0577731723882435 -0.745192728412482 0.229690924834099 -0.0437143875701771 0.261327304437679 -0.366970536287366 0.019871017619771 0.932679273782411 -0.50363771128422 0.00798584229058416 -0.158507913730217 -0.255512757644326 -0.217385888575725 1.15716191763517 -3.66081757806036 0.215817773568312 0.0444690059579061 -0.456266188468027 0.23333649012187 -1.11742502459929 2.77911913984608 -0.140336394421482 -0.232831525722041 -0.139046729742487 0.0358555577101 -0.628950900590405 0.181942221379132 0.00461538489884985 -0.349802260913526 0.0913808157665154 -0.0755022050716701 0.644406822144049 0.0934762637596983 -0.0520558132441443 -0.163871746372399 -2.25474292118393 0.0252410209063499 0.78886237881078 0.280230302217655 -0.0437352134950173 0.439318513631383 3.14335093846187 -0.229757259261367 -1.1207851975837 0.538650976034115 0.0914929158063961 -0.181983873228813 0.117617110192081 0.208324554388763 -0.0464472117075441 0.360548695241264 0.443839281982811 0.263886064981011 -0.146903759831282 0.333037391417146 -0.191377650882669 -0.251942782750418 0.78521295687026 -0.0857588445003881 -0.199016651536099 -0.466460607232407 -0.0501470272439738 -0.0150723131602906 -0.494141346667262 -0.156245858338313 0.141981385373676 -0.0580745055229687 -0.00907341836557357 0.190808408937036 -0.624269181264286 0.525885969657975
-0.151064316816029 0.0501683673891804 0.123289217943935 -0.313515786536361 -0.0230494137046455 -0.467165603354776 -0.352573651578375 0.118857923936266 0.474709216130235 0.0817517822950194 0.0474342577008973 -0.0283510256824898 -0.151686780569586 -0.121864827528937 0.0796000271717129 -1.00369002106354 0.121409485394468 1.3447862740633 -3.69756068012291 0.708272477433699 0.286687110248673 0.46766851087314 -0.193676473030773 -1.08429020684795 2.99019014521192 -0.654402494736806 -0.228359608305424 0.469778614146766 -0.135746206320587 -0.886079338626039 0.217480505123148 -0.0291395826144029 0.467501646364235 0.160346765760554 0.0658438610392878 1.00550496184684 0.256713976420295 0.0598619355166628 -0.694322450223131 -2.33793812004751 0.116893087916155 0.949982789112621 1.06592045558796 0.024982368062038 -0.534360321296663 3.38460256557394 -0.0938030508025616 -0.673477756339534 -0.025919534679848 -0.0533722173821929 -0.0654319705257812 0.22215451114377 0.642572855207193 0.1795963480675 0.0991432293078878 0.0949677599325148 -0.228924222267759 -0.472317834316174 0.501599855972077 -0.0557818540192617 -0.500667060227381 0.447478419516002 -0.151749001233924 -0.468011238747363 -0.367924157956901 -0.112527871225571 -0.325909782918126 -0.100096079646874 -0.0360789864593117 0.122472378891869 -0.614990331862326 0.252754993819187 0.262630853066567 -0.612277562319249 0.0824871174190075
0.0860699478220754 -0.0313509873002147 -0.236424126312071 0.0341799706461033 -0.0319711370621236 0.0454776492066493 0.910615877630386 0.253431964931586 0.311953070842795 0.0342090240968063 -0.0778041125419727 0.249489437382204 -0.334331941189622 -0.125164065399922 -0.266928192668783 0.474876851969689 -0.139301268823868 -0.603533244988188 1.46048354251734 -0.2217359357655 0.197188598133458 -0.217581292314967 0.111667580552541 0.270837295894348 -1.18149739647625 0.187528454329793 0.318036297777606 -0.360077412275435 0.0476047217523673 0.460747361851239 0.199516473732265 0.0967850147074616 -0.47638788851643 0.0221099330951865 -0.0076526274931406 -0.699320157964418 -0.335893371332272 -0.139691304971801 0.473882606891206 0.584274406714646 -0.0102440410297407 -0.0487097813198152 -0.692545818857132 -0.00549547305598666 0.415631980892737 -1.06815191486806 0.0319132872709008 -0.465902163914469 0.0890439413112959 -0.0176565276117607 0.0931193948253992 0.127898946418754 -0.310484457476285 -0.111406099496214 -0.114480880177254 -0.104082058817219 0.241958165895539 -0.0334088972066486 -0.133309573114281 -0.0280062409268017 0.123575638688034 -0.0986683467994941 0.148318380059318 -0.0745179872903321 0.178052915637675 -0.0921722009104439 0.168359347510192 0.101818974984582 -0.0148493986314452 0.106896129772481 0.196563049057701 -0.208822576813646 -0.00962337704746537 0.249245439818335 0.0258223470305936
-0.0597755464951034 0.0573522830183244 0.0877229091899494 0.420740760233172 -0.0253456647509174 -0.235463562667588 -0.572989840773444 -0.284432253941899 0.184637250319567 -0.766892313655261 -0.0523352920132964 0.442228743795167 0.143083102508742 0.128343489925529 -0.0460903427732449 -0.0696215809612309 0.218674267703804 -1.00019692211441 2.68632138985988 -0.0412594995408629 0.0811511729070347 1.46566328426834 -0.327738864761501 1.65806603345147 -1.92353332605924 0.23283383971369 -0.661388435524876 -0.0915335392153437 -0.106481668157143 1.06087055447948 -0.0829203480777208 0.0111588390616112 -0.160622902097324 -0.221130184173851 0.129864296659232 -0.545314500652437 -0.251294865088723 -0.0508967605382218 0.010527376451641 1.62649290295296 0.0197203510524084 -0.423735579647232 0.112607575382367 0.149998852216796 -0.346466256286342 -1.88275307989989 0.103027392845681 0.291660135412372 -0.565104271454313 -0.0144097402181516 0.19900790978987 0.203281081034864 -0.376533749551959 -0.0255307840828305 -0.0364014026290604 -0.883994175040185 -0.347927413457539 -0.350565106827118 -0.0238071174145731 -0.559260928320439 0.307986632046374 -0.448714862387072 0.684422936838895 -0.233306151120251 0.262281183217398 -0.667729543973449 0.0353575352852171 0.255728987308408 0.632050363849033 0.320515354164142 0.240883959550077 -0.0660845161707748 -0.214228575525874 0.826082163153006 -0.246533698715991
-0.117128343733794 0.102794965240057 0.175093577428897 0.288370410618167 -0.0211280293054975 -0.628608686936549 0.538732479962194 0.0241220773890086 0.110140603174441 -0.373351239704153 0.0119013732707292 0.852796682519348 -0.571923604843661 0.00141899110115048 -0.214085622264008 0.264570492288723 -0.258440728410751 1.38806151744055 -0.493454348257718 -0.0919968517654929 -1.10552725087113 -1.54801953260409 0.335117412799337 -1.65201725928121 0.699951363464205 0.04780501058509 0.71528490057064 -0.116677115362256 0.0728444571078012 -1.0702036541301 0.204821942362857 0.00488097971810849 0.177974497031795 0.282714757918038 -0.139493844351094 1.00048977061309 0.160929634545897 -0.051663720214745 -0.322114579503724 -0.467034734271521 -0.042271742332171 0.232988362933801 0.169802249858382 -0.102007179638693 0.679401832070936 0.19922156835212 -0.166446190636907 -0.336419418767125 0.492338490062575 0.106050751490078 -0.341006007325455 -0.0830386187619986 0.227143734249011 0.124164163897408 0.191864617569674 0.549960481663089 0.187382672855911 0.150925734427277 0.0929810695468308 -0.12596187829843 -0.0540995820905015 0.60538135298512 -0.130374146152542 0.0993106080371592 -0.283989510206407 0.036749272706947 0.18010774022191 -0.404656718501939 -0.28734711208898 -0.0598989593830455 -0.0665920516724365 0.168390714952544 -0.0390354964560737 -0.553716090109276 0.36474679031276
0.218318170100055 -0.132598406347515 -0.103592263918199 -0.0247013466317866 0.14668675883665 0.698297373655598 -1.06935930428843 -0.117736666427275 -0.338480671105941 0.0680858618369019 -0.0714671178563311 -0.877804504489524 0.61545801528559 0.0738158193799785 0.211695783111047 0.398193739826524 0.138584959853437 -1.05788653369311 2.45917611294977 -0.605631521193386 0.28920139073031 0.781380729589476 -0.167806817726468 2.08833246886249 -2.24556614452471 0.3813820762768 -0.876107063059954 -0.140992282498857 0.0812154504528378 0.674236231380011 -0.143383921423101 -0.0398939873578207 -0.279042453171212 -0.0734568935642136 -0.0355791642631464 -0.266504217976666 0.0253824315071168 0.0617149286070762 -0.0087013799304649 2.14459794713638 0.033352590076525 -0.402704995101172 -0.110757667614152 0.045451938188328 -0.485971413485497 -2.54439759716725 0.0412798112453367 0.735144091121983 -0.312362904474836 -0.016775411013891 0.162076603073209 -0.0941329231676234 -0.522163785535606 -0.100257544841931 -0.159278987169672 -0.41467270279917 0.0934086437815134 0.105431630168902 -0.445716957650813 -0.466584791450899 0.420489820694356 -0.445710015675866 0.478286647219455 0.0949518191011556 0.424972022518302 -0.361230551447144 0.0245167415202399 0.0828894948557352 0.483965182725889 -0.110694418509081 0.566406277422102 -0.0737530844952746 -0.326899142903128 0.938000683244363 -0.216022947494515
-0.0777817439560332 0.0566115485804888 0.201689569000778 0.261921743181267 0.0665102906341749 0.326889886936532 0.51557996507408 0.0494939673786137 -0.300689330826433 0.0965744414674105 -0.0122204470080961 -0.135474697967114 -0.0397646609356647 -0.0411206600419281 0.017055918223776 0.353025137060096 -0.062847756074311 1.07362116268536 0.384916055745057 0.0812293344027313 -0.875933770796469 -0.896558892583602 0.147363472838866 -1.67404774532979 -0.113875642805971 0.0643515935359217 0.822390575142439 -0.388358761098274 0.0239433858116758 -0.76070341443515 -0.56433576911669 -0.0197764010723488 0.597548491253548 -0.0541934273073741 -0.00451151238483195 0.466037918091206 0.0215345205051567 0.0387159084983404 -0.216680892453357 0.10111937817606 -0.18906880143742 -0.797615694998254 -0.275995183279776 -0.102943574925954 0.363200272560736 -0.729941209454492 0.0710624264279544 0.81210102561027 0.141173802288205 0.125896058091528 0.0472812771418858 -0.262709014562264 0.0631539743025173 -0.121635999465878 0.357282110363547 0.343063403011523 0.121470677618072 0.554966416930239 -0.0572638371152992 0.353601063870492 -0.0338673246633167 0.110459419801625 -0.439738888780936 0.569884721090785 -0.204403109874404 0.360012877619449 0.00896723185990675 -0.261181780073981 -0.264287928197373 -0.113297402003926 0.0617565804567567 -0.176758880085566 0.183733765135758 -0.348273483764143 0.200667041802141
-0.0591358563592704 0.133418844942146 0.018979873724756 0.305364108177605 -0.100207922576571 0.513870439465899 0.818608998567748 0.0110056013924165 -0.140110394570438 -0.262698987265119 0.166814372419268 -0.307802026934827 -0.59554791691797 0.0337120301126563 0.018763386950491 -0.128073524233156 -0.187339221234948 -0.278317659564736 -1.62813146615058 0.0783450723674521 0.514767496895128 -0.336340228830696 0.27635642308719 -0.43622187858477 1.77928577153073 -0.185142728939763 0.153577825967115 -0.979962607805763 0.0286690709791238 -0.664921900772767 -0.154099759639037 0.115790856560722 -0.650372549725131 0.483565376390994 0.0015801991860248 0.397217492460865 -0.0326311389024304 -0.167059398423869 0.579180025544471 -1.1676113897013 -0.0582084599284224 0.360998895172069 -0.532611200720268 -0.0188040103594386 0.289885303817655 1.26000007738601 -0.106088803797194 -0.779305336190584 0.807181222254496 0.0642639189634462 0.331520441336192 -0.0411548556962954 -0.266817121069635 -0.3000848647857 -0.10034624785514 0.157214649508658 0.242072065706703 0.319012288033081 -0.427467791066747 0.168412312207934 -0.143961133784413 0.286450825990301 -0.489256253186222 0.116876375754246 0.151281574920843 0.282077124663671 0.0889873770709891 0.142820078791316 -0.198176158347177 -0.103963016802392 0.274238606508068 -0.225749682835632 0.287388506828478 -0.404826668333043 0.598995764474852
-0.0635872049612306 0.0264640940478924 0.0112562838210488 -0.274561022677816 0.027670455027526 -0.264241905474578 -0.563081328532796 0.131823219145129 0.730751106531612 -0.138318336593446 -0.0290207977097587 -0.160607218376149 -0.210793583478154 -0.110911933724079 0.0914273527096769 -0.135025783587225 0.0675500442150868 0.309024071635637 0.893976992123781 0.0251713440466993 -0.951310506098731 0.572283816210342 0.0519861363844937 0.0826496110547979 -0.531546250341401 -0.0497472209090781 -0.0355549959059244 0.233784376061027 -0.10610294485727 -0.478677968918305 0.54483293327928 0.0092919620213043 0.374214615699381 0.251696471194901 0.0558327618355378 0.784418486404133 0.0784070359216063 -0.00909990071444447 -0.298385623584848 0.822554097218963 0.071203322808355 0.311894706831206 0.45413680193066 0.0419076743127419 -0.569153756839912 -0.943102520609851 0.0147635238302522 0.178497459144449 -0.140028633532176 -0.069590213518879 -0.043301982836304 0.0476420027289331 -0.0719993359355813 0.304348265843732 0.0824552357562891 0.115411104820117 -0.0842076987650664 -0.207227979457361 -0.178527026815519 -0.509277680263172 -0.171569111037419 0.140206553778959 0.28639631863146 -0.333940876600956 0.120394157280961 -0.451316560331 -0.260482697485826 -0.179229708946239 0.127685030746321 -0.0603111070067353 0.0486832989709443 0.356600511267851 0.0518074448071609 -0.144130569395151 -0.103127151596767
-0.0812774140069921 0.133460239681643 0.0198391359570526 0.262143115049013 -0.0452927869849194 0.280560174582717 1.02333812415447 0.0653175564942515 -0.0839374759625099 -0.54003988524383 0.162701637928599 -0.406277283986729 -0.537323516158189 0.100694889263576 0.106609709028382 -0.0594035080599947 -0.0915103992988546 -1.39212951475934 -1.95421197023036 -0.0898839202798515 0.290019258223109 -0.233248558439212 0.105549386632814 1.27582700893403 1.13104877898736 0.0569375642928024 0.00152209228461875 -0.309201477662053 0.00349155628802746 1.52728205366689 0.144663044584584 0.0123770271096726 -0.818724698150194 0.509674915496236 0.00564331141133393 -1.79457302880419 0.436604972757757 -0.222478727084801 0.54359649040821 -0.855919799914831 0.0610263875364328 0.495133534864279 -0.649564709529477 -0.0860879455349003 0.384129298584427 1.36145395591043 -0.0194143899343854 -0.57223959325883 -0.181821379593022 0.145144869067924 -0.114380092985434 0.00504218780298281 -0.220027952818418 -0.489997758954607 -0.158711030774955 0.283187326434783 0.429294558918472 0.183832238335928 -0.150028934108231 0.483052698685668 -0.0146151712545385 0.224758265969164 -0.517785713335861 0.138346361603416 -0.0370701462155964 0.530749208773442 0.0291020445276539 -0.0817116731064382 -0.238916295317951 0.0822770583993228 0.152998299614154 -0.446610929757843 0.267811880368485 -0.469781956579148 0.507957162362192
-0.0289148683142751 -0.144112314572142 -0.249967919433162 0.152828092672867 -0.173862276761492 -0.0607350816988529 0.788556160582574 -0.0955223465977044 -0.273303496771723 0.0926861641666859 -0.042789305130978 0.0288583040739683 -0.0309131286582036 0.0938573010512194 0.217440910154933 0.352927435190475 0.0540910974544554 -1.08858986044181 0.696734400851849 0.0101795063737543 0.578768392141148 -0.291597400527668 -0.0611827105278261 0.890871358220756 -1.02362145957637 -0.00992291041090808 -0.123043420608784 0.28572089018016 -0.0340149059084808 1.44735832477451 -0.16586615006358 -0.0210071875193876 -0.363120311293756 0.0241444459749481 0.0883533433591868 -1.870955322033 0.261735338298438 0.00417444093464019 0.443744408325205 -0.0590720930338336 -0.0362504789515145 -0.31270177569631 -0.885950012203883 -0.0320313008449954 -0.0773120036513037 0.032683846489989 0.434983893052601 0.66536464450826 -0.244341063073554 -0.0195979666051992 -0.0147480972192594 -0.132372149386288 0.110280471114109 0.0108330804594808 -0.101874767894339 -0.191116169826342 -0.0837806387507502 0.0774372163105283 0.308049624041261 0.774314570424243 -0.0459916124628913 -0.423710639959461 -0.306281477311308 0.268519704702869 -0.0439588993544123 0.540200836218521 -0.0492828799181961 0.336945466201978 -0.232043997230861 0.0212948938144025 -0.27518477198229 -0.169737200982029 0.0045289958772904 0.163349041369928 -0.37143422617812
-0.0216947001492982 0.0193598825755443 0.149887009287098 0.175652534967202 0.0109732055093317 0.261728653433674 0.318011100979651 0.0686677021815121 -0.202312032754336 0.347586485354599 0.0143405775788674 -0.064621559228295 0.0319636808668104 -0.0538386152545406 -0.00730270053378821 -0.110784664183389 -0.0863036609786157 1.50445915403366 -2.56035308380687 0.498670856764919 -0.267419016008536 -0.733023446330845 0.0707119852482356 -2.12150585314132 2.20509828723796 -0.295192057999164 0.321711430736447 -0.569186924053546 0.0897512514253138 -0.851146806473672 -0.633281664516438 -0.0563613803722229 0.765981372276139 -0.102162474189354 -0.0416140544835131 0.688954246707835 0.0607805902012815 0.0591955059217757 -0.460758160478934 -1.93680612504723 -0.0642178962406511 -0.013282054954581 0.281607384358942 -0.106928525655566 0.339329906041092 1.85204024007441 -0.0353055990282081 -0.243652779113094 0.278593538791323 0.128789061873036 0.169130420949647 0.0201170720651055 0.329601370928693 -0.40628062641911 0.384455057186557 0.201593152682073 0.229926694872105 0.197349291997966 0.346721823808455 0.519228872794234 -0.223065452522892 0.471186035289672 -0.547348756422015 0.240384908684461 -0.510798744107058 0.480628663878339 -0.0813689452322158 -0.333671425128949 -0.197295813079857 0.145854493173591 -0.205267000089998 -0.477404502180853 0.432233328312593 -0.520063452448942 0.429364492888306
-0.0294720260812969 -0.140697634228896 -0.245371817798053 0.127009088074655 -0.163297105112919 -0.200398875881051 0.705973912395778 -0.136023628208273 -0.164286722208104 0.189639328933969 -0.00162287947643809 0.280287637788511 -0.0612922394658747 0.0934772922004312 0.00970616652645984 -0.0904727025994084 -0.0362129408647655 -0.915524625248282 -2.6196534906834 0.300481328688214 1.39231977629492 -0.0615380368010259 0.12822676190235 0.787298634676481 1.67245366219387 -0.268592466884719 -0.358393854795759 -0.037612648702175 -0.0563647228046047 1.03141652611101 -0.217199997913263 -0.0286040221027711 -0.596371697944983 0.0562911892922059 0.119853454565665 -1.63110725941108 0.0696609188192624 0.0170775154791658 0.50966488819909 -1.90132054889077 0.035705662473287 0.316662043848334 -0.688883027187085 0.000743048429484489 -0.13603057018322 2.47001202162127 0.302615086098696 -0.424197092426099 0.224477758759279 -0.0200867330634864 0.234028116514712 0.0209156562941639 0.109187495725272 -0.0601439853876471 0.307139711102871 0.228648600151355 0.119154886197876 0.0249530575011518 -0.0247314285232225 0.624267638603187 -0.418725530617151 -0.038144609671242 -0.518185519670757 0.0238125167284206 0.000613464897145325 0.537059978220396 -0.356711325756815 0.134025367864345 -0.346145639887876 0.0657176199393304 -0.116989247124676 -0.129862496887949 0.524824875931856 -0.439287403299214 -0.115846392360296
0.144548373442871 -0.0756693266907583 -0.139783864637758 -0.365657988802065 0.0849911134933152 0.0749933840190923 -0.571655181812387 -0.00972262157818545 -0.142734718210489 0.318853136829672 0.0156119874348539 0.00234767308291449 0.410161447524522 0.0653404393005575 -0.42447245743232 -0.61583982390766 0.118954083144787 0.294195241818849 -3.56742461800002 0.30499155552213 0.75742448826864 0.113205099448153 -0.0730326617619128 -0.429321298377527 2.81136127104131 -0.263658522468868 -0.00711012500656196 0.245511428627538 0.117655933829746 -0.361960230147101 0.259976190424897 -0.0402459711986387 -0.0893334473775933 0.0762547665779334 -0.166727469177342 0.241583299248415 0.0645354273169187 0.0298188677184507 0.135750577193701 -2.10378170555137 0.129352390284455 0.788375669233959 0.359802304379398 0.034585947625396 0.0691639248351124 3.11236864716438 -0.130817661218584 -0.965248706240871 0.245262288860005 -0.0660287232610177 -0.078128585593187 0.278564742450803 0.382883599746761 -0.0238428557300396 -0.380198083883105 0.173105858602481 0.0521506869017498 -0.436615771385452 0.291243616915568 0.328167210326733 -0.141475392533114 0.180853359753227 -0.454372571968666 -0.45848813467135 -0.202922926549649 0.411807209807266 0.00438758527652346 0.141606775836735 -0.35775853553304 0.139538581522973 -0.42909427008575 0.099618626036648 0.0568059238789975 -0.613075375217758 0.218489148371891
-0.110706759797876 0.0920076503931878 0.166729268948624 0.203053538522721 -0.0586419476973189 -0.634899916009579 -0.154017484380409 -0.133278977002479 0.302796091667677 -0.453874806653966 -0.00243303366374108 0.810528539729742 -0.25675357138851 0.047060162384323 -0.101088267843891 -0.498942108008208 -0.0252587615089916 0.0233661734503634 -3.00271963866024 0.324235738515229 0.53671699323599 0.857464517895573 -0.0437974341593548 0.488293118439907 2.18174034131345 -0.123015652708997 -0.811879139522158 -0.000330643695611437 -0.0245519656153401 0.512126203982985 0.140600960800008 0.0108875878183219 -0.683021686340387 -0.209893440726726 0.0156783218621227 -0.4345964280065 -0.0336855477637854 -0.0591224866297433 0.086721207916153 -1.70470402091496 0.0362386518830868 0.638514113854999 0.0484071626341739 0.0373442256709011 0.11499201522148 2.69329216114714 -0.183431917780666 -0.998907000325236 0.212724223843897 0.0545325556390315 -0.0303474862551359 0.218211983594388 -0.00277781841942921 -0.126237243304651 0.30845611524092 0.0440548014527506 0.145969421425487 -0.349568033536619 0.391972444723328 -0.294234065456514 -0.187131990427279 0.575616735515327 0.134926539056505 -0.320314036890686 -0.327243927658816 -0.255079012765246 -0.0713791861736724 -0.34592992444416 0.107719910799495 0.292819188118295 0.0162979574036651 -0.13089659404483 0.197250818797795 -0.316442728862054 0.431786985034536
-0.042280226968217 0.0235366375018334 0.0254181698225834 0.546298461323592 -0.0341347192538578 -0.190875257584672 -0.465827601961338 -0.308895002323664 0.163898742941637 -0.751802002782146 -0.0353981586941647 0.425961382503304 0.142264463685393 0.127464173098942 -0.107220859933879 0.235901678419783 0.130459763843552 0.0564673097677065 2.89880804389449 -0.234357731769591 -0.542439494583753 0.762074583042223 -0.182101372582541 0.172843349105421 -2.10220587723846 0.169504773376405 -0.014197367206818 -0.50720228686428 -0.114419945063832 -0.263217064284292 -0.187007549098604 -0.00953930201755484 0.471561930377529 0.10928416915416 0.155158539373507 0.853446399952326 -0.291178568039215 -0.022909802875161 -0.304056188675602 1.85756425236073 0.0339452290488301 -0.596494339502376 0.496610632866836 0.146377969506612 -0.361142105544119 -2.22051152850119 0.208186743330561 0.461986890044507 -0.521326634779065 -0.0265767083081395 0.305684981686254 0.19249093797598 -0.327018699138322 0.0379314653293587 0.134986702839377 -0.61941159857285 -0.296522088976923 -0.271338660751613 -0.262698215934569 -0.532558750242892 0.197412026882669 -0.460013055167984 0.582846416757083 -0.233267070372403 0.338005274377181 -0.604489951979922 -0.100444978165493 0.257379634684633 0.575074490138932 0.245725087189788 0.30233689288046 0.0374648103468278 -0.125027797002819 0.745118423569534 -0.357372870258221
-0.0596539333784438 0.0710621693177712 0.0815093273922499 0.130500644362683 0.0871636945414619 -0.0695490758895649 0.595010556635056 0.0541291497615709 -0.31502348065072 -0.183431917780666 -0.0340668421654897 0.382495620480294 -0.117653876948281 0.0668761584248865 -0.30961336817556 0.810362446551386 0.0493088480467006 -0.537378537737396 2.98562283991733 -0.536060848048431 -0.331390086473303 -1.01730246260355 -0.00361934004908413 0.144129283844235 -2.32946145441717 0.444108990565001 0.494109722114727 0.426700060059674 0.0514078955824485 0.40909932535767 0.33687836044416 0.0235685191645518 0.0817196435221178 0.0131046489281643 -0.123520359998643 -0.717024250960073 0.0862951763425697 -0.070413737435709 0.374161393891456 1.80432007584978 -0.0871426115064385 -0.451069477444933 -1.10902626335447 -0.101400399606311 0.702613739411372 -2.37667819690307 -0.101718444902945 0.303912464083187 -0.188094096732861 0.0552362662104845 -0.510671988786734 -0.317444944356217 0.0203253313135077 0.350847670918468 -0.486089427059592 -0.133775199656079 -0.308319589733634 0.344901226601127 -0.146656162724848 0.166468302112664 0.564099227748135 -0.530333204497004 0.0646079323885847 0.446438923045274 0.227399815991491 0.193049124183734 0.613870617014435 0.408041831174117 -0.223397895989786 -0.250359498242195 -0.117833596966346 0.362220682762696 -0.722908988833444 0.427912334573521 -0.337506737731931
0.126783345333795 -0.0510176023243317 -0.315905882799506 0.0866132216392037 -0.155063665715901 -0.197823146065626 1.6338729936519 0.342806035718127 0.195091350368992 0.234248974162092 -0.0232088220182373 0.687195098834294 -0.486301542960742 -0.161668826322633 -0.481178879670414 0.0714650609748654 -0.216541024513689 1.39508371076446 -3.18372597897248 0.695505671286276 -0.382213827719493 -1.60302517098023 0.014515412503452 -2.34705241893221 2.35938650864129 -0.459154307156054 1.12254665944889 -0.901897271317646 0.143048135523825 -0.737802867526585 -0.461040210349919 0.0291395826144029 0.76421836774985 0.281387812262478 -0.0657248190244603 0.377746795396356 -0.261969822785528 -0.108770463008101 -0.247865272354849 -2.81504514574638 0.0314042091081398 0.644669588751292 0.585321616490871 -0.0288336214963799 0.833751502808056 3.48067924172665 -0.0829925960392035 -1.52909905133166 0.281984564997715 0.00434104833336197 0.181795925684884 0.568805629651842 0.480232971306375 -0.556502136054568 -0.121533669612959 -0.0322156488463588 0.433528135195252 -0.455184011706885 0.737681511520108 0.564862073661727 -0.273403769743176 0.547677600346344 -0.385841652404623 -0.401984572367811 -0.52127495563224 0.381332711121623 0.181902626410917 0.0457535284332364 -0.256632215382034 0.56880305855001 -0.616860037114648 -0.714419210583763 0.503856512050134 -0.548779574591594 0.570513869709106
-0.173619821858723 0.0657235334735443 0.16391905464611 -0.169881954015178 0.019862532983725 -0.209967488459492 -0.120582619045256 0.0867129803902902 0.167035230066647 0.00394946952432915 0.0283353419613139 -0.156016258944704 -0.0831160089271456 -0.0957203214387781 0.116712596567539 -0.71794033454286 0.112974214503628 0.183241142024722 -1.30860110109832 0.402492107869472 0.666602372930245 0.462301078688393 -0.20568891790065 -0.100919860673887 1.09232618562426 -0.432053351184344 -0.358466874087791 0.604243126204038 -0.137053868712406 0.0387827571459757 0.0804713735826205 -0.00180362793523657 -0.147321049658636 -0.0642256095461475 0.0752330107098464 -0.0485038360630619 0.163955564292127 0.0424563474437177 -0.106209131362937 -0.801941573830806 0.0205338476720931 0.252383212494262 0.413731679528612 0.00891606693344744 -0.395671488929208 1.35375839101669 -0.0142436470397963 0.088941354348194 -0.0701010914529224 -0.0225519055001291 -0.116586355467582 -0.0273835200630607 0.380566522775649 0.284170515775388 -0.00141564866876872 -0.0122939805204949 -0.322639598497845 -0.134975389991315 0.24831752916712 -0.0067242026215598 -0.23555895054556 0.0508029153213492 -0.140314540055909 -0.0851458938236093 -0.134604122886756 -0.0718342711979588 -0.107719139468945 0.121528527409295 -0.0418943045832149 -0.0733311666846227 -0.334366908174539 0.350039573612631 0.000803212212356243 -0.274074827321361 -0.0887585490079299
-0.00384996788342586 0.0406527195084811 0.0366767676352811 -0.819063569371668 -0.218596620428474 0.222261211869803 -0.667381416785379 -0.13425471014777 0.050819627483258 0.763990053907157 0.0975915693521996 -0.531824957780003 0.334951062510798 -0.0420549984477228 0.433865206645443 -0.399483147395335 -0.0196475888705592 -1.50649495246433 -2.80230662171911 0.222837910010749 1.0981011374494 1.2516470817538 0.186935044026938 2.21171836023531 1.77298760048276 -0.156132472747516 -0.959008127873934 0.727138708457475 -0.0492594828915238 1.11897514189388 0.180572081212792 0.0893123643425699 -0.692307477717294 -0.823423386748404 0.0361062401387323 -1.01715513846857 -0.375723595364656 0.135617394118797 0.282546864968401 -1.29279756657698 -0.116366783371118 0.50918306371575 -0.0165818070459319 0.132882513099965 -0.47802696593441 2.2584298812112 -0.178965142567713 -0.856627881359399 -0.0210151579350672 -0.168985410806315 0.0562942746144044 -0.0237497818437167 -0.165705456199072 0.0296363194883697 0.233997777513093 0.352383904263164 0.080843154907546 0.0399346107667683 -0.0802070643142779 -0.350266087684041 -0.176126646145046 0.365870876033765 0.251072721890427 -0.0787011699712016 0.127345131084114 -0.329466388082506 -0.0992381029654933 -0.210230512176918 0.0667008092799355 -0.153310688486757 0.0845396280115939 0.018008768562762 0.189103511312153 -0.331669565242455 0.254474546724513
-0.0266756957286764 -0.0674903946525814 -0.129347762301157 0.409210911177185 -0.114799696804437 -0.304505360165675 0.118932228779214 -0.250321703045263 0.113060089304821 -0.195410681216542 0.0309869192807857 0.538689542561597 -0.0386243772731167 0.0866548734888841 -0.221570871027877 -0.0838222906004306 -0.157881079103545 0.804331927204134 -0.851863886774652 0.0685463461750357 -0.290196664249526 -0.372956575572922 0.273962984391664 -1.14977977005477 1.06658662807266 -0.274397500601293 0.553191585335522 -0.776255752307499 -0.0927815520446578 -1.13350469545741 -0.298142911571895 -0.0378119090941648 0.343632130736789 0.352736402324348 0.165690800918629 1.13229679181668 -0.217389231008107 0.0277828121775899 -0.216552594471933 -0.590243219617927 0.0684252472787425 -0.0204587714985951 0.622867673655594 0.0806019855556925 -0.189058517030091 0.375209889218597 0.272377900112158 -0.0985845288797668 0.321559992838535 -0.0213761406322977 0.460231084603348 0.20705905806699 0.0178863841155527 -0.0152648886875168 0.675942928776177 0.444430378294017 0.140273916646961 -0.0868448779142783 -0.493764166028489 -0.0604602309129986 -0.518209430917796 0.233477643612454 -0.224517096617311 -0.276276976040577 0.152472509289484 0.00905387799164941 -0.579726898904165 -0.124379108010573 -0.062223749659654 0.110092780680364 0.223108132813306 0.0658906550926325 0.652244054748736 -0.511401410376508 -0.0446258431696658