5.159790060 -0.071930361 0.018471716 -0.098662697 7.095062110 -0.057658020 0.035172207 -0.086107034 9.021228333
5.065480402 -0.123240413 -0.044505302 -0.168272802 7.082840737 -0.021761605 -0.077131342 -0.038929614 9.183333701
5.110273514 0.011377722 -0.018549749 0.014399013 6.989427359 0.137707570 -0.031066775 0.170939284 9.287858574
5.075812075 0.055688747 0.050138867 0.074537453 7.022298537 -0.009654279 0.091389692 -0.022825871 9.199986238
5.062826826 0.017871757 0.002160095 0.023221282 6.995151905 -0.126469853 0.005852858 -0.176405598 9.204937692
5.073167023 -0.003616495 0.011582173 -0.005941040 6.941408177 0.017576620 0.022710539 0.013060750 9.175916190
5.086368045 0.022142410 -0.038863375 0.029011895 7.150015256 -0.018932260 -0.067342034 -0.035246941 9.084466250
5.132256123 -0.028932781 -0.012500866 -0.040308053 6.945787208 0.059659841 -0.020186043 0.068369496 9.292638409
5.146453606 -0.026558367 0.058734187 -0.037088793 7.008830374 0.031141858 0.106915844 0.030802337 9.285471256
5.077636096 -0.003285089 0.013155429 -0.005492224 6.946434175 0.019794042 0.025518758 0.015969529 9.182209363
5.138916176 -0.009420927 0.056191420 -0.013831226 6.997778321 0.037903435 0.102342222 0.039714770 9.254859342
5.109485982 0.069906769 0.067644312 0.093824886 7.116240715 -0.053015013 0.122609299 -0.079962893 9.166980450
5.075372255 -0.003489293 0.012322867 -0.005768874 6.943899097 0.018678092 0.024032754 0.014505626 9.178976318
5.107679682 0.037813329 -0.005305941 0.050273471 7.029251316 0.125503942 -0.007489553 0.154850252 9.256224046
5.148341852 -0.096685968 0.007642009 -0.132254484 7.005486202 0.083200503 0.015893392 0.099212893 9.223792148
5.180901868 -0.031672352 0.004611274 -0.044035645 7.064862221 -0.083983908 0.010371147 -0.120664561 8.996963653
5.055126718 0.007416322 -0.014328567 0.009034504 6.984408011 -0.041818269 -0.023549518 -0.065097384 9.299136214
5.095952762 0.072432021 0.064722781 0.097254487 7.089521422 -0.043451635 0.117386171 -0.067349890 9.170311234
5.054373427 0.016324257 0.000726040 0.021123000 6.993380115 -0.105943770 0.003293796 -0.149416012 9.221183147
5.052558006 0.014882195 -0.000605650 0.019166446 6.993970987 -0.094616808 0.000919838 -0.134524931 9.231376882
5.057891638 0.005089879 -0.018139194 0.005876887 6.981769673 -0.028579332 -0.030342932 -0.047688749 9.314388452
5.183641717 -0.031774452 0.004203904 -0.044174755 7.065032721 -0.088214382 0.009645600 -0.126227254 8.995570361
5.078550065 -0.119360212 -0.060778195 -0.163009912 7.087791264 -0.000516986 -0.106168558 -0.011006815 9.246013016
5.068742298 0.017658637 0.002753245 0.022930867 6.997890287 -0.135042240 0.006913979 -0.187680603 9.197781423
5.135248734 0.053089530 0.066741075 0.070998129 7.169322448 -0.068262231 0.121041097 -0.100094036 9.169693349
5.110871345 0.046012214 0.007433440 0.061398960 7.056924665 0.112132662 0.015225807 0.137236108 9.233370388
5.169510834 -0.084506234 0.001705429 -0.115730523 7.051404325 -0.156686601 0.005285645 -0.216257737 9.026164932
5.110957474 -0.119703665 -0.014048379 -0.163482590 7.089918069 -0.053490080 -0.022777384 -0.080647398 9.122553717
5.153688917 -0.075199009 -0.014052711 -0.103097111 7.069266284 0.020588817 -0.022855396 0.016800500 9.314689695
5.125744974 -0.000858760 0.007992219 -0.002209420 7.025073756 -0.175974737 0.016320881 -0.241544702 9.146054421
5.105763619 -0.028974962 -0.045792720 -0.040359898 6.970150671 0.064939744 -0.079597456 0.075267387 9.388878522
5.165490716 -0.090646155 0.011896183 -0.124061765 7.065079067 -0.123890309 0.023478905 -0.173156178 9.005357777
5.114283824 -0.035226463 -0.045273641 -0.048845113 6.971844643 0.071615834 -0.078655585 0.084040395 9.389110885
5.147824066 -0.054844531 0.029329455 -0.075474264 7.027487146 0.024490262 0.054506703 0.022010467 9.301987608
5.127856022 -0.055536119 -0.042217792 -0.076408703 6.948445791 0.119516997 -0.073157839 0.147048164 9.349328687
5.111094382 0.045934402 0.014227817 0.061293321 7.066134662 0.103606633 0.027348890 0.126014401 9.217399398
5.077126584 -0.004788778 -0.037377750 -0.007532672 6.980086166 0.024975380 -0.064642108 0.022719172 9.364778845
5.116783949 -0.032648384 0.019532772 -0.045347090 7.122555257 0.016794566 0.036970929 0.011760673 9.085438190
5.141787661 -0.008663452 0.045287073 -0.012803893 7.230457797 -0.065669492 0.082885850 -0.096804117 9.155866549
5.059315662 0.004147608 -0.019651308 0.004597907 6.981385251 -0.023328491 -0.033038491 -0.040785085 9.319794356
5.061548144 -0.002480192 0.008616714 -0.004396677 6.927587437 0.010765260 0.017412529 0.004124738 9.159221684
5.065415110 0.001107316 -0.025515103 0.000470894 6.982204606 -0.004762475 -0.043492519 -0.016378165 9.336982860
5.185373661 -0.072121825 -0.002792705 -0.098927731 7.091143520 -0.109242941 -0.002758094 -0.153931820 9.039341775
5.197471987 -0.030910524 0.002032064 -0.043005195 7.075942878 -0.109715098 0.005774362 -0.154512775 8.991275113
5.134534170 -0.005646492 0.013943484 -0.008708309 7.211828352 -0.053982761 0.026952339 -0.081418423 9.123277174
5.138320034 0.000112459 0.053284873 -0.000894007 7.225242120 -0.070238305 0.097137255 -0.102798050 9.161678917
5.128152234 -0.043008876 -0.035726006 -0.059408911 6.955614610 0.138304552 -0.061599394 0.171746733 9.329502615
5.111083258 0.046388892 0.012070784 0.061910081 7.063408010 0.106410035 0.023499315 0.129703911 9.222990341
5.141109043 -0.054256494 -0.041763645 -0.074674913 6.982920232 0.088600313 -0.072344719 0.106349126 9.382619091
5.106978853 0.000124714 0.000135424 -0.000870993 6.931878582 0.000042391 0.002292954 -0.009981303 9.113783311
5.094053904 0.012192549 0.005376158 0.015508062 7.011849948 -0.157808585 0.011614809 -0.217635866 9.173571228
5.091358691 -0.017484047 -0.044852326 -0.024763440 6.971231970 0.050280752 -0.077947928 0.055996807 9.383905198
5.165641959 -0.090812650 0.013886178 -0.124287735 7.067334827 -0.118325554 0.027029932 -0.165842349 9.003278373
5.089441017 -0.015812027 -0.044403447 -0.022494066 6.971926142 0.047753428 -0.077151073 0.052673626 9.382511449
5.077938245 0.003039092 0.005049483 0.003089823 6.928502917 0.001502829 0.011043451 -0.008053722 9.131992113
5.194000383 -0.041310736 -0.004044897 -0.057117895 7.078556503 -0.118881476 -0.005049388 -0.166574463 9.001656300
5.136880886 -0.008690819 0.055405812 -0.012840032 6.995748840 0.037986629 0.100938252 0.039827175 9.253364737
5.141960838 -0.046072039 0.042319940 -0.063568530 7.012946132 0.026067210 0.077665330 0.024111919 9.297548305
5.081478946 0.015593543 0.004031997 0.020125877 7.004924701 -0.148233003 0.009204761 -0.205034703 9.184975216
5.149206580 -0.018822970 0.060483012 -0.026592182 7.009808643 0.034375909 0.110022084 0.035056677 9.274484746
5.080150409 0.028811992 -0.044365098 0.038063988 7.132012038 -0.007438333 -0.077174063 -0.020107269 9.074952333
5.069044788 -0.003637943 0.010364583 -0.005969307 6.936691716 0.015446936 0.020536444 0.010267101 9.170338594
5.114616158 0.011779729 0.030211662 0.014943665 7.109503313 0.069785069 0.055936525 0.081473036 9.150350695
5.079924254 -0.003008078 0.014079038 -0.005116777 6.948971614 0.020913869 0.027167077 0.017438580 9.185593031
5.145470560 -0.012657283 0.058761649 -0.018224396 7.004743621 0.037033437 0.106937134 0.038560186 9.261910666
5.141488897 -0.007954091 0.046569515 -0.011841208 7.230374338 -0.066221670 0.085172528 -0.097529381 9.156875243
5.081347408 0.030572150 -0.045203861 0.040452333 7.128114684 -0.004626938 -0.078673601 -0.016404677 9.073348066
5.168133719 -0.092115376 -0.026209543 -0.126056082 6.992352158 0.106466194 -0.044507131 0.129814786 9.340679192
5.166138711 -0.088187103 0.005177910 -0.120724889 7.056338822 -0.142943018 0.011487283 -0.198195144 9.015534139
5.163578343 -0.082269227 0.020579072 -0.112693627 7.081261583 -0.078079545 0.038954086 -0.112941189 9.005974438
5.065746573 0.002093193 0.006697325 0.001808692 6.924047787 0.003467496 0.013980567 -0.005464034 9.140269226
5.136455915 0.051272556 0.066287067 0.068532194 7.172812087 -0.069184668 0.120235090 -0.101312775 9.169988117
5.139050777 0.030429353 0.060452891 0.040246800 7.199824220 -0.075031145 0.109867483 -0.109048860 9.168845434
5.141417932 -0.088276693 0.026651070 -0.120841430 7.019045833 0.060513116 0.049790926 0.069371983 9.142103275
5.140183854 -0.050145746 0.017543523 -0.069096313 7.123362890 -0.013821782 0.033465401 -0.028502922 9.057181587
5.114037102 0.030450230 0.027003571 0.040280225 7.089358726 0.084900011 0.050175583 0.101382210 9.174756187
5.107263107 0.000063925 0.000074104 -0.000953543 6.931651412 0.000028206 0.002183779 -0.009999666 9.113541762
5.055574665 0.006966766 -0.015099069 0.008424352 6.983703103 -0.039171866 -0.024923221 -0.061617216 9.302376408
5.131295582 -0.051231692 -0.036801377 -0.070568165 6.946213828 0.093466197 -0.063500700 0.112802563 9.336504603
5.099891492 0.001605900 0.029576950 0.001140465 6.968101653 0.031503123 0.054818119 0.031339805 9.224068158
5.074722554 0.049289202 0.045653731 0.065853296 7.006878618 -0.002338317 0.083399244 -0.013188168 9.207366677
5.105321562 0.002395926 0.012166452 0.002211449 6.953021663 0.032831029 0.023754138 0.033103247 9.252057695
5.130965074 -0.026097661 -0.009497811 -0.036460446 6.947252461 0.056461276 -0.014833943 0.064163791 9.287905069
5.173189771 -0.040116313 0.001294271 -0.055492787 7.046954951 -0.191961205 0.004466293 -0.262613204 9.097186796
5.121274127 -0.118627723 -0.011292559 -0.162024606 7.091378947 -0.060255341 -0.017858292 -0.089543417 9.110985023
5.107863203 -0.019314352 0.022140850 -0.027250581 7.120411766 0.034286875 0.041594598 0.034768998 9.107711922
5.074871396 0.050891763 0.046809339 0.068027990 7.010660135 -0.004062353 0.085458043 -0.015459481 9.205607336
5.198328694 -0.032204779 -0.000405938 -0.044761714 7.079680564 -0.115602817 0.001427255 -0.162260627 8.992388357
5.156755645 -0.067150848 -0.038847090 -0.092176134 6.989972427 0.097967430 -0.067109246 0.118650557 9.374531549
5.052264308 0.013083519 -0.003128385 0.016725648 6.994241448 -0.081221574 -0.003577925 -0.116914450 9.246207690
5.108773906 -0.006054104 0.026545405 -0.009256204 7.119623063 0.050772248 0.049427716 0.056451878 9.128356997
5.079309806 -0.120603193 -0.032147252 -0.164696831 7.089362114 -0.033197189 -0.055081170 -0.053970380 9.160321613
5.126294265 -0.047933391 -0.038371894 -0.066091250 6.949483505 0.133065167 -0.066311379 0.164864097 9.336469430
5.107858606 -0.009335203 0.025414707 -0.013708569 7.120081388 0.046793847 0.047416353 0.051218728 9.123632364
5.087631168 -0.014196687 -0.043864016 -0.020301632 6.972738792 0.045170420 -0.076192496 0.049277062 9.380944760
5.132685226 -0.030254769 -0.013975025 -0.042102120 6.945032873 0.061237882 -0.022813535 0.070444496 9.294959552
5.131699512 -0.045456076 -0.031566519 -0.062730558 6.942048033 0.083284485 -0.054171612 0.099425234 9.325173144
5.091013242 0.016823711 0.021349961 0.021793310 6.957906830 0.023243287 0.040105679 0.020498307 9.238049461
5.148302370 -0.015535433 0.059989209 -0.022130710 7.008182614 0.035857951 0.109134195 0.037008832 9.268108928
5.107535020 -0.010957001 0.024846437 -0.015909333 7.120197903 0.044791854 0.046405476 0.048585504 9.121188311
5.126485678 0.061463571 0.068265906 0.082363745 7.149174653 -0.062781862 0.123741797 -0.092855415 9.167860485
5.142002224 -0.092895715 0.022132210 -0.127109703 7.010970420 0.068486310 0.041737479 0.079863895 9.166946700
5.111225935 0.043641681 0.018379101 0.058182002 7.071618610 0.098000334 0.034760358 0.118635399 9.205167569
5.176378784 -0.089524988 -0.003397968 -0.122542525 7.105718374 -0.098204556 -0.003807449 -0.139446625 9.059807740
5.158520411 -0.021945381 0.004674733 -0.030831287 7.035390108 -0.190463346 0.010456271 -0.260618851 9.117649823
5.127402339 -0.055106949 -0.042075157 -0.075826214 6.947965035 0.120699139 -0.072904368 0.148603371 9.348715027
5.173054840 -0.031833991 0.006668600 -0.044253395 7.066285398 -0.070165609 0.014039089 -0.102497613 9.003182697
5.149405765 -0.080756586 -0.022519292 -0.110638041 7.072680689 0.019867991 -0.037952659 0.015843305 9.311613312
5.138275014 -0.052207161 -0.042201093 -0.071893328 6.981548695 0.086954184 -0.073130399 0.104187460 9.383690559
5.128618427 -0.002343564 0.008048712 -0.004224930 7.025892345 -0.177407226 0.016425749 -0.243429929 9.143633063
5.109269772 0.041722370 -0.001019155 0.055577836 7.040606876 0.121466566 0.000152087 0.149528118 9.248861401
5.166828393 -0.086951719 -0.030925331 -0.119048575 6.990161300 0.106518118 -0.052931927 0.129887039 9.353414097
5.123170343 -0.015714820 -0.000225276 -0.022369025 6.950539911 0.046490712 0.001687005 0.051056224 9.272891892
5.059504714 -0.001168420 0.008051675 -0.002616146 6.924182077 0.008240173 0.016400962 0.000810018 9.153341076
5.054364082 0.008310170 -0.012718818 0.010247640 6.986063055 -0.047279991 -0.020679394 -0.072280150 9.292174275
5.121053427 -0.009124945 -0.024758014 -0.013425931 6.980145846 0.143809673 -0.042099231 0.178965974 9.304298007
5.141730123 -0.010457218 0.036021702 -0.015238078 7.227338499 -0.062382596 0.066357652 -0.092481138 9.147445994
5.143263970 -0.032703868 0.055163409 -0.045427777 7.007468382 0.029116089 0.100555493 0.028137373 9.290838505
5.100835160 0.001714221 0.031001700 0.001287268 6.968627911 0.032084055 0.057360390 0.032103287 9.226346323
5.137674504 -0.070918556 0.029065898 -0.097285143 7.032059501 0.036346673 0.054063961 0.037586324 9.087549260
5.098039040 0.072343343 0.065333989 0.097133723 7.093843411 -0.045156213 0.118477730 -0.069597227 9.169431951
5.136624760 0.012410894 0.056793596 0.015795692 7.214971765 -0.073776623 0.103372832 -0.107429540 9.164698585
5.153125942 -0.063717645 -0.039665680 -0.087516432 6.988551215 0.095657361 -0.068578017 0.115616458 9.376894068
5.139690826 -0.079206783 0.029652376 -0.108532931 7.028703856 0.048095842 0.055127477 0.053036011 9.109926019
5.116995671 0.066910930 0.068330362 0.089757911 7.130521318 -0.057422941 0.123842285 -0.085780205 9.166865006
5.195838383 -0.037273854 -0.003096643 -0.051640097 7.079442649 -0.118562691 -0.003364664 -0.166154729 8.997303602
5.111157971 0.044394176 0.017363978 0.059203174 7.070196660 0.099393349 0.032947625 0.120469048 9.208327996
5.105644965 0.001007621 0.037908556 0.000327411 6.970855644 0.034491400 0.069687240 0.035266844 9.235312089
5.120105500 -0.003691213 0.048261351 -0.006051996 6.980720934 0.037223422 0.088174212 0.038845553 9.244838694
5.096729549 0.039887936 -0.047296608 0.053091007 7.113038928 0.005155760 -0.082419702 -0.003517218 9.069844053
5.101491927 0.015448262 -0.031204889 0.019924650 7.168116347 -0.027546802 -0.053658183 -0.046600327 9.094126703
5.171098952 -0.082985512 0.001102867 -0.113667180 7.050755683 -0.160707067 0.004208176 -0.221542522 9.030097615
5.131472534 -0.047462310 -0.033483883 -0.065453033 6.943279977 0.086627557 -0.057588809 0.103817657 9.329113360
5.137185651 -0.063713535 0.026256198 -0.087507608 7.032601159 0.023224514 0.049036411 0.020334453 9.071372169
5.168487860 -0.093728985 -0.023981803 -0.128245871 6.994146475 0.105920729 -0.040528982 0.129094951 9.334324470
5.107544789 0.000007350 0.000012062 -0.001030375 6.931311678 0.000007943 0.002073305 -0.010025856 9.113280031
5.063369943 -0.124475767 -0.056371214 -0.169948786 7.077290307 -0.007906630 -0.098301467 -0.020708507 9.220529100
5.163421348 -0.076265984 -0.036214587 -0.104547011 6.991101658 0.103138405 -0.062391626 0.125444848 9.367169886
5.198097598 -0.032761646 -0.000879542 -0.045517353 7.079892832 -0.116306675 0.000583231 -0.163186729 8.992889738
5.183326263 -0.078079002 -0.002569842 -0.107011386 7.096786453 -0.105955756 -0.002349569 -0.149620279 9.046660368
5.127374341 -0.045187625 -0.036835854 -0.062365381 6.952845027 0.136263988 -0.063575667 0.169066605 9.332307125
5.119665230 -0.006493085 -0.023990513 -0.009854133 6.981177796 0.143217889 -0.040735549 0.178187654 9.302410878
5.061287296 -0.124985661 -0.053866485 -0.170640304 7.076693943 -0.011271561 -0.093832249 -0.025131443 9.210086393
5.156939893 -0.105025444 -0.006489284 -0.143573160 7.106113830 -0.083818664 -0.009300469 -0.120539445 9.077655291
5.185929620 -0.070101498 -0.002946978 -0.096186199 7.089286616 -0.110255846 -0.003037102 -0.155260145 9.036815650
5.107231750 -0.014170693 0.023741507 -0.020270350 7.120298581 0.040776801 0.044440203 0.043304715 9.116148517
5.066806650 -0.122868432 -0.043086096 -0.167768283 7.083895889 -0.023166852 -0.074599328 -0.040778254 9.180266942
5.096626371 0.000845886 0.025347379 0.000109768 6.965792900 0.029524497 0.047271706 0.028740181 9.216241873
5.088529903 -0.001376381 0.018539798 -0.002904267 6.958184337 0.025162404 0.035126421 0.023013132 9.199744591
5.088320144 0.002747693 0.003502823 0.002692271 6.931675045 0.000693439 0.008288574 -0.009123045 9.126064650
5.137879709 -0.093467127 -0.041144753 -0.127884287 7.083708512 0.016963032 -0.071164715 0.011997759 9.296959619
5.130207094 -0.056751452 -0.042163348 -0.078058427 6.950616252 0.112313871 -0.073057365 0.137573762 9.349999990
5.190257400 -0.031721848 0.003549505 -0.044104717 7.067803572 -0.097804977 0.008480545 -0.138841288 8.993044356
5.139240199 -0.058471383 0.023067772 -0.080394265 7.034483071 0.010919699 0.043338000 0.004154408 9.061023797
5.167520339 -0.086478356 0.003105400 -0.118406348 7.053329419 -0.150205174 0.007786612 -0.207739056 9.020702912
5.129310604 -0.037241969 -0.033254358 -0.051583276 6.962253549 0.142096412 -0.057200232 0.176725695 9.323659281
5.186366148 -0.031827947 0.003901686 -0.044247904 7.065740860 -0.092228684 0.009107569 -0.131506451 8.994416501
5.165661339 -0.089620671 0.018716937 -0.122670187 7.072812821 -0.101776310 0.035646860 -0.144089294 9.000103508
5.081609890 -0.008647008 -0.040987123 -0.012769321 6.976578129 0.034820935 -0.071072735 0.035666830 9.373431606
5.089579889 -0.115612085 -0.061739614 -0.157925837 7.094524710 0.002673545 -0.107886900 -0.006820356 9.256386852
5.129220152 -0.031902398 -0.031396205 -0.044337297 6.967246547 0.144093466 -0.053895358 0.179346866 9.319477756
5.109647051 -0.108754380 -0.060199578 -0.148623808 7.100530633 0.008066519 -0.105144512 0.000264882 9.270864824
5.168647417 -0.095048279 -0.021602375 -0.130036226 6.996348380 0.105067724 -0.036280841 0.127970325 9.327269017
5.147025977 -0.055705519 0.016995144 -0.076642489 7.119154711 -0.025100460 0.032500632 -0.043328596 9.048527472
5.145432520 -0.054320718 0.017100469 -0.074762947 7.120469291 -0.022279541 0.032685197 -0.039620926 9.050693260
5.131342652 -0.049406167 -0.035230371 -0.068090881 6.944715123 0.090029930 -0.060701206 0.108287827 9.332906112
5.090729091 0.002565475 0.003116866 0.002444505 6.932233650 0.000566802 0.007601257 -0.009290535 9.124665346
5.082143344 0.024709066 -0.041358819 0.032495786 7.142767891 -0.014697668 -0.071801261 -0.029668376 9.080401511
5.163933412 -0.027397321 0.003367930 -0.038230840 7.038948660 -0.191823156 0.008137500 -0.262414442 9.111491119
5.161474871 -0.075932219 0.019393614 -0.104093685 7.089074947 -0.065349333 0.036825640 -0.096212388 9.014737033
5.078676420 0.016189789 0.003741981 0.020935572 7.003336182 -0.145734805 0.008685004 -0.201747570 9.187628532
5.156401252 -0.041430818 0.014227630 -0.057273192 7.058394331 -0.032318115 0.027538423 -0.052725517 9.030428838
5.173660861 -0.080278056 0.000617901 -0.109993601 7.050672748 -0.166332223 0.003338587 -0.228937491 9.036513675
5.165841667 -0.088685170 0.006002555 -0.121400720 7.057512497 -0.140381783 0.012959512 -0.194829270 9.013897600
5.108423352 -0.119800703 -0.014944157 -0.163613757 7.089845290 -0.051862545 -0.024376500 -0.078507663 9.125463253
5.197382056 -0.034218504 -0.001820492 -0.047494207 7.079979048 -0.117464593 -0.001093080 -0.164710140 8.994249735
5.105537718 0.029110752 -0.011526784 0.038464243 7.009278175 0.130653269 -0.018572826 0.161644430 9.268704038
5.141215756 -0.042696362 0.046231135 -0.058987480 7.009965994 0.026710971 0.084636932 0.024965064 9.296141160
5.137282178 0.020414280 0.058289526 0.026656399 7.208376487 -0.074943362 0.106026478 -0.108950423 9.166494431
5.161797638 -0.073360041 -0.037162510 -0.100603226 6.991167669 0.101674825 -0.064089314 0.123521327 9.369751186
5.144028420 -0.031101130 0.056246946 -0.043252967 7.007702615 0.029597744 0.102485946 0.028771254 9.289653292
5.130325713 -0.001600001 0.001197232 -0.003216239 7.203734144 -0.047384925 0.004200249 -0.072733551 9.112068449
5.168119383 -0.085857269 0.002569999 -0.117563636 7.052564210 -0.152427854 0.006830346 -0.210660258 9.022470162
5.174516580 -0.079232636 0.000543318 -0.108575109 7.050844243 -0.168109914 0.003203801 -0.231274677 9.038804999
5.150506911 -0.096841442 0.005343521 -0.132465908 7.006404254 0.085105576 0.011793499 0.101715707 9.232089383
5.067578073 -0.123130241 -0.058382482 -0.168123724 7.079990095 -0.004898344 -0.101891017 -0.016757071 9.230668779
5.129035419 -0.022970748 -0.006437823 -0.032216737 6.948570809 0.053199314 -0.009381092 0.059875077 9.283036901
5.110596909 0.045220433 0.004987998 0.060324545 7.052916909 0.114987277 0.010863983 0.140994233 9.238179591
5.129220706 -0.116892821 -0.009903025 -0.159671908 7.093912388 -0.065556301 -0.015379240 -0.096515806 9.102555346
5.137951667 0.024481547 0.059099211 0.032175669 7.205005399 -0.075178325 0.107463432 -0.109252627 9.167457513
5.052924915 0.011029261 -0.007174917 0.013937822 6.991952567 -0.065883032 -0.010793633 -0.096745681 9.266668673
5.115360725 0.021388095 0.029554521 0.027982361 7.099797662 0.078013961 0.054745444 0.092310250 9.161982544
5.103063726 -0.026931135 -0.045836410 -0.037585813 6.969914550 0.062593409 -0.079680510 0.072183538 9.388471003
5.132590871 -0.003902251 0.008364625 -0.006340924 7.208145547 -0.051214295 0.016994075 -0.077773860 9.117800662
5.139762938 -0.003972865 0.050885211 -0.006438211 7.228329851 -0.068497619 0.092864274 -0.100516121 9.160013283
5.053788023 0.009163981 -0.011073805 0.011406404 6.987889420 -0.052787914 -0.017746195 -0.079523918 9.284843134
5.123077994 -0.041481400 -0.044327462 -0.057335046 6.974778917 0.077669510 -0.076951545 0.091993360 9.387994545
5.082929498 0.068143301 0.058728509 0.091437216 7.057211311 -0.028238438 0.106694112 -0.047303876 9.181936562
5.136681459 0.014377637 0.057168207 0.018464611 7.213341176 -0.074146120 0.104037390 -0.107912109 9.165128798
5.075138808 -0.003377170 -0.035412417 -0.005616672 6.981374782 0.020154515 -0.061139044 0.016379847 9.360211070
5.141076357 -0.085914373 0.027930013 -0.117635619 7.022283782 0.057096320 0.052068094 0.064876127 9.132463860
5.164478055 -0.100177009 -0.005398653 -0.136995220 7.107894142 -0.088929620 -0.007361014 -0.127259752 9.071554331
5.134325015 -0.045917198 0.018071992 -0.063356850 7.124691970 -0.005473710 0.034397657 -0.017526829 9.063828339
5.105522472 0.027569866 -0.012329628 0.036373217 7.006589491 0.131343958 -0.020002275 0.162555619 9.270645805
5.107321334 -0.012568311 0.024286322 -0.018095887 7.120263991 0.042785326 0.045409173 0.045946396 9.118692273
5.171940357 -0.082147140 0.000890849 -0.112529655 7.050617036 -0.162633501 0.003828574 -0.224074948 9.032163374
5.162057587 -0.101837710 -0.005766011 -0.139248349 7.107495369 -0.087256745 -0.008014181 -0.125060417 9.073539353
5.165709911 -0.090795762 0.014836374 -0.124264832 7.068376501 -0.115543242 0.028725311 -0.162185367 9.002412171
5.186445158 -0.068064601 -0.003130547 -0.093422171 7.087495342 -0.111227590 -0.003368430 -0.156534449 9.034256550
5.128216685 -0.100556674 -0.051691624 -0.137503052 7.093841971 0.013687864 -0.089972877 0.007671172 9.285338601
5.140246151 -0.005133611 0.049928825 -0.008013477 7.229084180 -0.067919512 0.091160322 -0.099757832 9.159345791
5.061072144 -0.124978677 -0.052910877 -0.170630783 7.076953389 -0.012473074 -0.092127310 -0.026711328 9.206601267
5.052207732 0.013789986 -0.002006334 0.017684357 6.994306342 -0.086484812 -0.001577322 -0.123834150 9.239977371
5.152696736 -0.017119094 0.005938567 -0.024280682 7.032581278 -0.188404826 0.012699437 -0.257905933 9.123335460
5.080736223 0.065862644 0.057001036 0.088342741 7.049537137 -0.024101145 0.103615476 -0.041854362 9.185810281
5.152525840 -0.044926511 0.015852068 -0.062016165 7.053053635 -0.023416525 0.030442133 -0.041014798 9.036948317
5.185010145 -0.031810972 0.004042056 -0.044224593 7.065316889 -0.090249727 0.009357445 -0.128903827 8.994966649
5.052215504 0.013434397 -0.002549778 0.017201810 6.994311011 -0.083839278 -0.002546258 -0.120356054 9.243044813
5.119865863 0.006781702 -0.018556297 0.008160119 7.188079099 -0.036238061 -0.031065574 -0.058056732 9.102552011
5.147342426 -0.049697020 0.018068130 -0.068488836 7.045368262 -0.011500937 0.034403423 -0.025338184 9.045322591
5.128636758 0.000182413 -0.003976044 -0.000797105 7.200513636 -0.044518077 -0.005034327 -0.068960180 9.108927924
5.061782477 -0.124519959 -0.049667073 -0.170008432 7.078840940 -0.016293180 -0.086340182 -0.031735746 9.196309116
5.142144143 -0.009725827 0.042486507 -0.014245642 7.230090325 -0.064580014 0.077891183 -0.095372299 9.153526839
5.130179207 -0.043028500 0.018419036 -0.059435954 7.124809420 -0.000030866 0.035009529 -0.010369406 9.068453868
5.137049336 -0.065965144 0.027373127 -0.090563084 7.032453791 0.027777118 0.051033656 0.026319900 9.076150606
5.113258688 0.033768235 0.025574539 0.044783018 7.085321301 0.087462942 0.047619006 0.104758788 9.180354413
5.128948581 -0.029931850 -0.030774605 -0.041663147 6.968835875 0.144555375 -0.052790251 0.179952847 9.318096615
5.108276852 -0.007701366 0.025983619 -0.011491488 7.119895696 0.048788382 0.048428390 0.053842252 9.126022060
5.160795251 -0.071884179 -0.037597554 -0.098600231 6.991056999 0.100859122 -0.064868843 0.122449464 9.370963849
5.161955941 -0.077252711 0.019689104 -0.105885731 7.087279874 -0.067893676 0.037355655 -0.099555582 9.012739459
5.167657061 -0.090227881 -0.028250291 -0.123494596 6.991071128 0.106705993 -0.048152228 0.130132144 9.346301320
5.114187702 0.009860577 0.030101481 0.012339404 7.111176143 0.067975619 0.055743534 0.079090719 9.148110019
5.138295334 0.047547558 0.065277569 0.063476883 7.179225113 -0.070848266 0.118441956 -0.103511152 9.170405212
5.127670468 -0.005877647 0.051708986 -0.009020596 6.987138535 0.037820874 0.094332977 0.039621845 9.248241711
5.140316850 -0.113152013 -0.008493402 -0.154597778 7.098878858 -0.072922623 -0.012867018 -0.106206477 9.091772782
5.129530801 -0.056600920 -0.042357115 -0.077854012 6.950121333 0.114849798 -0.073403660 0.140908765 9.350347346
5.064454815 0.001511003 -0.024597536 0.001018905 6.981983327 -0.007429953 -0.041856533 -0.019884679 9.334601082
5.052253374 0.014150308 -0.001500260 0.018173315 6.994238758 -0.089161380 -0.000675050 -0.127352967 9.237009702
5.127357192 -0.023521570 -0.028875627 -0.032963877 6.973233606 0.145276644 -0.049415244 0.180897898 9.313872112
5.137392359 -0.062633497 0.025651499 -0.086042006 7.032755233 0.020873213 0.047955441 0.017242973 9.069157449
5.098959486 0.001608893 0.001702519 0.001144717 6.933327204 0.000258095 0.005082900 -0.009698775 9.119571290
5.053564385 0.009565024 -0.010264495 0.011950678 6.988796010 -0.055483297 -0.016303065 -0.083068786 9.281164574
5.114915112 -0.106768125 -0.058770575 -0.145929471 7.100161081 0.009559286 -0.102596605 0.002229311 9.274490915
5.108251662 0.016041831 -0.016998339 0.020728764 6.992817885 0.135983594 -0.028308655 0.168669950 9.283405291
5.136750207 0.008594504 0.055993427 0.010616708 7.218164432 -0.072909338 0.101952683 -0.106295589 9.163862775
5.140610687 -0.083334327 0.028873624 -0.114134323 7.025208376 0.053573089 0.053746472 0.060240778 9.123132018
5.140957046 -0.010195453 0.032422114 -0.014882697 7.225116506 -0.061211291 0.059934278 -0.090938730 9.143715140
5.110339969 0.006263662 0.007024182 0.007459063 7.019602105 -0.167823896 0.014573480 -0.230817322 9.159291676
5.138107623 -0.060534948 0.024380850 -0.083194356 7.033353374 0.016009285 0.045684454 0.010847437 9.064982104
5.141979717 -0.010440455 0.037736800 -0.015215381 7.228257819 -0.062943460 0.069417875 -0.093219436 9.149144318
5.111091114 0.046216995 0.013154881 0.061676810 7.064786086 0.105011766 0.025433951 0.127863671 9.220246971
5.151040919 -0.061923983 -0.040076495 -0.085081954 6.987640019 0.094392659 -0.069315373 0.113955536 9.378068178
5.126020581 -0.048746976 -0.038843194 -0.067195254 6.948621951 0.131977466 -0.067150804 0.163434765 9.337827026
5.151658145 -0.077918004 -0.018301230 -0.106786457 7.070998524 0.020250458 -0.030431271 0.016350883 9.313477052
5.106021265 0.000330676 0.000337166 -0.000591302 6.932392726 0.000077413 0.002652123 -0.009935864 9.114551675
5.125622685 -0.050980446 -0.040117101 -0.070226061 6.946937687 0.128669168 -0.069419540 0.159086162 9.341730950
5.114404770 0.028703095 0.027643608 0.037909235 7.091437972 0.083587884 0.051321148 0.099653463 9.172058375
5.148532529 -0.014127571 0.006679708 -0.020220245 7.031090855 -0.186697164 0.014014264 -0.255657113 9.127033061
5.168376077 -0.096476881 -0.017840419 -0.131974828 7.000058143 0.103238145 -0.029565889 0.125559827 9.315516108
5.112488482 0.004188755 0.029338266 0.004642913 7.115400742 0.062290883 0.054392233 0.071607738 9.141451363
5.118502935 -0.034206364 0.019353525 -0.047461666 7.122985011 0.014544269 0.036654860 0.008800650 9.082867413
5.088906386 0.019110068 0.022883606 0.024896397 6.959328781 0.021733887 0.042836741 0.018512992 9.235943350
5.126987096 -0.046160020 -0.037365335 -0.063684872 6.951609803 0.135214031 -0.064518636 0.167687360 9.333700918
5.141550407 -0.089357812 0.025890752 -0.122308567 7.017370351 0.062177699 0.048436509 0.071562391 9.147009024
5.130042712 -0.099457378 -0.050140114 -0.136011645 7.092245830 0.014302450 -0.087206029 0.008482407 9.287222367
5.054053756 0.008743673 -0.011897097 0.010835979 6.986966934 -0.050038393 -0.019214217 -0.075907857 9.288537240
5.080387428 -0.007535009 -0.040137352 -0.011260056 6.977537017 0.032317519 -0.069559211 0.032374584 9.371348395
5.192746251 -0.044467675 -0.004432306 -0.061401703 7.078095656 -0.118666767 -0.005734923 -0.166292864 9.005239587
5.088655165 -0.119947756 -0.025348058 -0.163809286 7.090398032 -0.039393198 -0.042947270 -0.062116409 9.148660074