4.7811011056 1.9144444199 3.1034630172 2.7193875979 1.7407097697 7.5483713473 0.1366548131 5.4146455978 6.0158877744 2.3841583636 5.1134136528 1.4397978798 -0.1214472866 3.5008535862 -0.1082351010 2.4819250149 3.5021264609 4.4593192224 2.6066117237 6.9027709873 4.5320100765 0.0253537015 0.0658656248 0.0360977732 0.1947094378 1.6560603735 6.0619067417 2.3159877161 1.7355490662 1.4800637424 4.8750728762 5.2545330537 3.0243539701 2.8328497450 5.2211311150 7.4109457866 3.9729358142 1.6540942882 5.4372104000 3.8248261061 1.6957371015 1.0077742379 1.1466898126 5.2971844651 3.6341632647 1.3510753681 5.0311954617 7.9115921845 0.0827734586 1.6928167324 7.6540317850 2.1428914345 1.9337667177 3.0218645800 4.8300871752 5.0680127268 1.4178501131 2.8768399336 5.3578671091 5.8464266539 1.0492886746 0.4926385521 5.6031422689 1.6188530033 2.8588368025 0.6970853504 4.0806984938 4.0323144265 3.5092477294 3.6090258779 6.4252427347 7.9624599310 4.1375534146 6.5699540505 3.2951642354 3.5600909057 3.8513631178 7.7222049221 1.0790587478 2.9416075665 5.7505536810 1.6218575097 0.3735701261 1.1724622449
4.7987870634 1.5853344554 3.1078886943 2.6608335549 1.6664758660 7.7141098028 0.0959255625 5.1436572737 5.8365135655 2.1250594563 5.4014463666 1.3466580598 0.1144762863 3.5704350866 -0.0433411564 2.6074243792 3.3596045027 4.6062827452 2.2100427939 7.2024615695 4.5017114779 -0.1605817217 -0.0413915613 0.0516843248 0.1215718960 1.7425684147 6.2656195024 2.1931691546 1.6423252238 1.6363101889 4.6450393062 5.3668435066 2.9237545784 2.5975129406 5.0381348389 7.4645252149 3.7284724871 1.5606695126 5.6996396266 3.6523053775 1.6097170576 1.0636504209 1.0361103336 5.6112248319 3.4313350430 1.1476802434 4.9524812257 8.0256829217 0.2017478929 1.8684796496 7.8053318365 2.2111009663 1.6430433442 3.1611595240 4.5213826712 5.2500452819 1.3409907384 2.5883956739 4.9816357350 5.9272531035 0.8387667164 0.4014977577 5.9430357737 1.5308473543 2.9708444505 1.1670796663 4.0593225602 4.0748833913 3.5775531363 3.3131776826 6.4019292374 7.9164440702 3.7806553520 6.6302995780 3.3701834334 3.4596668555 3.8904167558 8.0836652556 0.8467312389 2.9173299025 5.4632161809 1.3294624783 0.4586521617 1.1077558651
4.9467641634 1.5948406885 3.4804107228 2.8244847548 1.6763430382 7.8360284560 0.1442232396 5.2456201164 6.2130245539 2.3035033603 5.4586042414 1.2535306697 0.2123134739 3.4846586496 0.1757766629 2.6200315604 3.6899053857 4.6237651651 2.4032977769 7.0099982585 4.6295521142 -0.1784913334 0.1156215082 0.0626172122 0.2370665326 1.8456720729 6.2871357994 2.3198409219 1.8623267927 1.6548111116 4.7705971344 5.2672692540 3.0839201609 2.8562264153 5.3812530880 7.7679166129 3.8756711106 1.8864308954 5.7823200460 3.7404110690 1.8677826857 1.0105933477 1.1490926772 5.1529143085 3.6327510748 1.4604744811 5.3236599894 8.4128221811 0.2659479703 2.0518745921 7.8163003226 2.3396666977 1.5271368889 3.1893936720 4.6364052200 5.4869295306 1.4907434076 2.7972975775 5.2228540190 6.1984842314 1.0292864014 0.5973115843 5.9046287154 1.5726267771 3.1773592300 1.5760007460 4.0549242482 3.9681881200 3.5045794432 3.6140801582 6.6697224164 8.1648258191 4.0639866311 6.4355800564 3.8412052698 3.6981075618 4.2103934737 8.3364610744 0.9818719552 3.1518759882 5.6402497416 1.6078429719 0.6624737512 1.0240304223
4.9412303363 1.7615885020 3.0881575341 2.7344261952 1.8144936359 7.8635645052 0.4087913010 5.1947558284 5.9524266146 2.4239643342 5.3992110856 1.6266130463 0.0872921052 3.6733945773 -0.0754715907 2.7571043412 3.2851835296 4.6664397256 2.6695059227 6.9249079238 4.6004599365 -0.0995764249 0.1162353584 0.0997328779 0.3163868682 1.7053328719 6.2005688905 2.3167971474 1.7714973910 1.5514191093 4.9571007148 5.3536592416 3.0813912619 2.8902708033 5.3427967585 7.6249471394 3.9055713667 1.8281819355 5.7178094030 3.7963342292 1.7253645675 1.0701558925 1.2736459050 5.3969861403 3.6908184020 1.3940550382 5.2606447211 8.1396650142 0.2437263814 1.6412174363 7.7759588854 2.2514506564 1.8782631539 3.0888723737 4.9802028649 5.1003416884 1.5049234955 2.9588426317 5.3779917617 6.0260949278 0.9680955147 0.4279644070 5.5189784138 1.6144577805 2.9540830017 0.7366183409 4.1965287240 4.1639747664 3.7508513379 3.5013828528 6.6056406615 8.3648391542 4.1030036303 6.6592991399 3.3339912995 3.7210095023 4.0613126377 7.9767788506 1.1071693599 2.9729416244 5.8655957219 1.5462883331 0.4507809951 1.1237985391
4.9434754293 1.7495386817 3.0389957546 2.7919363589 1.5775621383 7.8632986783 0.1698555850 5.0022917451 5.7823126395 2.3384597186 5.2030924211 1.3681362422 -0.0099182791 3.4399160384 -0.1328558711 2.4731175535 3.6482957995 4.4682263992 2.6480449490 7.0175340860 4.4253249083 0.0344685446 -0.2827540633 0.0745956805 0.2657134791 1.6263810316 6.1425165083 2.3178244405 1.7455949242 1.5965517078 4.8381310403 5.1955685777 2.9329121172 2.7037070880 5.1138557323 7.5548787519 3.8460095907 1.7113889875 5.7461821382 3.7946752752 1.7186785621 1.0866403552 1.2546484137 5.2411448450 3.3953143674 1.1941632323 5.0977198348 8.0948491067 0.3738935190 1.6877832861 7.7492712429 2.3382690549 1.7971097640 3.1868390609 4.8058141024 5.1502714061 1.3514181669 2.7644667458 5.1362971419 5.9782649596 0.9214100625 0.3393757629 5.5789034981 1.5289403137 2.9722345763 1.1341568304 4.1020349159 4.0091182819 3.4982412471 3.5003556970 6.3047723671 8.1426860500 4.2482728643 6.5238065389 3.3728550870 3.3977838657 3.8316207868 8.1404864022 1.0396866546 2.8781445042 5.5900539956 1.5452607302 0.5106201579 1.0430936550
4.9281345773 1.7572802498 3.1507000483 2.7023483604 1.6174747299 7.6832721033 0.1242552142 5.3062626078 6.1974719125 2.4049100754 5.2346806429 1.4293241384 -0.1441867148 3.4885284201 -0.0251287777 2.5996588597 3.4654062633 4.7647447122 2.6441595597 6.8364274598 4.5310468559 0.0393266929 0.1105821713 0.0788198002 0.1824991513 1.6737854975 6.2452828032 2.3207132356 1.8479802345 1.5569802880 4.8725542842 5.1732128571 2.9168839344 2.7633695812 5.1436883217 7.6405357563 3.7702482657 1.7593438219 5.6856179338 3.8291029249 1.8054862664 1.0161976363 1.1701994552 4.9792426978 3.5640848047 1.2832662166 5.1817193096 8.1877312419 0.1958758753 1.7159038717 7.7880313031 2.2470607060 1.7139038088 3.1064315542 4.9620402663 5.2970002937 1.4263128426 2.9016377486 5.3862048532 6.0645166679 1.0019264733 0.4796533483 5.6132317551 1.5580217056 3.0188958500 0.9031503113 3.8764974900 4.0675413596 3.2367000425 3.4791084737 6.2939969602 8.4146347595 4.2853472378 6.5636976946 3.5152868576 3.5399608669 3.8011260333 7.9009192195 0.8858772947 3.0471916287 5.7677542324 1.6496527568 0.5675992997 1.0326843133
4.7651503364 1.8158049924 2.9953860932 2.8229937953 1.8442175547 7.7294932785 0.2530324271 5.4375529368 5.8058248042 2.2424668573 5.1832113682 1.3285891542 0.0246527152 3.5245760777 0.0090960088 2.5303055030 3.6832655793 4.4227257919 2.6528026228 7.3125450304 4.6437167133 0.0367007534 -0.1728858527 -0.0238910504 0.2850630928 1.8379408293 6.1342234423 2.1853678166 1.7681514497 1.6479190903 4.8115386005 5.3691946808 2.8199137492 2.7445976971 5.3211748200 7.4571192001 3.9437122537 1.8558113733 5.4781471705 3.5674823021 1.8805081877 0.9956157188 1.1374709328 5.1462969683 3.4564443279 1.2588434162 5.2968898288 8.0378174398 0.2319363844 1.8842773457 7.7033032208 2.2032911432 1.7115095601 3.2623870246 4.7570593552 5.4780499432 1.3124349836 2.7415234332 5.2479922724 5.8810307933 1.0867966909 0.5509529853 5.7977531590 1.3873816044 2.9918505576 1.2577071645 3.9934967133 4.0184458815 3.0772740274 3.6113784508 6.5692750805 7.7339454335 4.1230280728 6.5041176067 3.5966165630 3.4575054639 4.1003613982 8.1181953517 0.9191230987 3.1263877033 5.4791206813 1.5326092496 0.4673559322 1.1402531486
4.8924555184 1.6889831361 3.1906785105 2.7045119870 2.0137708910 7.8795616174 0.1711039389 5.2129235512 6.1184976697 2.3565406914 5.3798726981 1.5711378292 0.0606647580 3.5942266269 -0.0565547691 2.6496743710 3.3601435049 4.7165041322 2.3960380773 6.7454671282 4.6529053507 -0.1417271746 0.1509948527 0.0703630045 0.1583306289 1.7528096374 6.2110649805 2.3423701140 1.7573721023 1.6404807240 4.9247879175 5.2026442003 3.0856167096 2.7572276980 5.1911792184 7.7566658693 3.7614310035 1.8359489343 5.7933476006 3.8251120844 1.6650652383 1.0959394617 1.2417048831 5.2751027362 3.6775274316 1.2881254620 5.0743059189 8.1870028394 0.3652150112 1.6385497810 7.7345052210 2.2648918443 1.8680043084 3.1869397749 4.9743140629 5.2332499793 1.4538476692 2.8070254656 5.3666248555 6.1700901769 0.8112562503 0.5025746418 5.5468076853 1.7076559889 3.1009016006 1.0745334303 4.2635138213 3.9048848605 3.5979316487 3.4071744232 6.4713837843 8.3855941215 3.9702961500 6.4252928187 3.5595491566 3.5653098260 3.9512032617 8.1528378198 1.0107654288 3.0083786288 5.7521846550 1.4950332072 0.5017334571 1.2639310646
4.9370202591 1.9481085586 3.2449148231 2.7461322823 1.4172682552 7.9053002596 0.3470577380 5.3913845681 6.2356763694 2.3206007845 5.2929120683 1.4970788318 -0.1297004251 3.5123491881 0.0101466131 2.6919815549 3.4923468499 4.8563439943 2.6514491200 6.9238476257 4.6555459343 -0.0360585803 0.1543823252 0.1298305866 0.3553100236 1.7431647501 6.1211138870 2.3885922635 1.8813189122 1.5616576993 4.8649781379 5.2228850290 3.1636031731 2.8670789770 5.1502789086 7.7451241777 4.1039327977 1.7434371760 5.4476400521 3.8712338874 1.9556241646 1.0349752822 1.1173143133 5.1287613586 3.7383852653 1.3904532455 5.1776189543 8.2123275576 0.2728230852 1.5979685358 7.7243012398 2.3120067651 1.7899352562 3.1383495784 4.9246889268 5.2218378638 1.5715514574 2.8521770382 5.3220706757 6.1588711535 1.2159952946 0.5600138713 5.6154011429 1.5462169766 3.0921199485 1.0259360363 3.9662615099 4.0152440152 3.6491883568 3.7055942312 6.3378757691 8.4247448428 4.0916408059 6.5094703091 3.4697338603 3.6318823864 3.8319721661 8.1750571501 1.0507096814 3.1026277946 5.8794065005 1.7163314554 0.5264666852 0.9989766528
4.9319691046 1.7649177778 3.1532948113 2.7032849304 1.6125603554 7.6908198845 0.1310315547 5.3149339098 6.2098525944 2.4068109647 5.2408237189 1.4335716793 -0.1442019572 3.4904940389 -0.0212020109 2.6041465683 3.4682534391 4.7766691598 2.6479470310 6.8397872174 4.5367384599 0.0407757354 0.1168483086 0.0827608916 0.1896707474 1.6730027255 6.2472368220 2.3237045512 1.8580775408 1.5624504684 4.8771086018 5.1735017734 2.9203062030 2.7627301140 5.1471156795 7.6452379416 3.7744852026 1.7630661645 5.6821479023 3.8356971696 1.8036529746 1.0115639412 1.1578667435 4.9827470322 3.5769574026 1.2797466750 5.1792915124 8.2062131766 0.1929928107 1.7168001828 7.7950287061 2.2481265776 1.7352974682 3.1079828946 4.9656414369 5.2878635185 1.4333460257 2.9184832486 5.4050332221 6.0677853874 1.0181403113 0.4805817241 5.6052758192 1.5458841438 3.0239005968 0.9031627708 3.8745377137 4.0703591128 3.2347295206 3.4861854915 6.3097808709 8.4272402322 4.3006057370 6.5749994378 3.5228617545 3.5400335266 3.7902169223 7.8976187010 0.8978521374 3.0588184596 5.7670220210 1.6615398074 0.5635601425 1.0184612798
4.9637481876 1.9166458189 3.2257957654 2.7384941240 1.4746538106 7.8563552905 0.3159359187 5.3875793518 6.2854358896 2.3756133920 5.3021715193 1.4866720637 -0.1364009489 3.5051381015 0.0177402919 2.6774238963 3.4924527154 4.8806998821 2.6863202232 6.8981775890 4.6253784401 0.0061845833 0.1690655971 0.1304165118 0.3195873766 1.7794550539 6.1556527102 2.3686165512 1.8511246044 1.5580597573 4.9099394321 5.1661428293 3.0935827673 2.8600388826 5.2100394539 7.7440664739 4.0465976805 1.7046412572 5.5316457773 3.8931472900 1.9516646473 1.0308294160 1.1268345376 5.0507336357 3.7552469921 1.3635681336 5.1124574834 8.2081988018 0.2666326656 1.5874822371 7.6665725635 2.2947308241 1.9619965683 3.0740049743 4.9496847669 5.2164340979 1.5587619604 2.9325695365 5.4273317495 6.1770583089 1.1706151775 0.5568491349 5.6355159351 1.5591009720 3.0862613209 1.0766514310 3.9103536866 4.0844562705 3.4661120998 3.6694654106 6.3647124194 8.4324888044 4.2287557339 6.5798409587 3.5213036509 3.5249237092 3.8131208185 8.0054656114 1.1141091934 3.1162937709 5.8091582103 1.7803148079 0.5341132022 0.9688160482
5.0246866794 1.8109940444 3.1339095979 2.7916231878 1.7133080886 7.8425901157 0.4443005630 5.1857435300 5.9033676762 2.4772114545 5.3688351524 1.5299250371 0.0566513812 3.7319100777 -0.1312016989 2.7482003702 3.2835094865 4.6960981484 2.7752867218 7.0952201452 4.5905920122 -0.0638011374 0.0568923568 0.0681179348 0.3102539753 1.6852781304 6.1856384745 2.3380807511 1.7285842584 1.4532493807 4.9676612349 5.3899145857 3.0817933107 2.9530925095 5.4039892932 7.5972325602 3.9957365167 1.8028643430 5.5610993684 3.8207384411 1.7739951051 0.9464095232 1.3038853027 5.4555643825 3.5181904054 1.5015003391 5.3358347131 8.0983230694 0.2637023046 1.6274920183 7.7001670247 2.1827304399 1.8991081450 3.0105178964 5.0007786180 5.1979280756 1.4854048014 3.0260218236 5.5528517501 6.0579620689 1.0827947381 0.4547479505 5.7171269838 1.7180143243 3.0032422418 0.8068063631 4.1676971275 4.2364993790 3.7082071337 3.6352531360 6.6784892752 8.1600593801 4.1295254628 6.7169219220 3.3445643073 3.6913986799 4.1228146302 8.0443065322 1.2374545465 2.9528132198 5.8121638156 1.5498923287 0.4307023873 1.1711407821
4.9300131536 1.7609675065 3.1519038593 2.7027834411 1.6150749984 7.6868521631 0.1274300613 5.3105910181 6.2036338647 2.4058430405 5.2376895919 1.4314003357 -0.1442778550 3.4895145574 -0.0232232270 2.6018506105 3.4668045192 4.7706275829 2.6459675621 6.8380460488 4.5338178620 0.0400733665 0.1136931608 0.0807598635 0.1858812663 1.6731161124 6.2466341257 2.3219814014 1.8530739831 1.5597512093 4.8747686316 5.1730254277 2.9180253142 2.7630299004 5.1452806978 7.6427571983 3.7720030215 1.7613432277 5.6838679282 3.8325565157 1.8044142430 1.0137803800 1.1637760352 4.9809541549 3.5702820862 1.2811655386 5.1806647104 8.1970342074 0.1943416401 1.7166023547 7.7913548709 2.2475238833 1.7241983976 3.1070650075 4.9637940091 5.2924578635 1.4306123983 2.9099954155 5.3956946278 6.0658685360 1.0101192373 0.4798686047 5.6089940120 1.5519167627 3.0212142288 0.9029335906 3.8757668246 4.0693232841 3.2354226124 3.4824229487 6.3018048439 8.4209981706 4.2928792525 6.5696192693 3.5191307195 3.5402149295 3.7954836581 7.8992862201 0.8916989523 3.0532761757 5.7673073311 1.6556086016 0.5658660430 1.0257602423
4.9324693795 1.6202806098 3.4541621047 2.8322403228 1.7204433022 7.7898166700 0.2601478414 5.2771520853 6.1894046279 2.2515304309 5.5022460283 1.2565118521 0.1810415932 3.4922087403 0.1642710638 2.5819409212 3.7156190928 4.6253972748 2.4565657699 7.0688933423 4.6309730368 -0.2024082058 0.1194179053 0.0427753274 0.3158436154 1.9204338819 6.2955236944 2.3580366274 1.8023631925 1.6669281218 4.8288064023 5.3487454735 3.0696365491 2.9033682975 5.3616387492 7.7232181359 3.9776574880 1.8560273051 5.7388931757 3.7783760522 1.9312388203 1.0274356677 1.1899671322 5.2928527259 3.6134787071 1.5080106644 5.3623799432 8.4630187394 0.2712209546 2.0414925497 7.8911391932 2.3220502480 1.5726939394 3.2123918135 4.7618520912 5.5328734992 1.5526811282 2.8323354423 5.3928226282 6.1618171264 1.0872049895 0.5570826513 5.9205537846 1.5676627810 3.1844262199 1.4825387373 4.1229228695 4.0058914201 3.4637098162 3.7707917347 6.6466922434 8.0544638627 4.1377704521 6.5176568209 3.8009531631 3.7104917946 4.1660717884 8.3042459075 0.9821983420 3.0995567418 5.6299883500 1.6560236340 0.5953723889 0.9145855565
4.8420598559 1.6571458809 3.3343663643 2.6808350917 1.6313657996 7.5705032021 0.1870646476 5.4183328131 6.2469141949 2.2380661029 5.3057374972 1.3572245336 -0.0171346343 3.5395089095 0.0638837596 2.5590303369 3.3909386245 4.8000846888 2.3919340050 6.8093928778 4.5977477036 -0.1236585944 0.2981132476 0.0426956733 0.2689653879 1.8243891087 6.1874129637 2.2924216951 1.7454708385 1.6655676153 4.7418521790 5.2433221741 3.1154013460 2.7984891087 5.1824308966 7.6630970263 4.0212907555 1.6870221945 5.5512600674 3.8251874659 1.7641041786 1.1518781258 1.0295320075 5.3682496003 3.6508576998 1.4038697134 5.1942614343 8.3151086514 0.1559366853 1.8390685925 7.7839966720 2.1822155304 1.6210230820 3.1936678005 4.7190904734 5.2682329751 1.5010550336 2.7833845533 5.2404484391 6.1009080945 1.1515594209 0.6369238738 5.8035862410 1.5977868388 2.9988223033 1.0578939483 4.0885883095 3.9194894993 3.5700254315 3.6282646830 6.4162054658 8.1427623552 3.9736404841 6.5072117398 3.5564220438 3.5441760791 3.8910525344 8.0938072167 1.0141705381 3.1512033956 5.7875183779 1.5434692540 0.5199645738 1.0532744326
5.0851392385 1.9760370807 3.0259252796 2.7851469028 1.6551538693 7.6622591343 0.1828981622 4.9360893500 5.7670430371 2.2741990965 5.3410303688 1.3775291212 0.0681351126 3.6252484573 -0.1914021782 2.7844749363 3.3102145992 4.6572970896 2.4435126264 6.7859902551 4.3305218825 -0.1532017019 0.1777002396 0.2318219247 0.1840439146 1.5357102516 6.0399105862 2.3473041829 1.8287375438 1.4721934460 4.8901901353 5.2776127766 2.8433937420 2.8640268362 5.1990598423 7.4100799033 3.8726393685 1.7038606417 5.5790342509 3.7991009816 1.8433046207 0.8452140705 1.1330767302 5.2933511494 3.4330459509 1.4093313675 5.1235789519 7.9500640029 0.1921615005 1.6263370963 7.6140147925 2.3916071661 1.5943564381 3.0301904580 4.8744014641 5.2170436782 1.2441516339 2.8805804632 5.2583272178 5.8521458676 0.8573752164 0.2576847870 5.5162488704 1.6155307286 3.0904231315 1.0468040644 4.2266674388 4.0088056927 3.3601108666 3.4366158888 6.5157215789 7.9307808723 4.0118200544 6.5595144846 3.1511040352 3.7149547354 3.9710086534 7.7589213047 1.0511935344 2.7366888358 5.5238004214 1.5424220561 0.6225805581 0.9643861947
4.9050017812 1.7318387546 3.1975446826 2.7980788387 1.5832975216 7.9729382532 0.1454114717 5.2350181997 5.9930167066 2.2963655620 5.2918738128 1.3858312004 -0.0094583319 3.4262464195 -0.0124479402 2.4523016965 3.6353305563 4.4983857724 2.4530164768 7.1201745324 4.5512863112 -0.0394987885 -0.1966392512 0.0438832902 0.2903290415 1.7515608633 6.2619647166 2.2894829582 1.7604060616 1.6256530612 4.8774535373 5.2529703440 3.0275578587 2.7148836799 5.0550950374 7.6317840582 3.8590627628 1.8563183364 5.8426036313 3.7489833895 1.7753211617 0.9663904515 1.2690032412 5.2110431151 3.5276013675 1.2179721206 5.1763948871 8.1007114633 0.5670578726 1.8195640150 7.8678789433 2.3166315320 1.6659337449 3.1986065272 4.7343013936 5.2221264791 1.4183451406 2.8217625463 5.0580971220 6.0663335993 0.9271396057 0.4279967608 5.8153811946 1.5194484576 3.0594315838 1.2821226099 4.2003505078 3.9819295448 3.4946383553 3.4294985436 6.3593462804 8.1136218351 4.0748050527 6.4377869680 3.5479733937 3.4271904088 3.7679702122 8.1851977268 1.0733234741 2.9543825691 5.5587644736 1.5457990928 0.4631438973 1.1681519472
5.0085120494 1.8024748234 3.1193726335 2.7757359695 1.7336179669 7.8490877732 0.4438958671 5.1848757621 5.9105716428 2.4680022085 5.3824726207 1.5595727804 0.0675202114 3.7188551724 -0.1152753378 2.7540670328 3.2804920822 4.6882932162 2.7611620809 7.0495870869 4.5870214324 -0.0719432502 0.0734592143 0.0826192284 0.3054189564 1.6855608033 6.1672412802 2.3223454873 1.7408709250 1.4493341119 4.9672093047 5.4031512365 3.0529241185 2.9531097979 5.3991116652 7.5879251866 3.9763080934 1.8134760994 5.6119197055 3.8092266462 1.7841903267 0.9690771625 1.2939069823 5.4413135251 3.5567195460 1.4841924453 5.3190748888 8.1032370669 0.2596662597 1.6275845056 7.7222610801 2.1870795637 1.8930626301 3.0392129562 5.0023549409 5.1620183994 1.5440676417 3.0083685460 5.5166216260 6.0551905991 1.0567112514 0.4492598263 5.6682085843 1.7224926454 2.9703677299 0.7978736568 4.1721456854 4.2426048771 3.7196685072 3.5804387023 6.6599706119 8.2002951445 4.1298222582 6.6654977626 3.3492390908 3.7076408075 4.0842907775 8.0264380220 1.2180754614 2.9580755337 5.8358355059 1.5510183593 0.4317516626 1.1676492810
4.9314729535 1.7444071385 3.0650893352 2.7917864600 1.5850702532 7.8914876179 0.1662129612 5.0516944728 5.8197277431 2.3226355313 5.2252869076 1.3831642498 -0.0104718870 3.4370754672 -0.1065861716 2.4722257133 3.6601467708 4.4665479856 2.6152386296 7.0378124113 4.4426979281 0.0088439296 -0.2743607430 0.0653022917 0.2761863867 1.6814981462 6.1952576083 2.3324818715 1.7627011719 1.6051001805 4.8280008155 5.2132488554 2.9401803183 2.7074386385 5.1097366156 7.5705345863 3.8576919494 1.7709403869 5.7697150185 3.7661186966 1.7118095420 1.0770390033 1.3011264273 5.2350581922 3.4181600154 1.1986945283 5.1212846556 8.0769254695 0.4381734843 1.7388206162 7.7427458793 2.3312120512 1.7634013916 3.1987029304 4.7893173684 5.1528556248 1.3938571386 2.7680286707 5.0852372686 6.0106990455 0.9119673967 0.3284388173 5.6124466973 1.5070741849 2.9951592270 1.1780067184 4.0881198272 3.9813007950 3.5097810036 3.5055199858 6.3237996928 8.1547477771 4.1861988892 6.5351885162 3.4370400267 3.3870712969 3.8244616793 8.1226667628 1.0308282982 2.8509046677 5.6034838001 1.5602941260 0.5130032071 1.0688806147
4.9269091477 1.7415714621 3.0827830703 2.7924267791 1.5880960002 7.9067107220 0.1634711846 5.0828973801 5.8438330359 2.3149128631 5.2386772841 1.3885751496 -0.0104652612 3.4362989594 -0.0910617068 2.4697321124 3.6632651372 4.4675866362 2.5939335831 7.0522479752 4.4546701549 -0.0035283186 -0.2664142152 0.0608250514 0.2819922796 1.7032097808 6.2243649503 2.3376494697 1.7676153737 1.6143489225 4.8369979662 5.2280112627 2.9443941921 2.7071186268 5.1040994929 7.5821914560 3.8551515782 1.7992126629 5.7784212884 3.7589362047 1.7125210418 1.0630077678 1.3176346186 5.2267725805 3.4343702920 1.2120706393 5.1350675022 8.0648249914 0.4726113617 1.7612199287 7.7431452349 2.3265671077 1.7411331278 3.1991951164 4.7785804804 5.1551973506 1.4108012972 2.7724804398 5.0646911076 6.0321395361 0.9096763885 0.3304001369 5.6386907672 1.4936276859 3.0190327018 1.1972013759 4.0883730174 3.9645643825 3.5148231993 3.4988748881 6.3360391847 8.1529792945 4.1458992679 6.5417785491 3.4721327483 3.3833922829 3.8194592566 8.1144628316 1.0363319713 2.8552640360 5.6007506674 1.5671829675 0.5075479501 1.0869937671
4.8974479823 1.7319525798 3.2280557036 2.8026736361 1.5792219490 7.9828178033 0.1407478018 5.2713463729 6.0321159611 2.2976171771 5.3019628455 1.3812200418 -0.0088649474 3.4238212976 0.0080047439 2.4558938126 3.6242706741 4.5065375412 2.4170898330 7.1344810658 4.5797009425 -0.0444840751 -0.1742309192 0.0395675438 0.2954770682 1.7857597610 6.2718706430 2.2828385243 1.7507866340 1.6108444785 4.8670975140 5.2440349442 3.0276476654 2.7188768527 5.0433071632 7.6347180795 3.8726542390 1.8515953358 5.8601757485 3.7192368211 1.7952809733 0.9598191715 1.2767550609 5.2303255329 3.5601436796 1.2082948284 5.1721608470 8.1308749653 0.5569171798 1.8287233046 7.8701359225 2.3232591662 1.6655547541 3.2048831400 4.7375708424 5.2552474430 1.4299674178 2.8364843228 5.0754405112 6.0611165838 0.9500816767 0.4407573839 5.8436006559 1.5379235468 3.0499802448 1.2968474229 4.2120109557 3.9655502003 3.5030035366 3.4291727776 6.3617832917 8.1123367644 4.0724516754 6.4270907467 3.5642673370 3.4376132265 3.7754402076 8.2158278395 1.0453951748 2.9508118904 5.5727430331 1.5270010896 0.4592108064 1.1769527324
5.0903701050 1.9746910680 3.0307508768 2.7903920838 1.6561962303 7.6746018310 0.1781677046 4.9276478275 5.7570638490 2.2818710788 5.3387937791 1.3669661514 0.0696874783 3.6231855929 -0.1970843293 2.7884829768 3.3038952901 4.6520792853 2.4416457500 6.7924247458 4.3248363641 -0.1542443174 0.1700874154 0.2290301472 0.1860594541 1.5307469357 6.0368668929 2.3469007382 1.8246583692 1.4580201004 4.8945572387 5.2782671648 2.8373967413 2.8691715230 5.1948796175 7.4139193104 3.8655896672 1.7014974642 5.5730480030 3.7959409842 1.8384351669 0.8447422302 1.1322541510 5.3046336958 3.4369049031 1.4016709667 5.1126503529 7.9372823663 0.1984241836 1.6314362104 7.6199680782 2.4129754912 1.5889734752 3.0347687936 4.8744343597 5.2366555916 1.2539395728 2.8727163005 5.2645165555 5.8437597049 0.8576440003 0.2412068862 5.5160991322 1.6183046198 3.0912203785 1.0469518445 4.2262264841 4.0116448685 3.3493169095 3.4388666495 6.5094527537 7.9256374548 4.0071115252 6.5493239784 3.1538280210 3.7175561670 3.9659146536 7.7533199140 1.0442664367 2.7195308259 5.5169437637 1.5291396351 0.6293765600 0.9787471352
4.7722967434 1.6469061691 3.0865057559 2.6292383934 1.5732095913 7.7734873256 0.1020564782 5.2395043029 5.8970475737 2.0697728933 5.3935085577 1.4111712019 0.0640662165 3.5679708258 0.0065649865 2.5555503117 3.4049797399 4.6453668975 2.2697078316 7.1671479782 4.5398087883 -0.1826464378 -0.0285931323 0.0349768273 0.1060201271 1.7394263874 6.2819946975 2.2118900574 1.7025062146 1.5635302682 4.6355681182 5.3918432075 2.9377946353 2.6481951640 5.0532770743 7.5836800733 3.6847622809 1.6304963834 5.6455754313 3.6324544985 1.5188174403 1.0182121869 1.0614498605 5.6715636521 3.4201894145 1.2179899396 5.0712881792 8.1854636948 0.0981293178 1.9193017525 7.8748803491 2.1253693168 1.6975282990 3.2026636347 4.6170100158 5.1812785925 1.3854574507 2.6587680265 5.1459109808 5.9909838738 0.8907059957 0.4354558913 5.8958118260 1.4689138074 3.0200798071 1.1699110341 4.0946958901 4.0613916992 3.5980789505 3.3615583900 6.3833195373 7.9702144074 3.7830389763 6.5603809578 3.3859138340 3.4161972335 3.8670139972 8.2316351780 0.8133289537 2.9459444848 5.6540704866 1.4385653974 0.4607998630 0.9945507162
4.9502621737 1.7517358181 3.0298526345 2.7928875244 1.5741176148 7.8506411930 0.1706334174 4.9846316415 5.7682410627 2.3457419071 5.1945256226 1.3600388987 -0.0096872568 3.4421718985 -0.1432019326 2.4724963527 3.6414773423 4.4698209045 2.6608491762 7.0116847341 4.4189307772 0.0460759002 -0.2842811593 0.0788853726 0.2626099300 1.6045002401 6.1237270498 2.3145833182 1.7359031536 1.5949145370 4.8531198240 5.1931653931 2.9231631243 2.7008373757 5.1127617408 7.5502702588 3.8362501134 1.6829985621 5.7312453759 3.8063946948 1.7232656302 1.0865848356 1.2379070537 5.2393546802 3.3903102879 1.2015165035 5.0886724888 8.0981102296 0.3464002210 1.6618726116 7.7446727463 2.3400708270 1.8072684908 3.1779184795 4.8117680651 5.1484705217 1.3337650974 2.7640502223 5.1629042683 5.9692961948 0.9298424392 0.3445145746 5.5669104145 1.5352800733 2.9727010610 1.1110510487 4.1078433409 4.0130770849 3.4962445229 3.4932003150 6.3015970158 8.1325822493 4.2633105323 6.5279770716 3.3492829450 3.4015339293 3.8363632140 8.1450860220 1.0435746748 2.8934043386 5.5822920849 1.5399342663 0.5046847809 1.0363810557
5.0325227315 1.8172384610 3.1605990586 2.8143560349 1.6829521606 7.8249006744 0.4257482564 5.1956699288 5.9030862215 2.4772513054 5.3253154596 1.4580517344 0.0341390566 3.7494341156 -0.1572418145 2.7235210369 3.2945651613 4.7066300355 2.7692624010 7.1879147774 4.6134756273 -0.0487506769 0.0162944131 0.0318501255 0.3283059749 1.7093470612 6.1910731957 2.3662342512 1.7451325896 1.4824259088 4.9470303909 5.3839454057 3.0796410426 2.9354170913 5.4427044555 7.6132443957 4.0735796392 1.7766342314 5.4786567965 3.8277968248 1.7025689048 0.9291659619 1.2872406892 5.4620086150 3.4790060082 1.4521035674 5.3690916070 8.1201063042 0.2365506930 1.6648013241 7.7509811392 2.2159557337 1.9121493408 3.0050023379 4.9544674548 5.3005326183 1.4289671888 3.0427875569 5.5729458025 6.0360538651 1.1389457699 0.4232348894 5.7789801752 1.6568446723 3.0418691331 0.8065340972 4.1555768047 4.1699210668 3.6920717607 3.7486689294 6.7009674659 8.1191070280 4.1635451537 6.7716032730 3.3150014203 3.6744330021 4.1633103517 8.0915467644 1.1840012582 2.9226199713 5.7784645851 1.5404932365 0.4263926791 1.1322943603
4.9216768001 1.6533768497 3.4276485328 2.8323484673 1.7603033114 7.7604816145 0.3301213325 5.3111071807 6.1734975397 2.2298026431 5.5022760872 1.2995870006 0.1428113918 3.5008364484 0.1410967936 2.5540893467 3.7209081117 4.6292701225 2.4795221109 7.0886437062 4.6479238468 -0.1976736620 0.1319881342 0.0355063703 0.3334056760 1.9047426559 6.3281630134 2.3623369465 1.7682469551 1.6438538652 4.8966931231 5.3605309242 3.0997676095 2.9362903725 5.3447649668 7.7406177777 4.0024605533 1.8385046334 5.6845706780 3.8354274920 1.9281809658 1.0689860439 1.2415787146 5.3994477358 3.5983739002 1.5540696504 5.3884968405 8.3971147481 0.3326639956 1.9993953397 7.8899881650 2.3230115030 1.6356917451 3.2185468257 4.8389283200 5.5459361987 1.5393263192 2.8348938891 5.4290625008 6.1016519320 1.1264546275 0.5786535285 5.9185796346 1.5707633333 3.1268535681 1.3835300087 4.1579548133 4.0207414857 3.4303138469 3.8288717622 6.6332377135 8.0064671685 4.1645832540 6.6019536236 3.7731266431 3.7142186941 4.1177624308 8.2352400845 1.0642769566 3.1217662549 5.6104202623 1.6430890390 0.6102164847 0.8649549021
4.8848685263 1.8301087331 3.0532079001 2.6978572154 1.5955212549 7.5510721552 0.0040097585 5.1855545692 5.8361792023 2.4551951194 5.0101936485 1.2808064248 -0.0575467785 3.4555475969 -0.1903421109 2.3746711796 3.3828856607 4.5021290193 2.6567603466 6.9311291930 4.4551455046 0.0870478705 -0.0764099287 0.0568874302 0.1891195758 1.5349318054 5.9411729867 2.2867027216 1.6694278319 1.4804189935 4.8512945536 5.1445118935 2.8547549201 2.7269381602 5.1139701926 7.4029876582 3.9934456310 1.4773801583 5.2485905857 3.7500954094 1.7937090499 0.9400051147 1.1538215650 5.2269759180 3.3945079420 1.2314293520 5.1068395998 7.9811587748 0.0289816614 1.4335195539 7.5053863370 2.2538009418 2.0203408070 2.9875302847 4.9942324947 4.9964449371 1.2545525837 2.7561595752 5.2146482029 5.8435943512 1.0033600173 0.3322346132 5.5287099927 1.5206921423 2.7477772951 0.7118597535 4.0370428861 4.0387262740 3.5265598891 3.3544351308 6.3131429413 8.1321032374 4.1338978023 6.4717596315 3.1378701623 3.6579238060 3.8798281735 7.7731309962 0.8495561441 2.9098327464 5.5755092925 1.5769845106 0.3239446532 1.1995713110