-32410.9595587583
-32411.0986224643
-32410.3222525562
-32411.0229393451
-32411.2132513125
-32410.6489651888
-32411.0466190874
-32411.1906895493
-32410.9240642474
-32410.5099156328
-32410.6585313459
-32410.9339048312
-32410.5746076715
-32410.7627183751
-32411.2768973461
-32411.0613666975
-32411.0747892499
-32410.9959939663
-32411.2696267402
-32411.1952323515
-32411.1581194443
-32411.0166029055
-32411.1647011944
-32411.133230837
-32410.8907550816
-32410.9060669195
-32410.628352168
-32410.8390692614
-32411.2542799357
-32411.114498802
-32410.8909697793
-32410.7250303557
-32410.9338739463
-32411.0150058702
-32411.0625344734
-32411.1117360316
-32410.9706611333
-32411.1510650327
-32410.8257562347
-32411.1954875941
-32411.0240026294
-32411.0477712168
-32410.814176028
-32410.9936796393
-32411.0143145653
-32410.8722071316
-32410.7430909501
-32411.0525692616
-32410.6164539965
-32411.8393584032
-32411.2041733273
-32410.7883418256
-32410.7793554067
-32410.7992983476
-32411.0559574853
-32410.9641304045
-32410.6495555395
-32410.7529960248
-32411.1292329425
-32410.7922552287
-32411.0634159857
-32410.8051019886
-32411.2479547889
-32410.4589698257
-32410.6755248464
-32410.815221761
-32411.0538838428
-32410.9716237355
-32410.598584698
-32410.9436787471
-32410.816246133
-32410.9155125302
-32410.9102542051
-32411.0587859711
-32410.9727683818
-32411.2939092143
-32411.9121382053
-32411.0777751535
-32411.1169373489
-32410.5793544229
-32410.9474737808
-32411.1395697256
-32411.2170547817
-32410.7030337727
-32410.7817720485
-32411.2641678673
-32410.9620755379
-32411.0025883697
-32410.6219230736
-32411.2172146485
-32411.3302406109
-32410.8664243073
-32410.8392419175
-32411.3628384715
-32410.8188463155
-32411.1730463774
-32411.1411995506
-32411.0740671962
-32410.7146486738
-32411.3670737852
-32410.8099952732
-32411.1204859837
-32411.1578635214
-32410.7810618317
-32410.9265544959
-32411.0234820759
-32411.0660999792
-32411.2520778556
-32410.6572488741
-32411.1088355717
-32410.7664721836
-32410.8629299592
-32411.212347895
-32410.9636943423
-32411.0964882765
-32410.4926419912
-32411.0149936251
-32410.8733170834
-32410.5721087154
-32410.9208142574
-32411.0024768031
-32410.9028367938
-32410.5771240429
-32410.9831470704
-32410.8531398526
-32410.9497781756
-32411.1547376153
-32410.3980577184
-32410.4146132519
-32410.94223532
-32411.1581160429
-32410.6545367168
-32411.1424029734
-32411.0582392947
-32411.0139330619
-32412.0198508756
-32411.10311166
-32410.7715505055
-32410.9903466546
-32410.7874936472
-32410.8043853771
-32410.4726434031
-32411.1259039035
-32410.739189792
-32410.8261763782
-32411.3489457066
-32411.059544352
-32410.5425586643
-32410.4132690103
-32411.2263047427
-32411.1340116672
-32411.1874738457
-32410.9467895509
-32410.9981061128
-32410.597957748
-32410.5767376415
-32410.9774468326
-32410.9204684009
-32410.9253838628
-32411.0712143562
-32410.5129339179
-32411.05563367
-32411.0310675173
-32410.932023437
-32410.9321672491
-32411.1315180173
-32411.257652649
-32411.0196903075
-32410.7988074545
-32410.9302319765
-32411.1150291516
-32410.9983378177
-32410.6700069249
-32410.6056116261
-32410.8450914096
-32410.9649245684
-32410.6121936483
-32410.7338540505
-32410.8496050956
-32410.7271446791
-32410.8968700206
-32411.024580871
-32410.6049088925
-32410.6663191039
-32411.2517257405
-32411.1421010633
-32411.2277579659
-32410.8425283707
-32410.7534220188
-32410.8517108475
-32411.254670691
-32411.3351698145
-32410.8648097207
-32411.0076597527
-32410.8295690918
-32411.1439137487
-32410.8858349938
-32411.0113161445
-32410.8888942321
-32410.9559529797
-32411.0410781722
-32410.7356427899
-32411.0615026182
-32410.5660530971
-32411.3622283926
-32410.6640914451
-32410.7332284611
-32410.8061888107
-32410.8382299266
-32411.2509464069
-32410.8194551699
-32411.1439891242
-32411.1918585498
-32411.049044981
-32411.0542954148
-32410.9260102685
-32410.9954821204
-32411.2028567052
-32410.9716136673
-32410.8606650209
-32411.0078464227
-32411.1800863669
-32410.8681847469
-32411.1202266593
-32411.0135989063
-32411.2420802623
-32410.5089709901
-32411.3500359301
-32410.7021741655
-32410.9275485273
-32410.9192644339
-32411.2305857714
-32410.9631565096
-32410.552100059
-32410.7634064146
-32411.1686635781
-32411.0896203989
-32411.1862006257
-32410.5212922984
-32411.0665884233
-32411.3627160204
-32411.1711259349
-32411.1187343878
-32410.3343324997
-32410.9178314831
-32411.0231911863
-32411.0835133511
-32411.1890918337
-32411.0493164144
-32410.9752489703
-32411.0845767715
-32410.5635957743
-32410.8372058267
-32411.2644440627
-32411.6810038768
-32410.8261801878
-32411.3150695919
-32411.1004135167
-32411.0127086863
-32411.2115768608
-32411.1564871703
-32411.0600982394
-32410.8240805585
-32411.0690120039
-32411.2422582246
-32411.1181002268
-32410.9459986524
-32410.9693668245
-32410.825314322
-32410.3470403455
-32411.2242773596
-32410.7593519205
-32411.1328389932
-32410.4258559015
-32410.5157392741
-32410.5175236597
-32411.3940658315
-32410.6403242183
-32410.7518647121
-32410.9731392728
-32411.1245114977
-32411.1186278553
-32411.1133047671
-32411.1584601307
-32410.9797942215
-32411.1540422287
-32410.9552201775
-32410.8466036815
-32411.1539325669
-32410.8421546225
-32410.6540066393
-32411.9734180743
-32410.9401396363
-32410.9290277373
-32410.7681881326
-32410.9918027351
-32410.9556453552
-32411.1192065051
-32410.7631074977
-32411.2179152052
-32411.0174327162
-32410.9719468705
-32411.1524389348
-32411.2663582465
-32410.6758330152
-32410.5532100108
-32411.0166637229
-32410.9477260302
-32411.2616553054
-32410.963279641
-32410.8324115915
-32411.0590580848
-32410.3707162781
-32410.7345882133
-32410.7861436911
-32411.0620131035
-32410.9232994719
-32411.039995976
-32410.8853860062
-32411.012961616
-32410.8769078957
-32410.7372307094
-32411.2409171123
-32410.9760719782
-32410.586046243
-32410.8249985341
-32411.3361494238
-32411.047463048
-32410.9361006527
-32411.0446619096
-32410.7557955305
-32410.9285440552
-32411.1292696778
-32410.858482669
-32410.6433955656
-32410.9721977594
-32410.7168756523
-32410.6505027673
-32411.1074294242
-32411.1539242674
-32410.9178101222
-32410.7023857339
-32411.0813109989
-32411.172344188
-32410.9453861245
-32411.1922218216
-32411.0520861237
-32410.8164528034
-32410.6893718963
-32410.8461816332
-32410.9480148789
-32411.1470440086
-32410.3354885747
-32411.0936019665
-32411.2548081084
-32411.0120313953
-32411.0434812082
-32410.7973203531
-32410.8431263406
-32410.9511851395
-32410.9799985788
-32411.2497220313
-32410.9853852056
-32410.8754221549
-32411.0723804994
-32410.9691323985
-32411.1080049446
-32410.9989627268
-32411.106141374
-32411.0960309895
-32411.1804971226
-32410.9604591826
-32411.4797785174
-32410.8184897105
-32411.0339945083
-32411.1590627265
-32410.9163643821
-32410.7726260349
-32410.8380922371
-32411.0057752293
-32410.8958051037
-32410.9727720553
-32411.0265070278
-32410.8043822478
-32410.6706142826
-32411.1975174263
-32410.9374949633
-32411.0785699976
-32411.1468101269
-32410.5074444322
-32410.9242231618
-32411.0015386911
-32411.2031046008
-32411.173007329
-32410.9814518021
-32410.9606359204
-32410.9841281763
-32410.8782460149
-32410.9554446713
-32411.0129890995
-32410.4327836442
-32410.9370172677
-32411.0113177772
-32410.8536804064
-32411.1876877271
-32410.5179159116
-32410.7596736949
-32410.8960897346
-32411.0974867978
-32410.9321566367
-32410.8512734247
-32410.9858416763
-32410.4703233617
-32410.9805437586
-32411.1305028971
-32410.9847850588
-32410.8178382703
-32410.9439437858
-32411.0634037406
-32410.9471661562
-32410.9397707862
-32411.0688298238
-32410.5253598539
-32411.1093079611
-32410.9284326247
-32410.8672202399
-32410.9829295155
-32410.9388196127
-32411.2056594763
-32410.8461987763
-32411.3304593903
-32410.7976973666
-32410.9550721477
-32410.8994610873
-32410.8519067693
-32410.9633781462
-32410.9184649638
-32410.8288675827
-32411.0864572132
-32410.959538894
-32410.3869554795
-32411.1079526988
-32411.0328962574
-32411.0433284164
-32411.0039572377
-32410.9996109016
-32411.0069719853
-32411.24661735
-32410.7651686229
-32411.1964450262
-32411.2244194029
-32412.0567444591
-32410.8031321575
-32410.9955245702
-32411.174373884
-32410.8734399427
-32411.0017037281
-32410.9497794002
-32410.9583387366
-32410.9683559221
-32410.8167303593
-32410.7599947891
-32410.9504882563
-32411.1616490311
-32410.9139982174
-32410.9705222193
-32411.1495311278
-32410.9938079409
-32411.1945191415
-32411.020632093
-32410.7766237933
-32411.0848445314
-32411.1174891955
-32411.1338522086
-32410.7415823517
-32410.7046792442
-32410.3691581551
-32411.2017837609
-32410.8832527709
-32411.078429587
-32411.1865994083
-32410.9236421991
-32410.8697691289
-32411.1113590181
-32411.2021941084
-32410.7084176783
-32411.190291583
-32410.6154307129
-32411.3404150782
-32410.8462263959
-32410.6596376242
-32411.0223760697
-32411.1781387131
-32411.1530262922
-32411.1326456564
-32411.1482281114
-32411.0070098091
-32410.7370969656
-32410.7838094998
-32411.3058422164
-32410.5624686794
-32410.5265035478
-32410.7124694513
-32411.1614770553
-32410.8523831044
-32411.1380662974
-32410.8139248671
-32410.7387824378
-32411.3111993188
-32410.7062448504
-32410.9241213913
-32411.2126266755
-32411.1349693714
-32411.1632353179
-32411.1332471638
-32410.9814168354
-32410.7688150826
-32411.0484168065
-32410.673113647
-32410.9453688453
-32411.1157078032
-32411.0865712288
-32410.9947453726
-32411.183779494
-32411.1031628174
-32411.0116296195
-32411.2799111414
-32411.1115066398
-32410.8723082218
-32410.3594623358
-32410.967496451
-32410.9977118201
-32411.175170769
-32410.5234236289
-32411.1167227873
-32410.9364558971
-32410.394888138
-32411.0171231869
-32411.1317338034
-32411.1711958681
-32411.1138673622
-32410.783601877
-32411.2417323649
-32410.7954698439
-32410.8445182021
-32410.6165730462
-32410.9016273845
-32411.0299198778
-32411.0392916097
-32410.8569106682
-32411.1874609203
-32410.9433396934
-32411.1931114973
-32411.4323262421
-32411.1606449316
-32410.8871604596
-32411.2162521823
-32411.0227051912
-32410.5974966514
-32411.2215300996
-32410.8728943547
-32410.6672036095
-32410.8892117888
-32410.6525637565
-32411.1972356525
-32410.4850151885
-32411.261860071
-32410.9658590068
-32411.1322701395
-32410.8593590112
-32411.2854251174
-32411.0293216358
-32410.953689674
-32411.2937739738
-32411.1771238651
-32410.4061382708
-32410.8373367134
-32410.8355457971
-32410.637243347
-32410.8521837811
-32411.1717777833
-32410.7598036292
-32410.6456592795
-32411.760585569
-32410.9469374447
-32411.0023997949
-32411.1878229676
-32410.8355738248
-32411.152489684
-32411.1240332579
-32410.9587584719
-32411.0922200371
-32411.1236948845
-32411.2841566593
-32411.0992577137
-32411.0325565235
-32411.1456773176
-32411.2935916576
-32410.8717546065
-32410.9129568383
-32411.2096391392
-32410.614105111
-32411.0934278138
-32411.0119624145
-32410.3231672664
-32411.0188040332
-32410.7176733537
-32410.9295164535
-32410.5239561554
-32411.0603288558
-32410.4878976889
-32410.8130098848
-32410.9123988692
-32411.0128142664
-32411.0823395887
-32411.2438246471
-32411.1816114282
-32410.9657330182
-32410.8306817647
-32410.705159797
-32411.1770868576
-32410.7153295023
-32410.8453213457
-32410.9094831709
-32411.2852068822
-32411.1583010802
-32411.0324622361
-32410.8690703409
-32410.9568180291
-32410.8217367072
-32410.920760515
-32411.1263432311
-32411.0294854483
-32411.2191081517
-32411.2164913703
-32410.6504095684
-32410.9019359614
-32410.9952615723
-32411.0050663731
-32410.9947742166
-32410.6599252484
-32411.1550059194
-32410.9429686664
-32411.0317937888
-32410.822829924
-32411.0694563656
-32410.9111098666
-32411.1483189973
-32410.9451031262
-32411.1229895658
-32411.6054229363
-32410.3557206364
-32410.9208943949
-32410.9524156377
-32411.2375868488
-32411.1436168726
-32410.9515745342
-32411.1505001247
-32410.3299807213
-32410.5948072156
-32410.9596533178
-32411.0860415595
-32410.9320839823
-32411.2662450472
-32411.2353076244
-32410.9851793516
-32410.9633068524
-32411.0634992525
-32410.5249058322
-32410.9711901223
-32410.7761964388
-32410.7500754284
-32411.062617196
-32411.2189734554
-32411.1236191008
-32411.2049947025
-32411.182065722
-32411.201357903
-32410.9667176616
-32411.3243554719
-32410.5100748193
-32411.1694146119
-32411.2070148746
-32411.0777414114
-32411.2797071922
-32411.0802553338
-32411.1891170043
-32410.8320834224
-32410.8321434235
-32410.9615421951
-32411.0282605285
-32411.0950890679
-32410.8813814449
-32410.6825389852
-32411.0364042112
-32411.1811937336
-32410.9609394632
-32410.7608054158
-32410.9005143034
-32411.136011839
-32411.1501903233
-32410.9528706118
-32411.0880701672
-32410.5107850361
-32410.9010362174
-32410.9849845181
-32410.984481516
-32410.9589035085
-32411.1225427551
-32410.9554303853
-32410.8318722622
-32410.9583030897
-32411.0583465075
-32411.2163202108
-32411.5376141072
-32410.9771050578
-32411.0130086917
-32411.1750866859
-32410.7109745947
-32411.020746789
-32411.1109892156
-32410.9331905327
-32410.9488406079
-32410.9132300405
-32410.8958048316
-32411.199160857
-32411.0450661345
-32411.1467981539
-32411.2274791854
-32411.2113176725
-32410.7584834696
-32411.2834529733
-32411.2249615895
-32410.9303212298
-32410.9589926258
-32411.0184184481
-32411.0026076898
-32410.9531398683
-32410.8067685489
-32411.0927788226
-32411.1780686438
-32410.7176524009
-32410.7458628363
-32410.7917168518
-32411.2318078341
-32410.9915449073
-32411.3266306145
-32410.8805321781
-32410.8735308287
-32410.9377186407
-32410.7564320045
-32411.0032868856
-32411.1547965279
-32411.027278198
-32410.559428217
-32410.3307336599
-32410.9524390394
-32411.1611498385
-32411.1586923797
-32410.987499393
-32410.9972222875
-32410.6420232963
-32410.8497853709
-32411.1075593585
-32411.0045210572
-32411.0269086676
-32410.9653437595
-32411.108814755
-32410.8789974568
-32411.1773332566
-32410.9359886779
-32410.7199704014
-32410.8272426558
-32410.8639654879
-32410.9730237605
-32410.8423704087
-32411.2340969906
-32410.9815927569
-32410.995631919
-32410.7647993646
-32410.9748522285
-32411.1713183193
-32410.6704774094
-32410.8172758112
-32410.9368088286
-32411.1047746829
-32410.9008973034
-32411.0177818381
-32411.3086229463
-32411.1000049379
-32410.5461864841
-32410.9438406547
-32411.2971851911
-32410.7505840089
-32410.7634642388
-32410.7525093494
-32410.6367173512
-32411.1825000154
-32411.262582805
-32411.1217964833
-32410.8137626873
-32410.9972722204
-32411.3390009033
-32410.6694033767
-32411.1606143188
-32411.0190736979
-32410.6316172602
-32411.049600229
-32411.0395838598
-32411.1889121026
-32411.1628236099
-32410.9969539834
-32410.926006731
-32410.6943122565
-32410.9834995937
-32411.0803708461
-32410.7871716006
-32411.1249969485
-32410.9027852282
-32410.8608130507
-32411.0603811016
-32410.9367609366
-32411.0850199086
-32410.9804331444
-32410.8103165034
-32410.448643519
-32411.1095452442
-32411.2826329587
-32411.1539856291
-32410.7833371104
-32410.6150282567
-32410.7805069919
-32411.1941409034
-32410.7940046477
-32410.4033952286
-32410.9804138243
-32411.2286766217
-32410.5950783769
-32411.2338741294
-32410.6484666765
-32411.105440273
-32411.1065759395
-32411.1182116574
-32410.3040014822
-32410.7032175855
-32410.9058565756
-32410.8977734381
-32410.8572176124
-32410.8730690517
-32411.1205380934
-32410.7276980223
-32410.843402536
-32411.0861377517
-32410.967053722
-32411.0187678421
-32410.9374598606
-32410.5856356234
-32411.1352229813
-32410.4220438607
-32410.9605103399
-32410.954769149
-32411.0081139105
-32410.8803143511
-32411.02605287
-32411.2891655923
-32410.9662791504
-32411.1694993753
-32411.1112877243
-32411.1176779064
-32410.9609255854
-32411.0956104378
-32410.7389341412
-32411.0121437783
-32410.7825817228
-32410.4626629529
-32411.214676508
-32410.4587462843
-32410.8383703373
-32411.1597734875
-32411.0409671498
-32410.742413523
-32410.6350231713
-32411.2134722688
-32411.1383218121
-32410.7635304985
-32410.9997600199
-32410.9461473626
-32410.8217094958
-32410.5664925607
-32410.7892563997
-32411.0007268399
-32410.9437118089
-32410.8348750369
-32411.2325935624
-32410.8055093428
-32411.1329668867
-32411.1802650096
-32410.913693314
-32411.1665027232
-32411.0223586544
-32411.1562483905
-32410.6984619904
-32410.9346677019
-32410.8435119257
-32410.9109030602
-32411.0056491046
-32411.1593209624
-32410.7530888155
-32410.4416507412
-32411.1380532359
-32411.1096151775
-32410.9358484033
-32411.1871947931
-32412.0485459455
-32410.7529064994
-32411.025724837
-32410.9283433714
-32411.109563748
-32410.7829202322
-32411.2704943747
-32411.1694714836
-32410.8324053329
-32410.6581824962
-32411.0898730565
-32410.9495355863
-32410.4240516516
-32411.1490331597
-32410.6387934427
-32410.8649812884
-32410.7827126095
-32410.9944056386
-32411.0975643502
-32410.9819628316
-32411.0165623605
-32411.1468717606
-32410.9139937276
-32411.0231646552
-32410.9819320827
-32411.2311626525
-32411.1821171515
-32410.9443122278
-32411.1258731546
-32410.9591262336
-32410.3125297977
-32411.1783727309
-32410.7628366085
-32411.0242932468
-32410.9170116045
-32411.216373409
-32411.0159041175
-32411.1502391677
-32411.2137992134
-32411.1210508917
-32410.8833663783
-32410.8270044202
-32410.9163573072
-32410.5755645593
-32411.0286228479
-32411.0927420873
-32411.1748387903
-32411.1763110615
-32410.9125496202
-32411.2687927117
-32411.1142985263
-32410.9988249012
-32411.2681913404
-32411.2191477442
-32411.236802481
-32411.0988952583
-32410.7634847834
-32411.2613661846
-32410.989619975
-32410.8112612821
-32411.102888935
-32411.161119906
-32410.6968064507
-32410.9913197332
-32410.6839293502
-32410.8625854633
-32411.1287300764
-32410.3103013225
-32410.9468637019
-32410.6638515769
-32411.0297280376
-32411.249474952
-32410.828315328
-32411.1142424709
-32410.7959742066
-32410.9250131079
-32411.2549381788
-32410.5169508604
-32411.1800531691
-32411.0839623387
-32411.0074645111
-32411.257162164
-32410.9651651169
-32411.1773089024
-32411.0221676306
-32410.8153289738
-32411.1415173794