0.351061843701084 -0.435487314791332 0.0828306166237795 -0.0804855146426972 -0.052229619727996 -0.0372817478963804 0.237955474563285 -0.385304549231891 -0.203718425456509 -0.292563877706364 0.179663453825319 -0.193102088881476 0.206886280023871 0.0547500708540294 0.0722333062023047 -0.752493114954621 -0.027845804172477 0.655750009207023 -0.441950550576931 0.741783190272899 -0.103350066125613 0.24936910981646 0.09448799233064 0.531727255910383 1.42945111473412 2.67748219887122 1.30178999523484 0.405876706321283 -0.659301729277923 0.30866257471804 0.686393943503403 -0.480855177949749 -2.62264728165673 -1.36578831937903 -2.3787713309046 -0.012548005381509 -0.977741690043172 -0.388960656037175 -0.585099473292576 -0.414541833715915 0.113183759302946 0.270180122266056 -0.0287058377353233 0.00715074841550955 -0.322128720563801 0.884112959944829 1.23907079425213 0.183861034676448 0.127706113781345 -0.740487097839325 -0.656727542123598 0.420571324622435 0.0216242519590979 0.136325732673548 0.669435212928882 0.46321639094063 0.74470601883566 -0.139924503907975 -0.209502119027877 -0.219749245379816 0.701577328262842 -1.9266109349523 -0.305373621254384 -0.349707644366103 0.810201495576695 0.0496124951730747 -0.359583760723667 -0.460683855635986 0.711918299831654 -0.265520771525877 0.224004161801802 0.316166592525284 -0.620802821774214 0.792455236510993 0.70409417984631 0.493274885349835 1.10858506228008 0.347198763198315 -0.477731803444082 -0.00197717730890509 -0.543768240010596 -0.296129995947524 -0.379640669005901 -0.611563053120102
0.119432822305929 0.543546096812301 0.1011049800058 -0.0752003577165784 -0.18615651439217 0.401520488487112 -0.0514348921516858 0.117940554802563 0.117954438752456 0.0752013861573113 -0.202860705885311 -0.0262797460465289 -0.568386282943022 -0.0314417471948888 -0.0612683282188359 -0.542784536449625 -0.302537695933549 0.35998099595673 -0.224778577673638 -0.798170538773627 0.631713806619208 -0.431847920147957 0.273233819912073 -0.111812076475507 0.989685486494131 -0.0755484849046483 -1.57515545556072 1.03009549398966 0.809788062402089 -2.65588982857484 -1.16131398998387 0.646970210670679 -0.275793608896138 0.921148653395875 0.523516699319671 1.66899090224636 -0.800331549863529 0.457320854439565 -0.519767775738247 -0.542670636638462 -0.444975708992611 -0.0921686013678789 0.467453052539608 0.242697357672276 0.293852513944626 0.258516061694432 0.467635600769689 0.194405894620547 -0.0122438440347685 0.359393499188089 0.47089215835026 -0.16661691179856 0.307023240189876 1.73168799175331 0.226206567631201 -0.26974586316661 0.684828142487639 0.32686006215528 0.543272531577362 -0.497088343587245 0.953488486460725 -0.359342848481997 -0.896014333215558 -0.383605308031039 0.378823058623284 0.145157467466902 -0.107186664279512 -0.0899366278674101 -0.363781341574796 -1.00293463134526 -0.67763985598538 -0.396736182197891 0.665856753398928 -1.33397530507958 -0.186420823660513 -0.41124336717548 -0.0735381403821088 -0.443196506524779 -0.39649115619329 -0.924827900117647 0.915510484188205 0.845126314423565 0.0995371221085695 0.383772172539944
-0.177188511201714 0.425211649209056 -0.315410945696822 -0.463506411227294 0.948207443297538 -0.0760819885348145 0.249093487700056 0.0734520084707326 0.061611827423608 -0.0486727574534326 -0.156252286092893 0.570323865283712 -1.0468809323007 0.242121945082246 -0.865626737771841 -1.7704445236606 -0.758113286449466 1.44319699645922 -0.439682324540629 -0.442284536704924 0.940304390485948 0.84371169419553 0.634151211156064 0.292315252159198 0.207360391201716 3.51703539296346 -0.606667675231733 1.5562943667406 -1.9286601031125 1.04282399071978 1.25755907330659 0.539608454356399 -0.210638546037677 0.254800562436827 -1.65057461404321 -0.532387514860873 0.0928406873867967 -0.376927899462824 -0.664047211929478 0.566791685586737 0.274437352679691 0.081879566056076 -0.485733586566026 1.03083905663951 -0.597807915428409 -0.953523710555825 0.229703780343259 0.0951212547118927 0.414423305921454 -0.535024694010085 1.52221492617614 0.202029982883351 0.911442229759232 0.362773983876969 0.602863472960919 -0.614002000318056 1.74678832992357 0.0733643338982571 0.779689458804303 0.252191408297585 0.515945832864792 -1.32151060339743 -0.839120734764085 -0.998964335896092 1.42672626101243 -1.21297771019862 0.453046397643655 -0.573248236507573 -1.00198589476921 0.0939832850409936 0.501918929709444 -0.0754420412887983 0.782307611799957 -0.0573692522904164 -0.563807921910555 0.38452730514804 -0.516440512857293 0.099558205143593 -0.449490563809824 -1.7799462875914 0.355495965920769 -1.71685581950414 -0.824191374865661 -1.3045963528846
-0.101755211659145 0.062655437657268 0.336542317434701 0.223188351190468 0.18566029173857 -0.0628654966769527 -0.16399824458254 -0.102697520480619 0.177239161907807 0.102874926507036 -0.201903998893577 -0.440296560768324 -0.687146505009667 -0.029637862149469 -0.906847413675039 -0.5535931914417 0.309008645024644 0.640067059361603 -0.185728168826938 0.15194877584628 0.309644478507729 0.0850772454046915 -0.338598427569852 -0.645808586862924 -1.3451369723532 -1.02679471345758 0.345091488136704 -0.448702521098278 -0.30771100992997 -1.87449907168821 -0.817005916575417 -0.323361821002489 -0.5194774983414 -0.339906604182038 0.109327106554757 0.288126155944115 0.309179880406664 -0.199890826159022 -0.362462880555282 -0.122204470080961 0.209140879220463 0.0530765406714984 0.192553672860684 -0.17474725001211 -0.624848707617248 0.722465473767402 -0.0561307525378812 -0.410513174255157 0.537555429543446 -0.378470817672283 -0.564398761111577 -0.269110801014075 0.448623588272031 0.491327018601816 -0.109237117990632 1.13016997638114 1.49449459177307 0.00534969158210511 0.397686975655412 1.17528741422111 -0.466345421870328 1.18645473791877 0.975697921196815 1.4831038393262 -1.07818795375958 1.8075774047609 0.294451837781695 -0.191030295025149 -0.518484795924016 0.0725426097527095 -0.95498306795574 -1.03103008950564 0.567956651826874 -0.575470954041446 -0.335514133812034 -0.182806111594727 0.297242768820468 0.433002087760399 1.0025281401456 0.578508710856103 -0.883583570077594 0.193849508184075 0.87318963381104 0.653456586372767
-0.057442528692632 0.0424776875889243 0.349312208904322 -0.0110104864858975 -0.0749856707135959 -0.0553460522587163 -0.0071965140281214 0.344462596628566 0.338291180900913 0.0569139101559469 -0.0349965525879866 -0.29498688407296 0.251047267982289 0.0284003908376667 0.366984934457625 -0.548490839855846 -1.00120402270206 0.293229278860519 -0.407788320533469 0.459059176388265 0.317515135436234 0.0970464957637888 0.875221061368603 0.0906521655072908 0.391220654547614 0.853065876881171 1.16658294896845 0.861015723746106 -0.465883651981278 0.339259972071258 2.08244824520949 1.0919533758586 -1.98034773457429 -0.312644440125454 -1.03147617567351 0.484858126392187 -0.62070486279441 -0.315226854805641 -0.5958399940861 -0.491197435069477 0.15587587678467 -0.436121348503134 0.818808516069921 -0.736430670478779 0.643960221755808 1.1632050353814 -0.0694955969714567 -0.603452512390659 0.0764473421051597 -0.557531348117968 -1.16407509624139 -0.263765994525451 -0.611507003100161 -0.421840934707138 -0.27831560268327 -0.208938019285908 0.216251775557575 0.0725035290048612 0.339223719535425 0.659221768010943 0.561073812222272 -0.186628054468182 0.203026027733117 -0.417615585956222 1.16525985996564 -0.51293815794157 -0.346895116071941 -1.24463440150667 0.464383156952049 -0.554946105225765 0.524162302989718 -0.527738191417839 -1.70287031108829 1.18633518168358 0.586666559859257 -0.281899204416888 0.143041707769245 -0.485879110929724 -0.271059439092644 -0.107043196797279 -0.0267307173078839 0.142112768677298 -0.562557852199775 0.585101273063858
-0.0864916085225441 0.217047274464434 0.16082344804023 -0.16713627436865 -0.08452651539225 0.45039379188345 0.416415138510802 -0.209436298820974 -0.456065385414938 -0.20352482148855 0.0558145070125297 -0.00244434651180243 0.811006764670517 -0.124701781290505 0.439513146040075 -0.473145729106119 -0.00198129107183649 -0.586753205990999 -0.296563740826603 0.517139338335265 0.107273824631621 -0.426512883846295 -0.361138763111737 -0.0526039721547536 0.664678160319082 1.96393870557147 -2.76813102194612 1.33119157312594 -0.79573544822842 -0.434911387980935 -0.0215797718974021 2.08078859897685 3.31729471915144 -0.536559127583497 0.646167255568506 0.220753003535078 0.849138518832598 -0.627338819741662 -0.0505481191297854 -0.698585337060797 0.476449852070584 0.346464199404876 0.935150359753268 0.123393861788503 0.382362437405389 0.865615939144146 -0.451435602345828 -0.783985512855603 0.167666435566434 -0.849863312439075 0.463983607727337 0.128893705717604 0.819417867204135 0.378318094223455 -0.0997397249329411 0.0575901099377961 -2.89440348934588 -0.473608270325718 -0.756457239759394 0.675029673405405 -0.81136954713903 0.754596533363484 0.968781400158212 0.282965954567037 0.601331353379155 0.695647596107409 -0.934047614177469 -1.44493634684865 0.951408979298901 0.393370352789455 0.111617701176998 -0.614848149931009 -0.266322955297501 -1.25159540260697 -0.499765631925038 -0.969441401998519 0.783692150136557 -0.130232735551775 0.130821260761149 -1.10035085155251 0.14739175495902 -0.512285612296577 -1.14948769288664 -0.430746460123074
0.115836107952968 0.0532842856995342 0.328196006667253 -0.0572517529366883 -0.22233217428037 -0.0581225851272294 -0.14780313125216 -0.0025291928722626 0.00295599577639556 0.279471827177178 0.066315658225483 0.149784422323996 -0.275711076527327 0.118284054007335 -0.145134327550413 -0.0331098780635723 -0.309949154074836 -0.261053739202741 0.264126720112498 -0.141998868866135 -0.145619494466135 0.199134408000011 0.429558868186815 -0.198699634680198 -0.257433884933291 1.20652141638797 -0.663933569228498 1.2606541656921 -1.17777109859095 1.2957700174051 -0.38114682045916 -2.70253347246235 2.77401910225188 -0.549885405489591 -0.721782846230972 -0.357451803084468 -0.772148160020494 -0.72206515321214 0.0364849634386045 1.11548718514842 -0.310481629264269 -0.108978208036137 0.482924400704244 0.583827806326406 -0.283811589959623 1.0428682136713 0.558280310081667 -0.141930220447217 0.219224226385696 0.00728675970242903 -0.0474126604455075 0.159159173824295 0.292428380639811 -1.46268157747362 0.237099040543004 0.684677218810093 -2.08212608614992 -0.0249857104944198 -0.0784216912020494 0.330895406480802 0.143935422766092 -0.196728113795324 -0.216730257608533 -1.30913589027941 1.51293864787601 -0.345773087232401 -0.394593168820814 0.684618083467954 0.689454326014183 -0.108165225636819 0.974174029140914 0.797871005410184 -0.312645211456003 1.08546828570743 -0.115871074937884 -0.364397634683957 -0.0709112456402254 -0.436030331498277 0.405972865529805 -0.801526083774735 0.965202940628259 -0.937481577784457 -0.798633079993226 -0.299273939267848
0.182508120892383 -0.106233556830342 0.10498965776396 -0.243648151129796 -0.845445388160932 -0.017851674240819 -0.0406732883231381 -0.0556496993850904 -0.0294074914253105 0.10963152501168 -0.247396817601036 -0.197808490785183 0.718800882326072 -0.123915538350241 0.75270908750852 -0.100928345309933 0.155602311549732 -0.181444713174616 -0.0907740357341336 0.808785846907926 0.308868777084976 0.415326276884897 -0.168466819566775 0.320356460070916 0.44109977298068 0.266061474241173 -0.925280156929918 -0.249239012063755 1.16820145757177 -0.562711604089336 -0.962661920687568 0.914886477773548 -1.19383688549917 -0.192792528220888 1.85941107480675 -1.30809330848648 1.27710998874826 -0.0508008584398835 -8.63890215594423e-05 -0.600027547640084 -0.0148879651589271 -0.0459389048753327 -0.42000593932955 0.221228914484205 -0.0923205534861576 -0.520580501027382 0.0419881498000875 0.403304318938241 -0.461133284236242 0.265696892001378 1.40859845043484 0.350595188718553 -0.374660958977438 0.687698006352658 -0.530338089590485 -0.105740933719307 1.76293176410713 0.320861424470746 -0.837443862149172 0.651884100492238 -0.175158883415434 -0.128161713025998 -0.245007492668441 -0.225533196061367 -1.01962956687181 -0.347452530949145 -0.529871434607954 -0.209494148612197 0.0547513564049455 -0.189447781847475 -0.251544776186805 -0.0332644012836831 1.63818524564474 -1.15763062949917 -0.877665922100772 0.80882929852889 -0.259105358234356 0.161156405727491 -0.704284184271704 -0.249485580729455 0.0903055809803202 -0.025849343599831 0.503831572362362 -0.649383703960496
0.099664648759443 -0.291449562172321 -0.137486070930387 0.198550767884118 0.251756892087956 -0.108202506613385 -0.213164910697924 -0.142191701503544 -0.26910720147151 -0.0395479170512165 0.071171955366003 0.0120672093389014 0.66104699320157 0.230700082303208 0.105009198137884 -1.07357076908945 -0.392302059978206 0.539431048329982 0.223995420055573 0.254635240589021 -0.269444015811519 0.0104201615052413 -0.475978311994572 -0.314280946441602 -1.1205432569013 0.406765022004283 1.96780204318443 -1.25971597063356 -1.08711327665962 0.707118052711074 0.109026287640398 -1.07188541183849 -1.31632931898533 0.76731397435573 0.507000198260275 0.659021736288404 0.296448555464524 -0.372415872857626 0.83534764282544 -0.252253886072106 -0.510502553175997 0.172870345674658 0.0987560213719696 0.536539072989207 0.0264386401397543 0.368551249693757 -0.0372303258597379 0.533749170391167 -0.128280497930642 0.142295831127745 -1.06453000371714 0.0378203937302108 0.196016689918375 -0.94228131068467 -0.0724580205024326 -0.312739313783059 0.320862710021662 0.796690098338688 -0.374507207087877 0.664084235795861 -0.523591261272802 -0.0555098314454227 0.222086119835036 0.561568492214773 -0.631878100026281 0.363188445492308 1.44661939010796 0.806001600733917 -1.21245860473871 -0.837974794677506 -0.654077507465225 -0.828804702883045 -0.128676447612789 1.10260622207965 0.622999314069399 -0.862734762431065 0.683189836400208 -0.901251924757782 0.578369357136802 0.0601226452424404 -0.475460749195765 0.257670683412029 1.16098026096606 0.0875611868847087
-0.0917199440981729 0.213287552255316 0.160268090044491 -0.134482509770097 -0.0865934241550963 0.439599277951451 0.393042280195675 -0.210865831439637 -0.46890495374421 -0.202656817510024 0.0579127832177279 -0.0023173340812954 0.647855955251846 -0.0892977090621267 0.325711293856686 -0.407595745006243 0.0286117354082674 -0.652078475790747 -0.155110716879429 0.523572235119245 0.0156042741293575 -0.459734604839565 -0.410887783792097 -0.0384410577124861 0.582560253123168 2.1156938774498 -2.80594910168469 1.15211664450999 -1.11143847109337 -0.931867834044192 -0.292299054217655 2.19173190014328 3.51595938684672 -0.192190376171804 0.730941625177373 0.503317866216303 1.16019813178873 -0.654297593782055 0.0649252063546691 -0.878440595082792 0.590303897621166 0.463502554574546 1.22580313746781 0.0457386160426101 0.445551378692824 1.13396749378719 -0.382308958487281 -0.967661685310321 0.232860579172744 -0.850417127773715 0.136820926886416 0.105018711214663 0.689026494669318 0.366176322931422 -0.0582272289717969 0.177293669266648 -3.13529824752365 -0.584163849335865 -0.868882009801496 0.890451240181386 -1.02135374776043 0.95856281303661 1.1528362959128 0.543058101684563 0.382206371524179 0.829550065304178 -0.965181343372869 -1.38909921414 1.01389472423525 0.127163354184583 -0.39716427065294 -0.86439980797755 -0.398845257030784 -1.3600545051832 -0.555649044466669 -1.05478012845954 1.18530005608596 -0.0956920393186247 -0.0701617694561606 -1.40721416920843 0.311712158601125 -0.336701211527926 -0.67166230133587 -0.117621738175379
-0.0611204898634886 -0.165594641710107 0.0325861446203682 0.231466013538999 0.248360466567717 -0.162124425567286 -0.189479149289827 0.0103715676806141 -0.567262197222016 -0.0517668213982133 -0.134690254798133 0.114183917915643 0.302215022653617 0.153616906714964 -0.173996231166946 0.636859866936209 0.304803607978201 -1.03628773564215 -0.082106851458036 0.402029052429506 0.185547677478323 -0.399459493258479 -0.522742540558017 -0.265781224141472 0.676675692798333 -0.565963276576426 -1.40107746335551 0.939279292185479 1.19566313913053 -0.436653052362018 -0.3417282298301 2.74106374740842 1.33028628817084 -0.292535852696394 -0.820747641071711 -0.146742294636224 0.216987367791746 0.759264882960075 0.271488041768059 -0.776390735153685 -0.638260860324534 0.0980610525467459 0.319400267299549 0.324720134100401 -0.337194091749145 0.741798873994075 0.779852209550277 0.375391923228312 -0.17893608911701 0.580925546578302 1.79167873947176 0.100675863110018 -1.37167331436258 1.45481323453676 0.326375152349741 0.158719772521185 -1.64372674142352 0.147274512715475 -0.341959628994991 -0.013635067236132 -0.114898684224974 0.391638715705518 -0.212623950872444 -0.335704909567977 -0.103032535049345 -1.03085705435234 -0.450318972820135 -1.36280815524541 0.754587020286705 -0.327358598800529 -0.391640772586983 -0.0773503130686024 0.304139492374963 -0.854066292604052 -0.248184860312583 0.837519195432853 0.444222890376164 0.602896640174554 -1.64194111120111 -1.18444362206568 0.744299527636001 -0.536920881611278 -0.0376291037539006 -0.00232376183587571
-0.380587605810673 -0.043077011425993 -0.0303919663168317 0.116742935569158 0.35173212994872 -0.257692794887786 0.0101797634839375 0.150795893784755 0.118126188354842 -0.0802852258099745 -0.173024354674402 -0.253462561043388 0.472333260927167 -0.458262649040673 0.242668047111389 0.154915827360554 0.49119846351021 -0.57708072089854 -0.838907333312018 0.109542050667922 0.538440917014431 -0.204117203350672 -0.285790052819445 -0.398090638643055 0.711429019153 1.16890105438029 -1.32558708535227 0.390146962422518 1.5916261910075 1.30188872554519 -0.103404830594637 0.843121626325057 -1.79975251344501 0.119406082846875 0.753531325874434 -0.170054732058296 0.756543885891136 0.0316556628673217 0.289663417729543 -0.0518400978004289 -0.775058390184277 0.495912064499047 -0.160303314139591 -0.259034910044156 0.601955359793812 -1.24621022981958 -0.112638942824719 0.434893647378294 -0.339435064106026 0.479553686202327 1.69339322973507 0.868871211173801 0.0301752224323834 0.601033105566628 -0.411759130203005 0.728888857474603 0.933239773981815 0.0843627362055436 -0.781882094446741 -0.836543462287561 0.340070640478928 -1.00873066620542 -0.918762156675295 -0.955059943900521 -0.118520338265707 -0.513165186233347 0.104544600036819 -0.945580548555654 0.223903374609982 0.695732956688236 0.0250286478950163 0.721292280001403 0.944526653914666 -0.491636579262404 -0.492740867499303 0.668950303123343 -0.522438122101094 0.0342262504790815 -1.43137327046382 -0.523456535536799 0.178125420709341 -0.235473075744367 -0.256620131203423 -0.835437374279381
-0.0892588854244616 0.21521176486648 0.161068731155015 -0.151497290364559 -0.0857830128576101 0.445810031537135 0.405654563122988 -0.210504848742406 -0.463954811386817 -0.203536134336611 0.0576153067357509 -0.00155397394733711 0.732479915403534 -0.10768031583128 0.386019829761589 -0.442868176820817 0.0135718181310617 -0.619556865826365 -0.223253142956638 0.519784487900156 0.0582161732339188 -0.442103531135942 -0.385355714158351 -0.0430721263325119 0.629663095797904 2.04999219834182 -2.82306184125895 1.25675251866185 -0.956677424063111 -0.685675577651507 -0.150880483035032 2.1639979389005 3.48301997283462 -0.367766292304409 0.691772174315845 0.366804957329377 1.01441023015259 -0.64370748244571 0.0115463041077126 -0.797396380011974 0.535800909653203 0.407095665699894 1.08865850886073 0.0829442593247595 0.416661192956137 1.01189620678114 -0.41938810355929 -0.879664696665067 0.200501462844152 -0.85427660873392 0.31593339358911 0.116826496378703 0.759289051317298 0.376939726531252 -0.074323097771457 0.12506867752195 -3.08599325612969 -0.529012686596024 -0.816160795403197 0.792145161630039 -0.925293012439079 0.867791091294125 1.07017485778958 0.410392075358863 0.498754674684646 0.761396326378908 -0.972455247566137 -1.44089354632782 0.990471729434396 0.257246708719912 -0.150447766596685 -0.743971197932039 -0.330704887835041 -1.31733333425077 -0.531435178742253 -1.02185099885476 0.99495778791109 -0.118415180200773 0.0264381259193879 -1.26821371929892 0.233904446516587 -0.428719403438626 -0.920129211519437 -0.280854051522129
-0.128366629842018 0.482690430437521 -0.197318181665797 -0.174297821411854 0.328981478276967 0.0177686276516414 -0.00571144560988527 0.363361994865976 0.0821119936617003 0.315055876533805 -0.485064585869306 0.829519469192376 -0.523497930276296 0.0846447860765278 -0.523970755903224 -0.00764388574691137 -0.095413074769839 0.0601007908768674 -0.179801521993704 -0.547557015670418 0.957679382447091 0.836018700403625 0.38978777949657 0.19382508271667 -1.39717710187617 -2.83909934604702 1.08850861362392 -0.927334981514154 0.606259384260791 -1.15174332052397 0.559658163553503 -0.850067457924546 1.53798426504312 0.0426964883548383 0.49476303909027 1.13957635243398 -0.31111154921314 0.225601330259919 -0.19733283694624 0.257589950814501 -0.554627802818948 0.46336602906726 0.601975414388103 0.163233856007849 0.138200323019351 0.399648726353324 0.0685134360715845 -1.31955450912355 0.709942922294031 -0.318530977770107 -0.898245535385477 0.0874889389232259 0.479423588449621 -0.195353602755869 -0.0462188978648513 0.0173744777407764 -1.30562479361745 -0.270374240454382 -0.951411807510917 -0.190152777969844 -0.26426530250125 1.23757852674877 0.0568015530058829 0.434580744285324 -1.35230289026952 -0.336887102190389 -0.180609876409724 0.0929227055352415 0.0382348553455496 -0.618812531845965 -0.0817201577424842 0.326908141759541 -0.266043990748715 0.456624857173608 -0.0161046105458892 -0.1701526910381 -0.102456865349132 -0.65372578073459 1.49325120692705 1.57405348131547 -0.460422888800025 -0.266486220263841 1.1124365728246 0.515851216317369
0.110894450231621 0.239085473818505 -0.367335632747528 0.330931659016635 0.0296409474716676 0.441629934178465 -0.0623918997194751 -0.162914782270482 -0.0216723315633587 -0.115936895144787 0.013436835284875 0.158860668901585 -0.414094461997125 0.078583156397107 -0.180381819677215 1.44669652316293 0.49051017954975 -1.09755914918319 -0.547060793016817 0.355642261615017 0.248746646062902 -0.104984001339929 -0.598945370878942 0.451819210739181 -0.535967259941742 0.972458332888336 1.81847244877453 1.00278010812515 -0.0596503338358788 -2.18726383937941 0.454323463923672 -0.546859218633178 -2.48181440747146 0.501558975452946 -0.13503581088437 0.793056360119344 -0.52525810659057 0.0483356860032408 -0.174210661059745 -1.06186994176163 -0.268819752286678 0.373634060905687 1.03431904296929 0.288270394756897 0.476713390008377 -0.666619342202337 0.180316256580496 -0.296594079828222 0.301942228749228 0.328963480564142 -0.850720260679723 0.0507054705619116 0.550498870386737 0.959721351522166 -0.00315551327856856 -0.28566406882967 0.928269834140315 -0.130126549046108 -0.00880885198704777 -0.597680902997902 0.495581935023802 -1.05622971567249 -0.435556734540799 -0.0560199380489166 0.389928418766787 0.722132258969958 -1.01059677191518 -0.227875212720251 0.614581012450651 -0.171674526212536 0.386147356412463 -0.0139623684993616 -0.22000327024083 0.129259316398132 0.33972585572324 0.584952149157595 -0.236520028410409 0.037741975124331 -0.976651285756167 -0.565736762505016 0.511857523841528 0.287724549837936 -0.328017057979737 -0.172210600944534
-0.0729082204332379 -0.494165000804117 0.0539887676015368 -0.101134290566686 0.0130010335243296 -0.248372293636145 0.186496414054377 0.18225898112485 0.21541025392792 0.135728722828128 0.138883721886331 -0.245859041595241 0.386169724998402 -0.173907785263921 0.367313521271771 -0.289457215362606 -0.114784270193445 -0.24410066505225 -0.0892578569837288 0.543329610038036 0.173858162998561 -0.676200038959389 -0.358723470050637 -1.01027409863525 -0.106897672433581 1.16788161250386 0.484698203858228 1.53832673580716 -1.15539685622742 1.51604556732995 -0.608554349756147 1.24710394481643 -1.52312586755526 -1.37840214496744 0.657082611286614 -0.227023149573084 0.585384608485758 -0.452243699651665 -0.477661869474248 -0.317681742834956 -0.0911507021525401 0.491599555396022 0.545411174081325 0.627434464729817 0.0280838882021319 -0.287817109503893 -0.807657904534173 0.0340822687764825 0.419081371110717 -0.103723647221821 -0.165414921692041 -0.0383330714355368 1.1336412209647 -0.0495482176272716 0.302919504555619 0.437382988172158 0.710255825387001 -0.105401548277466 -0.44555266424374 -1.47857098679616 -0.08895703806937 -0.600430439297178 -0.00385408164635726 -0.708665598903831 1.29574816303953 -0.171222526510448 -1.50361403286144 -1.19620255629491 1.04486287447266 1.33426224004404 0.635959981294964 0.785982487648615 0.793497304083554 -0.859815276300686 0.309900303140025 0.198247892088294 -0.698716206144052 0.329488499558263 0.116626464656163 0.561654881236332 -0.280661733105086 -0.168870482554419 -1.08889325045801 -0.419879955339776
-0.199593863897412 0.114868345223355 0.0183244998677471 0.120905549435371 -0.0965124779132562 -0.220979517606488 0.0348931942943351 -0.108901846311723 0.0544757342885415 0.225501571508832 -0.160869984983392 -0.0708305130426967 0.180767484952034 0.0351065957464016 0.11862935298339 1.11947984918353 -0.133404703882069 -0.133939235952969 0.376388225188261 -0.51090853015529 0.202618765202908 0.262346232093751 0.380228679994908 -0.0912579170989398 0.36568241426947 1.84826586258485 1.42695277508384 1.03048373036631 -0.632006398007704 -0.563214768717883 -1.06820230846397 -0.54622467070101 -2.28967416778538 -0.333944476143521 0.212967450077217 -0.393338471126736 0.0864029055093358 -0.463079351212978 -0.086591881493997 -1.03486257389661 -0.129310995544958 0.723624783583508 1.39991738220885 0.765200785759905 0.390196070467512 0.323564938047227 -0.641828264116609 0.406688917390052 -1.13681935993939 -0.0429672253777612 -1.53451302045956 0.308739193552637 0.592506560560748 0.0645110018495135 0.533374560854226 0.332608788741731 0.572144462491041 -0.0759223231110395 0.321723000694692 0.0464973481932705 0.70214297066591 -0.915669892501797 -0.770656406737494 -0.189604104838868 -0.104136309065877 -0.410408530410589 -1.40222700298465 -1.85538447222746 0.906982139411042 0.760511610238474 -0.0779105561578227 0.527546901441528 -0.262076780621744 1.55405853658739 0.520281224774123 -0.439397703567813 1.02277222464121 0.0543286672637439 -1.3176377527077 -1.0715712231946 0.98501070914296 -0.370814333526394 0.310378785190984 -0.453408408781618
-0.399286458105177 0.00468814708069902 0.0415695744218173 0.137897190113344 0.371170431130144 -0.296018153017826 -0.019320801827696 0.063690563254882 0.0471131270820648 -0.0288356783778456 -0.231712325094516 -0.266268190828476 0.356459100667084 -0.459586252263851 -0.0714982281884999 0.0192254139497241 0.550644651860618 -0.512849454928362 -0.86046062286055 0.13836667330789 0.378731013177694 -0.182512491765498 -0.15533645962029 -0.695484588251252 1.08710530624395 1.09534774449738 0.774047947164252 1.08221635611016 0.325601507808454 2.68915525829925 0.0648601574783163 -0.92082572300576 1.17139090939452 -0.573586850618864 -0.719999272890026 0.73195463929923 -0.0055144992095444 -0.00139713673557741 -0.297210630047566 0.210670427700395 -0.865235158962808 0.374854820055581 0.281369043219104 -0.0773647112388623 0.37679548771847 -0.617050555760409 -0.204791603361238 0.22887228601075 -0.0625160839379668 0.201076618323999 0.293264502955619 0.723993736696418 -0.0142580452100562 -0.258084116586635 -0.239156950449438 0.52465466899057 -1.62357238838185 0.21600572111224 -0.488108256218177 -0.92313945754449 0.230949479180924 -0.724262159727692 -0.648039789032843 -1.60061733411445 1.19390913346065 -0.917936061656633 0.106340771776742 -0.97187520699281 0.112180258257867 1.16498115252703 0.35553607510935 0.690346755460114 0.118752251650965 1.15428768289704 -0.388510713216553 0.0702083063993221 0.565299932303738 -0.171560626401373 -0.988645990023403 -0.491428577124185 -0.184391195874232 -0.293530097774877 -0.21809294157956 -0.655712985340641
-0.00970822340792554 0.048876388718537 0.358273527230015 0.00671674642624664 -0.108591000100219 -0.165618810067329 0.0525885455437608 0.234138673893494 0.273839314393539 0.0801749255413763 -0.0148239447233072 -0.326727907521109 0.187393728593789 0.0104420158708144 0.170007680894769 -0.759832839354792 -1.1351666556817 0.616075851055849 -0.884778618209166 0.504755626360829 0.697944361374047 0.714999251157091 0.908082828105375 0.246137234813477 -0.0412566713288476 -1.96447169498127 -0.491490797788523 -0.967732904831071 -0.785403989736387 0.762697303905964 1.90788662874966 0.558948282337653 0.503322237089418 -0.439993942082683 -0.490096746375144 0.369962013269044 -0.880470222869072 -0.456815890039735 -0.344103413702618 0.782367261362463 0.417515570094952 -0.703902375649634 -1.06410474347411 -0.403840650780423 0.194752736257701 0.866205492794253 -0.015358219684023 -0.101165915119222 -0.158717201419352 -0.5315477930025 0.564980087235821 -0.0958007969261237 -0.173111515026511 -0.517559199264451 -0.275740901308579 0.0666236762249717 -0.685096308408729 0.170063988024892 0.69947956627801 0.150373461753736 0.207548595855827 0.830580562918494 0.586139998204037 -0.0377805416518129 0.733999950806687 -0.432200932429508 0.709553400366464 0.15735168923631 -0.223462944866139 -0.857311537336561 -0.0211835651050715 -0.729371967508859 -0.267479436901591 -0.319629866693158 -0.23058258294948 0.216536139420208 -0.129361646251051 0.255398086502613 1.09361070809959 1.90729578954863 -1.02605886411322 -0.254936573723746 -0.528687699324443 0.227438382518973