-2.2750399749186 -0.245226229180538 0.622338833718675 -0.245226229180538 2.09781765803183 0.851079265979513 0.622338833718675 0.851079265979513 1.68979418426925
3.53884676058306 0.390465089727516 2.25853228216074 0.390465089727516 -1.0213744715504 -0.667900811376014 2.25853228216074 -0.667900811376014 3.47102913973565
2.06978884659056 -2.24779068739735 0.0455353546249924 -2.24779068739735 5.69605890581723 -0.252514239284049 0.0455353546249924 -0.252514239284049 -1.78829756345425
1.73934475064836 -1.19298587015058 -1.70455785563539 -1.19298587015058 -1.60224345853843 -1.72502073505478 -1.70455785563539 -1.72502073505478 -2.41257348354637
3.94793942695385 -2.75196395912857 0.27458620434764 -2.75196395912857 5.08289573825742 1.21021327101367 0.27458620434764 1.21021327101367 -2.03600585594065
-0.298485484678469 2.70653730026017 3.10787926952379 2.70653730026017 -1.16974041292914 -0.937809124158704 3.10787926952379 -0.937809124158704 3.42048231091003
4.66401275351827 -0.882492245139619 2.76088111271484 -0.882492245139619 1.33404785655452 1.72993222820594 2.76088111271484 1.72993222820594 0.820635312069085
-4.75491126327637 2.47668856235004 0.814536972926475 2.47668856235004 -1.08949488510724 -0.520972886237238 0.814536972926475 -0.520972886237238 -2.59659502029353
-2.4705242017722 -2.27196261195125 -5.83562061873772 -2.27196261195125 -1.70553955046203 0.307247933722939 -5.83562061873772 0.307247933722939 -5.9568476946284
-1.86374166408009 2.33270919777486 3.13116685212587 2.33270919777486 -3.73961179885917 -1.61510801475053 3.13116685212587 -1.61510801475053 2.28419531497885
-4.94522741265805 -1.13401686993335 -2.63980850125509 -1.13401686993335 -4.14352317860261 -2.78727223342591 -2.63980850125509 -2.78727223342591 4.98053563022008
-0.199632030980638 -4.34615567447431 -2.82604093856966 -4.34615567447431 -0.925377643608167 2.22298584498232 -2.82604093856966 2.22298584498232 5.12388879516972
-1.11452390105929 2.56017446837532 3.13358893921017 2.56017446837532 -2.47941186684928 -1.29422068945471 3.13358893921017 -1.29422068945471 2.95994934592919
-0.636562943472955 -1.55304770247962 1.53853323797046 -1.55304770247962 -1.17567162524158 -3.22428461596236 1.53853323797046 -3.22428461596236 -2.12740579805619
2.01725187850151 0.255269527835068 0.0622608604475774 0.255269527835068 2.08366346297893 -0.471107177386669 0.0622608604475774 -0.471107177386669 -1.91140841574063
-0.250708061636447 -0.170563681277255 1.43643389413013 -0.170563681277255 3.67020162362864 2.12074360335092 1.43643389413013 2.12074360335092 3.03110156486687
0.999980563441261 -0.25614256235688 0.268437405350011 -0.25614256235688 2.08192674683672 0.22745459537291 0.268437405350011 0.22745459537291 -5.10850726364562
2.26956396104716 -5.44654010688458 -1.55024860727265 -5.44654010688458 2.1083381058908 2.12694108917808 -1.55024860727265 2.12694108917808 6.16378846251605
3.2724714586598 -0.561343767924241 -1.18573701702838 -0.561343767924241 1.62098182259283 -1.50505213139108 -1.18573701702838 -1.50505213139108 2.31045840710847
2.08450071823692 0.164887263844913 -1.68144296217158 0.164887263844913 -1.33334762738787 -1.97050458520834 -1.68144296217158 -1.97050458520834 4.53541757835142
0.558384507416724 0.156019200601732 0.0574807581164275 0.156019200601732 3.19223495968017 -0.68976909739713 0.0574807581164275 -0.68976909739713 -6.01700364425889
-0.657846233877588 0.476938519561251 1.11422705863016 0.476938519561251 4.66042941312654 2.34768874715064 1.11422705863016 2.34768874715064 2.31274066597589
2.87923101318044 1.36592213891329 2.41216037297453 1.36592213891329 -0.402718685333097 -0.979810409676401 2.41216037297453 -0.979810409676401 -6.51200265922642
3.83278219871525 -3.40329890401057 0.657455470092951 -3.40329890401057 4.68157145886622 2.53822591704616 0.657455470092951 2.53822591704616 -2.89036150938697
-6.48738128434935 -1.37751537661184 -1.81773053519269 -1.37751537661184 -8.83168497573922 2.74660558272453 -1.81773053519269 2.74660558272453 -2.9382782115803
-1.4628354921505 -3.82539792762653 0.251424850213368 -3.82539792762653 -4.90590141614679 -2.05919030216072 0.251424850213368 -2.05919030216072 -7.13963458953002
0.603277976130608 1.48972724717966 3.11283227819773 1.48972724717966 4.54305251412641 2.91584355129794 3.11283227819773 2.91584355129794 2.55059362017124
-0.179391464566801 2.07846662394638 -3.96516995818343 2.07846662394638 3.56102367019385 -1.42069792053478 -3.96516995818343 -1.42069792053478 -0.657768703411603
-3.13834877061764 -2.14305597561744 -0.143999808638326 -2.14305597561744 -3.11081939543678 -0.35152894461709 -0.143999808638326 -0.35152894461709 -10.158339441736
-2.8923130600209 -0.493007907958109 -2.32329976625259 -0.493007907958109 -4.16591682224602 3.14703381246593 -2.32329976625259 3.14703381246593 3.68112571275388
1.84114309496483 -0.957060793418863 3.32781922940415 -0.957060793418863 6.10100192057427 -2.89203337793456 3.32781922940415 -2.89203337793456 -9.89796859773277
-0.192692480087399 2.56035008116129 0.192692480087399 2.56035008116129 -2.28771072103763 1.95767360088794 0.192692480087399 1.95767360088794 3.9173971217768
-0.00208907486012918 0.313361229019377 2.31469494502313 0.313361229019377 4.76935790567491 -3.87941201525988 2.31469494502313 -3.87941201525988 -8.93915132649276
0.417901825371586 2.08950912685793 -1.65900724645002 2.08950912685793 4.05721772169801 0.258301128244749 -1.65900724645002 0.258301128244749 2.44441067704787
-0.201590137258855 1.81846773300513 1.79976349346565 1.81846773300513 -0.54450119548268 -1.45893068407955 1.79976349346565 -1.45893068407955 -7.36947037855566
-0.394660104754413 -4.51989677866107 -0.695848079435413 -4.51989677866107 -1.22136916629261 -0.189021418592903 -0.695848079435413 -0.189021418592903 -5.95105894800734
0.287908476014132 -2.85215806814 1.20755857205927 -2.85215806814 -4.35176768421361 0.347975712017081 1.20755857205927 0.347975712017081 -2.81694624013827
2.33931693955723 1.43210833843919 1.06839828423241 1.43210833843919 -0.334778572622148 -1.1551927289863 1.06839828423241 -1.1551927289863 2.76295649133217
-2.83153307619404 4.55211956660453 -3.84901570447382 4.55211956660453 -8.52646194136751 -0.112581585175007 -3.84901570447382 -0.112581585175007 -6.3449282059952
0.238327830679078 0.445837407391034 -0.168473121686935 0.445837407391034 2.65242439143698 -1.18342095233749 -0.168473121686935 -1.18342095233749 -5.76917714264527
6.15990879505661 1.5755575375576 1.82612330370861 1.5755575375576 6.94768756383541 1.55551227626552 1.82612330370861 1.55551227626552 2.81034563314981
-0.469924320343696 0.636871118360536 -0.86152792063011 0.636871118360536 -1.49839903899065 -2.11259836996618 -0.86152792063011 -2.11259836996618 -2.25893445217847
-2.18557121539543 0.781746060914684 -1.7853669985346 0.781746060914684 0.186623728069819 2.052861008768 -1.7853669985346 2.052861008768 -2.64383614765576
-4.15748721834052 -2.21595100372095 -1.57633758551472 -2.21595100372095 -4.27303028743584 3.96353992378766 -1.57633758551472 3.96353992378766 2.19738158190206
0.392163167682643 -0.0316260619098905 0.617762409306528 -0.0316260619098905 0.803301972511219 1.4337148065817 0.617762409306528 1.4337148065817 3.47465000183331
0.55608911666376 3.40869893649618 -3.29620762663671 3.40869893649618 -5.37411314272 0.471190014883033 -3.29620762663671 0.471190014883033 -2.72738364470585
-1.80407732167302 3.02893994513342 0.298949521658131 3.02893994513342 1.20617827835676 -2.43934505519655 0.298949521658131 -2.43934505519655 0.560530353108995
-0.847656433359934 -4.308920202913 -0.486155895603492 -4.308920202913 -2.77565930139429 -0.760397682867 -0.486155895603492 -0.760397682867 -6.7043806628738
-4.52915354137216 2.1878648893589 -0.294237353035778 2.1878648893589 -3.39003464604793 -4.361017911066 -0.294237353035778 -4.361017911066 -2.50942428231942
-3.96908086539469 0.978677473658964 0.839729437275284 0.978677473658964 -0.0261786155505484 0.0241648758928139 0.839729437275284 0.0241648758928139 3.55425049590138
0.447644677989299 -3.0967200326657 0.0286165547573068 -3.0967200326657 -2.20756279556367 4.28430705509393 0.0286165547573068 4.28430705509393 -1.45740025299713
3.89104897067288 -3.13029901166312 3.88689186707174 -3.13029901166312 4.2298529141663 -0.598622918565059 3.88689186707174 -0.598622918565059 -8.95232260506844
-0.918495917176225 2.69193111440264 -0.951299342789661 2.69193111440264 -2.76573882203287 1.4946060795122 -0.951299342789661 1.4946060795122 4.87130870359533
3.80839485184429 -3.342993626087 3.75437506671175 -3.342993626087 3.39701341121954 -0.292953450141868 3.75437506671175 -0.292953450141868 -8.50603847433198
1.68445992842689 -2.336185495973 -0.978591006038477 -2.336185495973 -1.26735556519737 1.87496432509421 -0.978591006038477 1.87496432509421 -0.792097228248358
-0.495572059716826 -3.67342789265097 2.19910101499342 -3.67342789265097 0.406782065684228 4.00174438221337 2.19910101499342 4.00174438221337 6.20704004795325
-4.18983217284006 -0.975344785158408 -2.45081317291932 -0.975344785158408 -2.88868072540533 -2.73511580178464 -2.45081317291932 -2.73511580178464 4.87049832078039
4.75154590933849 1.72193847793288 -3.23464992331013 1.72193847793288 10.563872873734 1.0356738111504 -3.23464992331013 1.0356738111504 -0.769955479804739
2.53322270722776 -3.65298057056757 0.70979186965802 -3.65298057056757 1.31556251703857 4.03847098253701 0.70979186965802 4.03847098253701 -2.83712784682272
-6.39252667217549 -2.42539982561953 -4.3995624743796 -2.42539982561953 -8.14524885451381 -1.16569604022024 -4.3995624743796 -1.16569604022024 -2.0911500649829
7.8057882321085 1.11218118343922 2.31875412783454 1.11218118343922 1.40356444552109 -0.933657635543998 2.31875412783454 -0.933657635543998 3.87211419400335
1.48728636947041 2.75922816311763 2.9604847760365 2.75922816311763 1.46716070817852 -0.158992724205903 2.9604847760365 -0.158992724205903 3.77356149222871
-3.30365127001858 0.438133512240051 -3.70440846367891 0.438133512240051 -5.57114793052159 -2.37339622981222 -3.70440846367891 -2.37339622981222 0.631244491568604
-2.53987342947752 2.03594635064094 3.10451461419802 2.03594635064094 -4.92189018365684 -1.88820869299006 3.10451461419802 -1.88820869299006 1.39035302474188
-6.8850844290762 -1.80407961137065 -3.25400964545144 -1.80407961137065 -7.93295053129264 -2.52696139560346 -3.25400964545144 -2.52696139560346 3.58107719624266
-2.50024813675024 4.49279932814508 -3.90862920273615 4.49279932814508 -8.44391363091097 -0.176313165123424 -3.90862920273615 -0.176313165123424 -5.94366549416073
7.74861209446504 1.84793528245447 1.92177065445043 1.84793528245447 0.752710597847715 -1.46440154458656 1.92177065445043 -1.46440154458656 3.60357634991399
-1.34971548812155 2.73522686282354 2.33936647005154 2.73522686282354 4.43447865520121 -4.0680972278484 2.33936647005154 -4.0680972278484 -11.0230274263905
1.65006812992936 1.55782829657927 2.97832173017064 1.55782829657927 2.23425374114659 3.03981495240403 2.97832173017064 3.03981495240403 1.92268808183073
-1.56757832463311 2.02983929847642 -2.40375706398524 2.02983929847642 3.79259447873227 -0.774543942839688 -2.40375706398524 -0.774543942839688 7.59340693033286
7.68191371513989 -2.2491458754408 -1.55479212207963 -2.2491458754408 5.34872502228938 2.2771601479107 -1.55479212207963 2.2771601479107 0.0920468952582534
-6.51128864194197 -1.1108608333776 -1.54508726919503 -1.1108608333776 -8.91218141085485 2.82457972813281 -1.54508726919503 2.82457972813281 -3.57920625251455
-1.54526091496941 -0.368322464663941 1.04358031654783 -0.368322464663941 -3.67475746354369 3.81869957617097 1.04358031654783 3.81869957617097 -2.18453323869648
-1.39764463401163 2.69648670184865 -3.27695177812446 2.69648670184865 -1.93282520079075 -1.53143977570641 -3.27695177812446 -1.53143977570641 1.95135068194849
-2.75470635709079 0.231800985720637 0.289751232150797 0.231800985720637 -8.17719370162713 -0.751283551933852 0.289751232150797 -0.751283551933852 0.358049736872056
-1.04616720369011 -2.03628973575396 -2.49087429450025 -2.03628973575396 0.797079774240081 -0.950683689067597 -2.49087429450025 -0.950683689067597 2.72958308105653
-3.44750979204901 0.843753856815734 0.71487498608493 0.843753856815734 0.451076047557815 0.0261785206171946 0.71487498608493 0.0261785206171946 3.01254360333255
1.00032084652424 -0.215232969026732 0.270578589633606 -0.215232969026732 2.57254643931951 0.0983922144122202 0.270578589633606 0.0983922144122202 -5.43821968407542
-0.330149888927901 1.93937104565195 1.78363996596898 1.93937104565195 -1.41611461791716 -0.226329169139253 1.78363996596898 -0.226329169139253 -4.25872592573035
-2.27903536276592 -2.89687080222311 0.222993585764349 -2.89687080222311 -5.07566134203074 -2.07240827870904 0.222993585764349 -2.07240827870904 -9.92014584744339
2.13911096130507 -0.964336555621771 -1.84286350248059 -0.964336555621771 -0.351410778743527 -2.01243963408357 -1.84286350248059 -2.01243963408357 -1.86533744763279
-0.707186009201814 0.407913089365684 -0.00819925807770219 0.407913089365684 2.58071647995676 1.05975410654301 -0.00819925807770219 1.05975410654301 1.93092527729887
-5.35984563082198 2.87001757178555 0.69632535758944 2.87001757178555 -2.16336097743663 -0.675662884070465 0.69632535758944 -0.675662884070465 -2.91960750823109
-3.52624791777264 -0.670090513406648 1.91720341335791 -0.670090513406648 -4.02674762223069 5.55926944455886 1.91720341335791 5.55926944455886 -4.50449734012247
0.0165114490228867 3.37659132518032 -2.71406943313699 3.37659132518032 5.14125243950133 -1.33123557747024 -2.71406943313699 -1.33123557747024 0.617115407230389
4.04172814122492 0.43001506566485 1.6477019583408 0.43001506566485 0.876569172316811 0.243950854559867 1.6477019583408 0.243950854559867 -1.13085692749362
1.9845647826969 -0.976953621142242 -1.82923324460734 -0.976953621142242 -0.807315230860221 -2.01113465105432 -1.82923324460734 -2.01113465105432 -2.10515110831906
-3.39055062773763 -4.19792291485421 -0.249851781946561 -4.19792291485421 -5.92417159012136 4.22063671321299 -0.249851781946561 4.22063671321299 4.47668316743921
-5.72383459223174 1.47786668477144 0.35418203001655 1.47786668477144 -6.40057525672765 -3.41743494438588 0.35418203001655 -3.41743494438588 -1.56430396590643
0.203898194343194 0.214093104060354 -1.4170924506852 0.214093104060354 -4.06165203131642 -1.31718233545703 -1.4170924506852 -1.31718233545703 4.14525029099713
0.783277469355019 0.793638282441726 -0.806071258145774 0.793638282441726 -4.7742626703544 -0.646514736610492 -0.806071258145774 -0.646514736610492 -3.35690344009294
0.670750453631885 -1.38265124184241 -0.823006691572865 -1.38265124184241 -5.18699967363798 0.580219717558869 -0.823006691572865 0.580219717558869 1.46700942772863
0.906780731062332 1.68076062279288 0.960731072040868 1.68076062279288 4.48825336679136 -0.531203357327133 0.960731072040868 -0.531203357327133 -1.44835915396226
1.68568640244635 0.737228942593244 -0.093189051732292 0.737228942593244 -3.36723106926015 -0.283708890829422 -0.093189051732292 -0.283708890829422 -3.40450668995307
3.6054238276899 -3.50365783255349 3.56596354386149 -3.50365783255349 2.4610755966662 -0.0228454274796019 3.56596354386149 -0.0228454274796019 -7.98966904672986
-4.35272081770724 2.26837754728021 0.872611964404967 2.26837754728021 -0.432170380475446 -0.409424570976738 0.872611964404967 -0.409424570976738 -2.41105580686301
-0.0186566015331535 0.441539569617967 1.66458344790248 0.441539569617967 2.71142608948498 0.912100519398616 1.66458344790248 0.912100519398616 -2.30512676720741
2.8593358563131 -1.75032202061452 0.00612714826352808 -1.75032202061452 7.26884022329881 1.15394625629779 0.00612714826352808 1.15394625629779 3.02068409391934
-7.1075853740232 -2.19947004821505 -3.72490895262226 -2.19947004821505 -8.94395505374734 -1.93027494743731 -3.72490895262226 -1.93027494743731 0.947399812039499
2.13853978488911 0.685243629039978 0.252567138196004 0.685243629039978 -2.59191850017538 -0.124213346653772 0.252567138196004 -0.124213346653772 -3.27095146188267
-4.76281366544329 -2.78809074605615 -2.89080987880559 -2.78809074605615 -6.62223959909127 2.43171824468056 -2.89080987880559 2.43171824468056 1.05444334230545
0.0742230528495801 3.31529636061458 -2.20813582227501 3.31529636061458 4.03897112589798 -2.1421597752976 -2.20813582227501 -2.1421597752976 -0.960776184108453
0.674737655927228 -4.820741037117 -0.838750809214155 -4.820741037117 1.85604758276598 0.573007978572046 -0.838750809214155 0.573007978572046 -3.48579853631328
-4.93723766768623 0.765011983877277 -1.83769183083563 0.765011983877277 -9.20508984947985 2.3095878100208 -1.83769183083563 2.3095878100208 -3.11409769523957
-2.82723411900631 -1.38885296503011 0.171284986771915 -1.38885296503011 1.81190624561135 4.52770193948894 0.171284986771915 4.52770193948894 -1.8573070854786
0.205700001311616 1.66637778840319 1.7141666775968 1.66637778840319 0.517366669965579 -1.19472222984019 1.7141666775968 -1.19472222984019 -6.90861115516285
0.0472373074962298 -2.31668186329336 1.41711922488689 -2.31668186329336 -2.38034953861436 1.81350184865961 1.41711922488689 1.81350184865961 5.14065133317666
-1.59555142536255 -0.873955886836518 0.150244232361726 -0.873955886836518 0.560770726420526 -0.941671597196733 0.150244232361726 -0.941671597196733 -8.9977250141135
-4.13146694269876 2.17600394135023 -0.195336261144374 2.17600394135023 -2.51416671601953 -4.47173010727283 -0.195336261144374 -4.47173010727283 -3.16948836631033
-3.0044451719664 -0.242492838777042 -2.40026809908123 -0.242492838777042 -3.72164856801036 3.04760067717248 -2.40026809908123 3.04760067717248 3.8059045543651
-1.58803139115185 -2.27306454027618 1.38252144641455 -2.27306454027618 -3.83410977706859 -3.68464799907783 1.38252144641455 -3.68464799907783 -4.51706706816527
-0.771297980732587 1.53627384686901 2.84284419674388 1.53627384686901 3.9787174525222 -3.58885371909179 2.84284419674388 -3.58885371909179 -10.0626990655686
-5.00369168562518 3.27877820091831 0.307063451877328 3.27877820091831 -2.6172522408336 -0.480173048908841 0.307063451877328 -0.480173048908841 -2.42559518697728
8.53417641880997 0.27019554796889 0.60243599954545 0.27019554796889 8.84239948834485 2.1555600382407 0.60243599954545 2.1555600382407 1.97342822442463
0.810914097692468 -0.284639039341548 0.198632998677196 -0.284639039341548 0.743337922884763 0.391122708735509 0.198632998677196 0.391122708735509 -4.2552512500125
-2.44225216184106 0.527045071459328 0.195048176051877 0.527045071459328 -2.02310608138915 -4.04206220158571 0.195048176051877 -4.04206220158571 -3.69761542260048
-3.32417914358322 3.86936997951231 -2.91899840559701 3.86936997951231 -6.6059309847595 0.944007478554265 -2.91899840559701 0.944007478554265 -7.11081588340201
1.42513122196222 -1.4230415867394 -5.8509786238918 -1.4230415867394 4.53032916307051 0.977949284279058 -5.8509786238918 0.977949284279058 -5.84679935344616
-1.5146638195159 -3.07640502801675 -0.141232166954861 -3.07640502801675 -3.80098744978516 -1.96292243637263 -0.141232166954861 -1.96292243637263 -9.92718854682716
0.764165043419912 -1.33575230109861 -2.64077410447257 -1.33575230109861 -4.27153918372793 -1.79875846681684 -2.64077410447257 -1.79875846681684 8.99174363423591
2.00062122364481 -5.3211972980501 -1.76269832734786 -5.3211972980501 1.85786748586664 2.1495816456742 -1.76269832734786 2.1495816456742 6.0949639347028
1.86294643883247 1.38820240891384 -0.637937290203155 1.38820240891384 -1.65736531873378 2.40551104445376 -0.637937290203155 2.40551104445376 -0.453550100011546
-5.76024647369514 1.77821800431555 -0.00632068011012635 1.77821800431555 -6.20690786814407 -3.67020825061337 -0.00632068011012635 -3.67020825061337 -1.18407407396367
-1.02671611147255 0.449701656824975 -3.45797986343954 0.449701656824975 -6.47241836672293 -1.32446378379958 -3.45797986343954 -1.32446378379958 6.49295268895238
-2.138881603633 -3.71643720592231 -3.13007063946292 -3.71643720592231 -3.40551685573566 2.27660471176937 -3.13007063946292 2.27660471176937 3.84164003150083
-1.37522481154407 -4.30325601690368 1.68908993369828 -4.30325601690368 -2.69263236374395 4.17523208549867 1.68908993369828 4.17523208549867 6.76874914750972
0.417350411383559 -4.78395695436676 -0.822242601531787 -4.78395695436676 1.17937827694458 0.448495964471884 -0.822242601531787 0.448495964471884 -4.2067260371298
2.70166271177935 -2.80012877872347 -1.34775429129767 -2.80012877872347 3.38271967480952 -1.49955614450319 -1.34775429129767 -1.49955614450319 -7.76445965382296
2.41889527402097 -0.688756199081843 -1.2620323168805 -0.688756199081843 5.89154628975098 -1.65383973551988 -1.2620323168805 -1.65383973551988 -0.00206214430862827
3.98290410467585 2.45212282590811 0.435020953215497 2.45212282590811 -2.73734882825223 -1.86320295056449 0.435020953215497 -1.86320295056449 1.66416034461211
-0.975490169878779 -0.14943679198143 1.96965993875524 -0.14943679198143 -2.68363572266651 2.30589272071345 1.96965993875524 2.30589272071345 -4.09083218049165
-0.0123195979417952 1.98756180127629 2.78833566749297 1.98756180127629 4.19482309918125 2.64666029116233 2.78833566749297 2.64666029116233 2.97107637029627
0.012444368080995 0.790217373143185 1.68621187497483 0.790217373143185 1.35021393678796 0.713477103310382 1.68621187497483 0.713477103310382 -2.70665005761642
2.24760056403889 -1.34569715299144 -1.12073258334241 -1.34569715299144 1.83039354396252 -2.5952730807692 -1.12073258334241 -2.5952730807692 4.90831788325144
-1.90912716450244 2.9636725993599 1.89018323453494 2.9636725993599 3.29624381434489 -4.05821077525987 1.89018323453494 -4.05821077525987 -10.5980763762621
-2.2774798325156 0.463147976550476 0.388641562931487 0.463147976550476 1.24244478926802 0.0463147976550477 0.388641562931487 0.0463147976550477 1.735798068637
6.32263286362392 3.54257036915565 2.6399259120933 3.54257036915565 9.05529621993595 -2.10204873562464 2.6399259120933 -2.10204873562464 -2.51009349018707
-3.7992168273312 0.599099155448118 1.7319028402215 0.599099155448118 -3.43005361534733 -3.0144813138569 1.7319028402215 -3.0144813138569 -4.6240329181066
-3.09331902317071 -4.34675336700557 0.103248298503695 -4.34675336700557 -5.71789077113464 4.22905030671135 0.103248298503695 4.22905030671135 5.02406220518981
-3.40890784479983 0.722472551760256 -2.42069826250706 0.722472551760256 -3.75976376792478 2.1985587135463 -2.42069826250706 2.1985587135463 -3.44004890306536
-0.65378950385443 2.44704071442658 0.564542047772715 2.44704071442658 2.53836369274276 -1.53796197573376 0.564542047772715 -1.53796197573376 -0.0394349224547117
-1.89799999701756 0.186688524296809 0.101641529894929 0.186688524296809 -1.19480655549958 -3.5823453495621 0.101641529894929 -3.5823453495621 -3.59271693424526
6.23417772568212 3.12120383163689 2.94631765781412 3.12120383163689 8.40482376548232 -2.05748439791489 2.94631765781412 -2.05748439791489 -0.329197503666382
-2.65198321947702 2.00040048793102 0.0954547950672481 2.00040048793102 -7.7297632962065 1.38824473695628 0.0954547950672481 1.38824473695628 2.81176624600263
-1.78252947079828 0.760684088119731 -1.43845982876047 0.760684088119731 1.53173171967434 2.04576347404407 -1.43845982876047 2.04576347404407 -2.33179727284659
3.00004400114138 0.556559887108297 0.887599225165276 0.556559887108297 -1.05932588178233 0.124139751771367 0.887599225165276 0.124139751771367 -2.70210859689009
3.14658966124642 0.0822100499345896 2.00798046965235 0.0822100499345896 -2.07374850960002 -0.441879018398419 2.00798046965235 -0.441879018398419 3.54941890592591
-3.93106968091642 -1.98085069635788 1.32941629209173 -1.98085069635788 -7.83150765003349 -2.36068392266981 1.32941629209173 -2.36068392266981 -8.8280593405723
-4.28562561459142 0.343581939689729 2.70799493293917 0.343581939689729 -8.21953717257737 -2.47013051315397 2.70799493293917 -2.47013051315397 -3.54356994603076
-2.61575121181546 -1.51078718224672 -0.0803610203322722 -1.51078718224672 -4.51428031716539 1.3862276007317 -0.0803610203322722 1.3862276007317 -0.116523479481795
-1.72053049471136 1.66564240530953 2.7338490682837 1.66564240530953 1.67197564639435 -1.56008838722907 2.7338490682837 -1.56008838722907 -1.50731137818885
-1.78885004236856 2.81223867125848 2.27974377492552 2.81223867125848 -4.69053121574547 -2.5314308157704 2.27974377492552 -2.5314308157704 -9.03785283033884
-2.25822265181564 0.874881154987828 -0.232615460032058 0.874881154987828 3.06311331440444 3.04870350714582 -0.232615460032058 3.04870350714582 1.56861044729582
2.61662685222975 -0.0183981575547404 0.128787102883183 -0.0183981575547404 6.12249798627195 -3.04387295544539 0.128787102883183 -3.04387295544539 0.122654383698269
1.33491074400528 1.24468636192198 3.24807775499903 1.24468636192198 4.00063112373934 3.12709506084187 3.24807775499903 3.12709506084187 2.04030136756568
-3.80957269289845 3.90096920243364 -0.0186947405867427 3.90096920243364 -1.22138971833386 -4.45973422663739 -0.0186947405867427 -4.45973422663739 0.463214127871513
-1.22171548204381 0.894690630789661 0.641709142083619 0.894690630789661 4.6996967617342 2.618255570104 0.641709142083619 2.618255570104 1.83051646299494
-1.81740938383315 3.25943962856757 -3.54866617836495 3.25943962856757 -1.30049384802507 -0.0635888159128979 -3.54866617836495 -0.0635888159128979 7.49117276496462
1.99098109321257 -3.62524474055788 2.42858214599158 -3.62524474055788 -1.5284927767684 0.591072512047481 2.42858214599158 0.591072512047481 -5.51252890183229
0.469070209078912 0.325222011628045 3.49822138148628 0.325222011628045 -6.2500999414159 -0.419036053443828 3.49822138148628 -0.419036053443828 -6.26052372383987
-4.58139240624725 3.7814667480136 0.0768759723497271 3.7814667480136 -2.6865035742756 -5.4727381397076 0.0768759723497271 -5.4727381397076 -0.708505583006944
-2.81993668796893 0.300037906532408 5.27479228687045 0.300037906532408 -11.0657336996638 -0.560210636672398 5.27479228687045 -0.560210636672398 -2.80315135054054
-2.43855053280528 3.00663391835957 1.3634001253303 3.00663391835957 1.64533780556836 -3.88611115969918 1.3634001253303 -3.88611115969918 -9.72053793059567
-3.04783951201443 0.0600049869982474 1.13181820303591 0.0600049869982474 -7.83789278446073 0.0765580868598329 1.13181820303591 0.0765580868598329 -1.22079111479193
-3.00889598463426 0.0620817603432102 0.920879445090952 0.0620817603432102 -8.11615546886902 -0.12209412867498 0.920879445090952 -0.12209412867498 -0.865005860782063
-0.0933854963663692 1.3177731153921 1.71621789988861 1.3177731153921 -0.0767836303456813 0.329962087161171 1.71621789988861 0.329962087161171 -3.34942646967377
-3.41470229640989 -1.23001636574624 0.128629162430979 -1.23001636574624 -4.86580003508437 1.24006551906116 0.128629162430979 1.24006551906116 0.303484430110591
6.41833402541184 -0.522518218735451 2.8532786196302 -0.522518218735451 2.01190085796563 0.761148586346917 2.8532786196302 0.761148586346917 2.91499336987454
-2.6706215224658 -1.72258186367863 0.964563225824847 -1.72258186367863 0.658877235627679 5.14915657811851 0.964563225824847 5.14915657811851 -3.29232073225868
-1.83581189203182 0.137891700410462 -0.372513399616323 0.137891700410462 3.82598016512013 0.300480421789962 -0.372513399616323 0.300480421789962 4.22113250062474
2.92955963123239 -3.69201982753087 0.772653514430811 -3.69201982753087 2.16302210768098 3.84491959951585 0.772653514430811 3.84491959951585 -2.98868087639992
-1.19994959578179 -1.28199743139081 -0.162044475327798 -1.28199743139081 -5.7105293583872 0.904577387589352 -0.162044475327798 0.904577387589352 -1.4440419067186
-0.99700191337357 2.94783658510866 1.95700169387967 2.94783658510866 2.84299720865082 2.20162690561463 1.95700169387967 2.20162690561463 3.52548099265087
1.61307405347704 1.72170547003902 2.78137419386066 1.72170547003902 1.48599579259321 2.94329649401909 2.78137419386066 2.94329649401909 2.01685497918857
-0.235021032332867 1.61216181828335 -4.15409982588357 1.61216181828335 2.7893285679506 -1.29467726583369 -4.15409982588357 -1.29467726583369 -0.828758377173793
-2.4201794718886 -4.4831140217322 0.807414823812663 -4.4831140217322 -4.89404893206141 4.22911907715686 0.807414823812663 4.22911907715686 6.02153868602999
2.48547540932885 -2.37579164855081 1.45486195899932 -2.37579164855081 4.24041558177754 -0.293869698688341 1.45486195899932 -0.293869698688341 0.405622964386724
5.01990682992495 0.99729094455402 -3.99961756170197 0.99729094455402 10.6314978051513 1.1917313173916 -3.99961756170197 1.1917313173916 -2.36464582450859
1.00821518391239 0.207573714334903 0.71591750454283 0.207573714334903 -1.3852368283166 3.35295091624645 0.71591750454283 3.35295091624645 -0.211809912586636
-4.68727144155317 0.835355306415416 1.25514244272013 0.835355306415416 -4.96783269345532 -3.07984532163259 1.25514244272013 -3.07984532163259 -3.34353070875867
0.445116046284527 -1.71150254416445 -5.95995757748109 -1.71150254416445 2.9757992953482 0.846347411949453 -5.95995757748109 0.846347411949453 -6.07907313916286
-0.403540863851307 0.205973982590771 0.901661617667764 0.205973982590771 -0.676771657083963 0.105088766627945 0.901661617667764 0.105088766627945 5.06527855146693
1.12802265776265 1.25518157554681 3.2466543040696 1.25518157554681 4.32955605552174 3.08668018169598 3.2466543040696 3.08668018169598 2.18016015491218
-1.32648947245205 3.23087590887158 1.61646624084854 3.23087590887158 2.22932494284965 2.08330827223865 1.61646624084854 2.08330827223865 3.65041676527502
1.28650677112664 -0.0436456255147972 0.149642144622162 -0.0436456255147972 -0.122623424065383 -0.170425775819684 0.149642144622162 -0.170425775819684 -1.24286114561184
5.55236983071074 3.15625785019569 2.26597831260777 3.15625785019569 6.88882194398077 -1.84459310224133 2.26597831260777 -1.84459310224133 -4.53815346654445
-5.62247489643309 3.1839354720161 0.57195209192507 3.1839354720161 -2.81226985271461 -0.726812766634024 0.57195209192507 -0.726812766634024 -3.06211174124505
-1.64343134191114 -3.48839598365209 0.679395763343796 -3.48839598365209 -5.24817644711446 -2.69265109875706 0.679395763343796 -2.69265109875706 -6.79395763343796