9.570391004 -0.004370646 0.187500887 -0.002611854 8.577137218 0.299769577 0.089133327 0.238463042 5.271339684
10.084227945 -0.139196588 -0.168641632 -0.083182478 6.598015644 0.005217486 -0.080168099 0.004150447 5.137618232
9.985847026 -0.457267806 0.026016351 -0.273258632 7.442529293 -0.200320837 0.012367536 -0.159352783 5.144029709
9.668749345 0.206204009 -0.114477658 0.123225438 6.532652737 -0.119929624 -0.054419873 -0.095402553 5.092546134
10.193271022 -0.396520838 -0.071971950 -0.236956856 7.057337313 -0.110867723 -0.034213701 -0.088193922 5.027870341
8.951547930 0.378025538 -0.182837456 0.225904252 8.782528789 -0.159946739 -0.086916446 -0.127235680 5.237511273
9.893994213 0.125560009 -0.010559873 0.075033396 6.231883699 -0.037032793 -0.005019905 -0.029459135 5.136872332
9.881505786 0.130595939 -0.015912736 0.078042817 6.239520673 -0.040611833 -0.007564525 -0.032306218 5.136966868
9.983864834 -0.059739554 -0.129576534 -0.035699756 6.577153312 -0.010888338 -0.061597509 -0.008661540 5.142798014
9.689894004 0.206268226 -0.113366228 0.123263813 6.476911186 -0.128989290 -0.053891527 -0.102609407 5.107617059
9.825591131 0.059817975 -0.086057321 0.035746619 6.565996895 -0.055034351 -0.040909541 -0.043779155 5.109785380
8.935543286 0.505187502 -0.030657035 0.301894960 8.847725127 -0.013494131 -0.014573603 -0.010734416 5.240995057
9.587361212 0.172095577 0.383092185 0.102842583 8.805539247 0.203190074 0.182112637 0.161635226 5.251890851
9.734938268 -0.389990753 -0.059993324 -0.233054544 7.701682572 -0.114745569 -0.028519356 -0.091278701 5.302240144
10.115273840 -0.448395392 -0.015813064 -0.267956567 7.252104474 -0.162968744 -0.007517143 -0.129639648 5.068851110
9.912501618 -0.445442115 0.013666296 -0.266191718 7.535872100 -0.186862395 0.006496622 -0.148646756 5.196536729
9.126031232 0.382625862 0.173151532 0.228653359 9.045229830 0.419563674 0.082311995 0.333757785 5.391250949
9.365601490 0.327595513 0.067806893 0.195767777 8.790831057 -0.085698506 0.032233735 -0.068172117 5.360010855
10.017343364 -0.085391920 -0.143618329 -0.051029351 6.580107142 -0.001161410 -0.068272634 -0.000923887 5.144105705
9.601945927 0.112429336 0.358523435 0.067186638 8.772247770 0.301879013 0.170433255 0.240141073 5.249434693
9.674205996 0.199531867 -0.108879278 0.119238233 6.541512536 -0.108161178 -0.051758541 -0.086040898 5.084919669
9.562005988 -0.025412350 0.159952362 -0.015186164 8.541208340 0.289686583 0.076037433 0.230442143 5.286279838
9.688393338 -0.370821546 -0.071216405 -0.221599219 7.743211630 -0.093785920 -0.033854534 -0.074605555 5.308959635
9.581177866 0.019848225 0.227329121 0.011861099 8.621654422 0.306983711 0.108066693 0.244201798 5.258215031
10.362274839 0.014715324 -0.011148004 0.008793729 6.183634532 0.002549843 -0.005299488 0.002028369 4.943293786
10.098253300 -0.453173104 -0.006459159 -0.270811680 7.283968368 -0.170178440 -0.003070526 -0.135374873 5.077076034
10.110274589 0.071599799 0.013586942 0.042787318 6.142147967 0.008179091 0.006458899 0.006506367 5.095747267
9.551753242 -0.063232158 0.122547053 -0.037786900 8.478412638 0.268095528 0.058255866 0.213266723 5.309783223
9.011091316 0.506238405 0.077586022 0.302522969 8.925561956 0.134429099 0.036882494 0.106936709 5.234367795
9.539838290 -0.187785250 0.056001373 -0.112218573 8.230017736 0.155750348 0.026621680 0.123897502 5.288757388
9.678593399 0.194232827 -0.104342080 0.116071580 6.544424832 -0.103177651 -0.049601668 -0.082076563 5.080482463
9.104304386 0.408292475 0.170107163 0.243991468 9.040923233 0.394142172 0.080864776 0.313535290 5.371146756
10.153120428 -0.429599315 -0.039205283 -0.256724221 7.166030617 -0.145643969 -0.018637231 -0.115858001 5.046201222
9.413422118 0.313346967 0.121025374 0.187252990 8.793106574 -0.057136618 0.057532497 -0.045451482 5.346493023
9.338935751 0.331812729 0.038767770 0.198287943 8.787288596 -0.100830036 0.018429248 -0.080209064 5.362920765
9.670029636 0.209129483 -0.113588408 0.124973672 6.515175686 -0.131530835 -0.053997145 -0.104631175 5.098671503
9.544245827 -0.136018061 0.075822288 -0.081283023 8.345097917 0.211429332 0.036044058 0.168189455 5.324679941
10.228367559 -0.350283569 -0.114638741 -0.209325930 6.923951037 -0.062903748 -0.054496448 -0.050039164 5.049242503
9.853673816 -0.432243736 -0.006737206 -0.258304500 7.596142177 -0.172952700 -0.003202703 -0.137581764 5.243247468
9.548428993 -0.090047507 0.097424499 -0.053811483 8.431079957 0.251845101 0.046313219 0.200339706 5.322194494
9.984844264 0.098126099 0.016367820 0.058639168 6.184984676 -0.013551027 0.007780860 -0.010779676 5.132967809
9.145569208 0.346257384 0.159609225 0.206919923 9.043999172 0.426557333 0.075874314 0.339321156 5.394444669
10.358332987 0.015942987 -0.011503550 0.009527368 6.180501906 0.002941080 -0.005468506 0.002339593 4.944722784
9.014480119 0.503839541 0.083105577 0.301089432 8.930694789 0.143377985 0.039506355 0.114055438 5.234518299
10.388672122 0.005459618 -0.005591635 0.003262613 6.204684613 0.000179218 -0.002658126 0.000142566 4.940640544
9.035702853 0.301889503 -0.176749470 0.180406124 8.720298739 -0.238043301 -0.084022366 -0.189360543 5.256970384
9.031998046 0.484667592 0.117717975 0.289632468 8.961401408 0.198461321 0.055960241 0.157873560 5.241853729
9.531315154 0.222381262 0.277664495 0.132892801 8.772647220 0.044195573 0.131994897 0.035157039 5.271997524
9.592004647 0.163379598 0.406673324 0.097634001 8.812659614 0.248203176 0.193322532 0.197442599 5.253444487
9.064300713 0.453515332 0.156650028 0.271016192 9.004390314 0.289439806 0.074467584 0.230245835 5.276428500
9.140503628 0.359272699 0.165196695 0.214697744 9.044595359 0.426802067 0.078530461 0.339515839 5.395006521
9.546037569 0.205891460 0.297742070 0.123038662 8.772061494 0.071316599 0.141539283 0.056731485 5.257002659
9.506862436 0.246337974 0.244729729 0.147209090 8.778949335 0.011837741 0.116338516 0.009416778 5.297950420
9.538943868 -0.247011084 0.015942392 -0.147611334 8.092629660 0.083071155 0.007578623 0.066082090 5.288251231
8.913685054 0.461718645 -0.106377117 0.275918409 8.821708078 -0.082794254 -0.050569074 -0.065861819 5.248084577
9.026247207 0.491758465 0.105698474 0.293869903 8.951155348 0.179814167 0.050246464 0.143039977 5.238290538
9.593659255 0.159546542 0.407726580 0.095343406 8.811017665 0.256659224 0.193823224 0.204169282 5.251082711
9.682772892 -0.368452816 -0.072072046 -0.220183689 7.748550060 -0.091351086 -0.034261284 -0.072668674 5.309614984
9.540097906 -0.184909087 0.057781398 -0.110499807 8.236614184 0.158983050 0.027467861 0.126469077 5.289959870
9.717739589 0.195333773 -0.102873486 0.116729494 6.427791437 -0.112603079 -0.048903534 -0.089574376 5.104844919
9.590834138 0.043571834 0.267931491 0.026038089 8.666711755 0.309085393 0.127368065 0.245873661 5.254159131
8.975016351 0.336817695 -0.191405775 0.201278860 8.756856434 -0.194685564 -0.090989615 -0.154869992 5.236602255
9.838031517 0.050601523 -0.087807783 0.030238960 6.568063886 -0.052129075 -0.041741668 -0.041468043 5.114082156
8.930621720 0.412534391 -0.165519432 0.246526395 8.799006692 -0.132128836 -0.078683882 -0.105106877 5.241974618
9.537463212 -0.224976431 0.032215245 -0.134443648 8.145783953 0.111216564 0.015314338 0.088471420 5.285551519
9.696731972 0.203940011 -0.112311375 0.121872495 6.465409146 -0.125553160 -0.053390075 -0.099876007 5.107880692
9.540353309 -0.182070284 0.059503345 -0.108803367 8.243148135 0.162144281 0.028286432 0.128983798 5.291332824
9.669710256 0.204928886 -0.113628518 0.122463437 6.535477188 -0.116685026 -0.054016213 -0.092821515 5.090815740
9.813322286 0.068940100 -0.084460462 0.041197909 6.563860339 -0.057947886 -0.040150434 -0.046096837 5.105077926
10.231808437 -0.295729996 -0.155279883 -0.176725265 6.800824356 -0.032290331 -0.073816251 -0.025686564 5.090548089
9.578070327 0.176818514 0.350009563 0.105664962 8.782390175 0.140629181 0.166385969 0.111868798 5.249411859
8.929980310 0.499617377 -0.041261974 0.298566309 8.842889583 -0.026317603 -0.019614931 -0.020935332 5.242068996
9.962546723 0.103450295 0.012405328 0.061820854 6.194908476 -0.018789147 0.005897189 -0.014946538 5.134656207
10.232178626 -0.340048047 -0.122849159 -0.203209286 6.897245638 -0.055833267 -0.058399480 -0.044414683 5.057337221
10.196083885 -0.234423926 -0.189939452 -0.140089376 6.689778511 -0.000747866 -0.090292561 -0.000594919 5.135712296
9.053466938 0.463013816 0.149888440 0.276692390 8.991635688 0.258807012 0.071253291 0.205877821 5.259800569
9.569454143 -0.303827971 -0.049642876 -0.181564533 7.927515282 0.002877365 -0.023599007 0.002288909 5.306519440
10.211125703 -0.377140112 -0.090924569 -0.225375130 6.999854400 -0.088225271 -0.043223312 -0.070182127 5.031756842
9.547720450 -0.097944818 0.091067172 -0.058530836 8.416735380 0.246220683 0.043291102 0.195865550 5.325303138
8.922754420 0.426802965 -0.153520470 0.255053150 8.805312612 -0.119514397 -0.072979869 -0.095072245 5.244315038
9.076047460 0.303280543 -0.169471143 0.181237396 8.711234558 -0.242578712 -0.080562428 -0.192968407 5.276087837
9.947990022 -0.451632758 0.021458498 -0.269891184 7.492854186 -0.193720594 0.010200844 -0.154102370 5.170725708
9.461688715 0.284138166 0.181716662 0.169798104 8.790149727 -0.024495914 0.086383648 -0.019486201 5.325307139
9.548932730 -0.084790918 0.102131616 -0.050670198 8.440561500 0.255286817 0.048550867 0.203077549 5.319906380
9.589708336 0.168149369 0.400538849 0.100484368 8.812990300 0.233290786 0.190406353 0.185579975 5.255114920
9.554462055 -0.286184153 -0.027463594 -0.171020765 7.982280462 0.030445069 -0.013055520 0.024218681 5.298151844
9.546033566 -0.116768690 0.080700372 -0.069779792 8.382146646 0.230377164 0.038362979 0.183262224 5.329174375
9.017635426 0.501169364 0.088616961 0.299493761 8.935819968 0.152397472 0.042126332 0.121230331 5.234992560
9.901938647 -0.443429476 0.010804180 -0.264988986 7.547648581 -0.184917129 0.005136042 -0.147099321 5.204684961
9.123947187 0.385326922 0.173521594 0.230267485 9.045155680 0.417887723 0.082487913 0.332424587 5.390171737
9.090178854 0.424686856 0.163486109 0.253788585 9.032322455 0.365823330 0.077717290 0.291007997 5.344010597
9.585582941 0.030026948 0.245156850 0.017943802 8.641057424 0.308374558 0.116541559 0.245308200 5.255372111
8.994724145 0.513139679 0.054081715 0.306647101 8.904889762 0.099016419 0.025709122 0.078766353 5.236280378
9.471861744 0.276137184 0.195726863 0.165016798 8.788310950 -0.017393594 0.093043754 -0.013836392 5.320444614
9.554059342 -0.051879598 0.133096588 -0.031002725 8.497539827 0.274684178 0.063270856 0.218507914 5.303679784
10.252039874 0.040127266 -0.001448343 0.023979650 6.122840339 0.011964600 -0.000688507 0.009517693 5.010974276
9.787695321 0.169185126 -0.055933542 0.101103326 6.314188377 -0.071728301 -0.026589435 -0.057058988 5.120607794
9.509664560 0.243777868 0.248596560 0.145679197 8.778099671 0.014828507 0.118176713 0.011795896 5.295457472
9.093971487 0.420180571 0.165314462 0.251095674 9.035189053 0.374579232 0.078586444 0.297973210 5.352648493
8.941485245 0.509572240 -0.020700941 0.304515235 8.852926647 -0.000491049 -0.009840720 -0.000390624 5.240343160
10.167175814 -0.419439972 -0.049352538 -0.250653100 7.129718461 -0.136217967 -0.023460987 -0.108359731 5.037290868
9.730150928 0.137564150 -0.080588061 0.082206950 6.552802503 -0.080275776 -0.038309589 -0.063858401 5.070784142
10.146228240 -0.190121895 -0.186579429 -0.113614928 6.631946140 0.003312953 -0.088695288 0.002635414 5.139483571
8.966868333 0.516297884 0.016598278 0.308534412 8.876563374 0.049222419 0.007890415 0.039155834 5.239489636
9.265729862 0.333487333 -0.042512560 0.199288669 8.764427501 -0.151171081 -0.020209429 -0.120254751 5.358738586
8.952272830 0.514288086 -0.004247750 0.307333377 8.862723321 0.021711925 -0.002019276 0.017271572 5.239908069
10.226029492 0.045315107 0.001673948 0.027079851 6.120027567 0.012970520 0.000795754 0.010317890 5.027287176
9.592021160 0.047026844 0.273427365 0.028102768 8.673131746 0.309122356 0.129980669 0.245903064 5.254204874
9.024350256 0.303825998 -0.179595947 0.181563354 8.724413170 -0.234229781 -0.085375512 -0.186326934 5.252308668
9.672020023 0.202142502 -0.111236881 0.120798322 6.539276542 -0.111585102 -0.052879287 -0.088764588 5.087545935
9.635245966 -0.347133270 -0.075146415 -0.207443344 7.800610942 -0.066846080 -0.035722764 -0.053175241 5.314626496
9.579209226 0.176111131 0.352402849 0.105242237 8.783532499 0.144531904 0.167523678 0.114973367 5.249259103
8.969710986 0.345790537 -0.190563575 0.206640940 8.763278723 -0.186407109 -0.090589254 -0.148284582 5.236218072
9.600027254 0.081952986 0.321585991 0.048974279 8.732147582 0.307667377 0.152874099 0.244745646 5.255415689
10.4063 0 0 0 6.2187 0 0 0 4.9469
9.682344796 0.189679829 -0.100829018 0.113350754 6.546080561 -0.100023207 -0.047931644 -0.079567242 5.077389608
9.020606719 0.498244095 0.094192140 0.297745650 8.940939619 0.161485822 0.044776635 0.128460001 5.235791055
9.539576061 -0.190700685 0.054172363 -0.113960807 8.223358145 0.152441111 0.025752214 0.121265045 5.287727134
10.206102897 0.049569802 0.003753934 0.029622414 6.120737854 0.013249265 0.001784528 0.010539629 5.039522715
9.247983011 0.331755887 -0.061119014 0.198253975 8.756454285 -0.166134610 -0.029054481 -0.132158056 5.355624630
8.977292158 0.515992478 0.030798795 0.308351904 8.886734321 0.067685782 0.014640993 0.053843214 5.238713018
10.038542760 -0.101989421 -0.152258573 -0.060947850 6.583898940 0.003017902 -0.072379994 0.002400704 5.142899979
9.092054346 0.422448453 0.164379779 0.252450938 9.033793445 0.370266805 0.078142119 0.294542727 5.348409049
9.732141006 0.189328408 -0.092216078 0.113140748 6.400369683 -0.102708900 -0.043837263 -0.081703677 5.103252497
9.083162204 0.433153071 0.160597458 0.258847910 9.025921541 0.347258964 0.076344096 0.276240271 5.325618935
9.817670526 0.157648083 -0.043128794 0.094208906 6.284613909 -0.060283766 -0.020502372 -0.047955000 5.130372753
9.943080093 -0.450815373 0.020542705 -0.269402723 7.499112975 -0.192720833 0.009765499 -0.153307072 5.174186434
9.909025270 -0.002697509 -0.102470757 -0.001612004 6.575358857 -0.034492775 -0.048712087 -0.027438582 5.131045205
9.584407938 -0.316654707 -0.062209847 -0.189229662 7.887916829 -0.018912266 -0.029573037 -0.015044477 5.311945864
8.937496851 0.506793010 -0.027268272 0.302854395 8.849424041 -0.009150961 -0.012962668 -0.007279478 5.240731735
10.230847816 -0.292237880 -0.157757991 -0.174638412 6.794228337 -0.030354979 -0.074994283 -0.024147016 5.093173017
9.601940327 0.109295659 0.354695685 0.065313984 8.768655759 0.302885157 0.168613636 0.240941448 5.250382773
9.196700443 0.325125723 -0.105802145 0.194291855 8.735670783 -0.203703861 -0.050295747 -0.162043937 5.339858175
8.964226634 0.355725554 -0.188892113 0.212578006 8.769768188 -0.177866062 -0.089794681 -0.141490283 5.236242286
10.145792374 -0.434241668 -0.034302865 -0.259498444 7.184234393 -0.149637838 -0.016306741 -0.119035075 5.051039583
9.078307840 0.438913327 0.159273460 0.262290180 9.020764344 0.332860611 0.075714700 0.264786556 5.311799210
9.552907893 0.198312488 0.307886288 0.118509544 8.772885108 0.084637438 0.146361596 0.067328050 5.253103046
9.599121570 -0.326990317 -0.069252814 -0.195406118 7.856964391 -0.036367682 -0.032921091 -0.028930048 5.314664082
8.931799097 0.501611964 -0.037605957 0.299758254 8.844476908 -0.022039598 -0.017876950 -0.017532231 5.241660414
9.131984584 0.374262906 0.171081736 0.223655740 9.045177627 0.423521919 0.081328065 0.336906521 5.393560844
9.704990463 0.163406714 -0.086753498 0.097650205 6.550662928 -0.088623509 -0.041240487 -0.070498921 5.068421965
8.972047722 0.516281426 0.023713501 0.308524577 8.881582944 0.058464953 0.011272817 0.046508157 5.239169450
10.403483411 0.000460420 -0.000630221 0.000275143 6.216372083 -0.000177691 -0.000299591 -0.000141351 4.945736207
9.360328883 0.328598875 0.062072890 0.196367376 8.790294812 -0.088675666 0.029507931 -0.070540411 5.360841745
10.234473483 -0.309625147 -0.145409988 -0.185028867 6.828078224 -0.039569439 -0.069124345 -0.031477006 5.080375015
9.146543132 0.342872887 0.158228640 0.204897382 9.043846106 0.426088525 0.075218018 0.338948224 5.394069006
9.572719143 0.180504316 0.339859697 0.107867560 8.778633632 0.125458093 0.161560971 0.099800382 5.250000650
9.121413845 0.313171215 -0.153566267 0.187147962 8.714966456 -0.233861168 -0.073001640 -0.186033706 5.301814651
9.545522247 -0.122257602 0.078890751 -0.073059911 8.371846456 0.225193697 0.037502730 0.179138840 5.328881832
9.010087320 0.308049260 -0.183820332 0.184087133 8.730514287 -0.227637432 -0.087383681 -0.181082800 5.246757690
10.234824952 -0.313057557 -0.142957641 -0.187080041 6.835141927 -0.041291302 -0.067958559 -0.032846727 5.077881188
9.550868229 -0.068748438 0.117352587 -0.041083373 8.468918439 0.264902648 0.055786544 0.210726826 5.312490196
9.549611138 -0.278324877 -0.017247934 -0.166324142 8.006024135 0.041584215 -0.008199245 0.033079736 5.295115771
9.797450800 0.165570618 -0.051571085 0.098943333 6.303565147 -0.067726151 -0.024515630 -0.053875327 5.124282374
10.086846595 0.076778802 0.015928390 0.045882238 6.149099673 0.005297474 0.007571966 0.004214076 5.106946427
9.051221312 0.300930468 -0.173664879 0.179833014 8.715618143 -0.241506310 -0.082556027 -0.192115324 5.263778079
10.202181459 -0.241146078 -0.188097401 -0.144106466 6.701260550 -0.002911788 -0.089416895 -0.002316292 5.132199384
9.149685385 0.321697028 0.150527573 0.192242902 9.042783219 0.419642947 0.071557119 0.333820846 5.389585496
9.823032873 0.155451440 -0.040928340 0.092896214 6.280150589 -0.058462411 -0.019456330 -0.046506135 5.131612427
9.587559980 0.171889989 0.385104940 0.102719725 8.806816611 0.206789064 0.183069451 0.164498179 5.252421879
9.670713782 0.209248730 -0.113420745 0.125044932 6.513095498 -0.132131014 -0.053917442 -0.105108610 5.099330159
9.311651514 0.334121882 0.008644789 0.199667869 8.781154065 -0.117348607 0.004109521 -0.093349385 5.362996110
9.813047962 -0.419704588 -0.026119253 -0.250811232 7.633263471 -0.155790429 -0.012416453 -0.123929386 5.271861893
8.939477979 0.508254504 -0.023955359 0.303727769 8.851156883 -0.004816260 -0.011387791 -0.003831276 5.240515853
10.224926764 -0.357143048 -0.108902900 -0.213425086 6.942670605 -0.068418659 -0.051769770 -0.054426208 5.044010526
9.739878785 0.128416859 -0.079739532 0.076740621 6.553586745 -0.077372492 -0.037906219 -0.061548874 5.073688883
9.595216249 -0.324413027 -0.067765914 -0.193865956 7.864576427 -0.032078953 -0.032214255 -0.025518416 5.314159265
9.075189912 0.442462418 0.158715733 0.264411082 9.017228680 0.323192215 0.075449570 0.257095465 5.302971974
8.916312245 0.475459790 -0.083021249 0.284129979 8.828611114 -0.065408562 -0.039466267 -0.052031713 5.247026089
9.537601303 -0.218557523 0.036427536 -0.130607773 8.160477270 0.119217583 0.017316758 0.094836134 5.285061261
8.973239098 0.339698053 -0.191217716 0.203000133 8.758982755 -0.191957079 -0.090900216 -0.152699515 5.236425283
10.156746380 0.060886994 0.008671049 0.036385454 6.129613491 0.011998507 0.004122004 0.009544666 5.069515342
9.863270134 0.138290806 -0.023876450 0.082641192 6.251144530 -0.045937744 -0.011350279 -0.036542915 5.136576966
9.549488514 -0.079507028 0.107086918 -0.047512598 8.450011942 0.258560850 0.050906497 0.205682002 5.317518952
9.712214130 0.197690596 -0.106205731 0.118137908 6.438057615 -0.116264253 -0.050487602 -0.092486795 5.105866221
10.039500137 0.086681023 0.018990286 0.051799706 6.164318505 -0.002324042 0.009027516 -0.001848747 5.123483051
10.046533904 -0.459713031 0.017000313 -0.274719874 7.362273993 -0.192376350 0.008081532 -0.153033040 5.103232452
9.375955643 0.325352684 0.079094428 0.194427485 8.791687949 -0.079807933 0.037599553 -0.063486238 5.357996374
9.616275395 -0.337243690 -0.073456206 -0.201533430 7.827521240 -0.052682467 -0.034919280 -0.041908260 5.315479439
10.142105444 -0.436399379 -0.031915769 -0.260787871 7.193162437 -0.151468827 -0.015171975 -0.120491604 5.053435735
9.789372366 0.087082344 -0.081731960 0.052039531 6.559751871 -0.063867240 -0.038853371 -0.050805611 5.094800892
9.596069403 0.060879310 0.294010747 0.036380862 8.698004032 0.308909565 0.139765504 0.245733791 5.255025865
9.876279081 0.022089111 -0.094432494 0.013200230 6.573080744 -0.043082857 -0.044890893 -0.034271887 5.124423215
10.405925646 0.000033327 -0.000064110 0.000019916 6.218386144 -0.000034701 -0.000030477 -0.000027604 4.946758977
9.090981878 0.306390445 -0.165854421 0.183095842 8.710985000 -0.240751001 -0.078843127 -0.191514485 5.284300343
9.381012534 0.324114648 0.084632359 0.193687647 8.792021991 -0.076893426 0.040232150 -0.061167783 5.356825959
9.186714149 0.323777619 -0.113174145 0.193486242 8.732336386 -0.209236237 -0.053800215 -0.166444874 5.335709028
10.299255573 0.030881403 -0.008176816 0.018454415 6.140029682 0.008611571 -0.003887058 0.006850400 4.979822632
9.181688665 0.323087986 -0.116760783 0.193074124 8.730733306 -0.211803741 -0.055505215 -0.168487293 5.333499803
8.920662202 0.485819990 -0.065194060 0.290321130 8.834106899 -0.050574879 -0.030991659 -0.040231700 5.245128743
9.543759602 -0.141479896 0.074849765 -0.084546960 8.333984944 0.205748736 0.035581744 0.163670610 5.321646219
10.232654616 -0.299219395 -0.152803837 -0.178810495 6.807499964 -0.034178874 -0.072639200 -0.027188877 5.087961216
9.038293367 0.477411155 0.129638434 0.285296094 8.971556682 0.217434077 0.061626935 0.172966156 5.246317221
10.226726079 -0.353728684 -0.111782964 -0.211384696 6.933279208 -0.065591331 -0.053138882 -0.052177104 5.046580664
10.008861549 -0.459440699 0.025485872 -0.274557131 7.411809015 -0.200856530 0.012115359 -0.159778920 5.127642300
9.007433599 0.508361107 0.071981173 0.303791474 8.920418095 0.125541130 0.034218086 0.099866438 5.234520512
9.601630911 0.099448780 0.342798644 0.059429588 8.756566293 0.305284852 0.162958074 0.242850376 5.252959827
9.058296321 0.458859146 0.153720089 0.274209601 8.997340839 0.272062541 0.073074763 0.216422433 5.266058215
9.030497037 0.486504305 0.114637368 0.290730069 8.958797720 0.193690032 0.054495795 0.154078058 5.240858388
9.031877762 0.302417375 -0.177649444 0.180721575 8.721620544 -0.236885232 -0.084450192 -0.188439313 5.255373660
10.167634244 -0.207946389 -0.190555419 -0.124266666 6.651112879 0.003001715 -0.090585376 0.002387827 5.141119091
10.304693633 0.029724193 -0.008909937 0.017762878 6.143017557 0.008129929 -0.004235566 0.006467259 4.976145777
8.956065956 0.370287354 -0.185294322 0.221279991 8.778340229 -0.166058448 -0.088084380 -0.132097470 5.236900427
8.969445495 0.516325905 0.020155092 0.308551157 8.879053771 0.053844594 0.009581237 0.042832718 5.239345774
10.208387550 -0.380411509 -0.087804439 -0.227330084 7.009446820 -0.091911256 -0.041740078 -0.073114283 5.030439801
9.772052750 0.100760799 -0.080243800 0.060213638 6.557135728 -0.068384597 -0.038145936 -0.054399113 5.086928453
8.914449301 0.449839588 -0.125067673 0.268819604 8.815915941 -0.096372775 -0.059454107 -0.076663367 5.247545816
9.533305784 0.220231223 0.280295210 0.131607959 8.772364199 0.047562699 0.133245474 0.037835547 5.269661081
9.560779993 -0.028881193 0.156048729 -0.017259110 8.535457733 0.287809683 0.074181742 0.228949093 5.288745385
10.315523253 0.027311641 -0.010218930 0.016321162 6.149503373 0.007134660 -0.004857829 0.005675535 4.968884062
9.535223753 0.218127078 0.282841233 0.130350543 8.772147840 0.050918316 0.134455791 0.040504899 5.267450873
9.734941235 0.133006699 -0.080090720 0.079483463 6.553178703 -0.078832351 -0.038073165 -0.062710174 5.072115585
9.151517975 0.318624583 -0.136681808 0.190406840 8.722021356 -0.224529672 -0.064975182 -0.178610616 5.318634057
10.141726939 -0.186441336 -0.185494061 -0.111415463 6.628599097 0.003352539 -0.088179331 0.002666904 5.138971422
9.023454901 0.495092943 0.099881298 0.295862553 8.946053264 0.170631096 0.047481121 0.135734956 5.236898791
9.081507778 0.435138497 0.160076318 0.260034380 9.024221480 0.342469886 0.076096359 0.272430617 5.320952281
9.704170541 0.201047915 -0.110011483 0.120144208 6.452533948 -0.121303552 -0.052296763 -0.096495496 5.107214209
10.173943515 -0.413996880 -0.054684638 -0.247400363 7.111666305 -0.130666290 -0.025995737 -0.103943440 5.033615857
9.440593988 0.299032903 0.153912121 0.178699049 8.792447057 -0.038948109 0.073166051 -0.030982745 5.334911885
10.234429213 -0.329773855 -0.130732460 -0.197069532 6.872124937 -0.049833256 -0.062147008 -0.039641747 5.065400559
9.562355990 -0.296354045 -0.040675112 -0.177098191 7.950829460 0.015013890 -0.019335951 0.011943367 5.302866657
9.547253370 -0.103254295 0.087428748 -0.061703726 8.407045236 0.242094004 0.041561484 0.192582828 5.327017981
9.942173062 -0.027973463 -0.113227810 -0.016716660 6.576218403 -0.024549927 -0.053825726 -0.019529168 5.136992875
8.917235113 0.478108149 -0.078455331 0.285712611 8.829977628 -0.061791742 -0.037295742 -0.049154577 5.246613214
9.538505266 -0.243944385 0.018462678 -0.145778706 8.100360979 0.087039823 0.008776705 0.069239118 5.287816026
9.676973150 0.196196971 -0.105970425 0.117245332 6.543512144 -0.104809127 -0.050375743 -0.083374382 5.082008558
9.788600228 -0.410971563 -0.038054161 -0.245592464 7.654995592 -0.143051304 -0.018090016 -0.113795567 5.285036536
10.007907731 0.093150476 0.018565847 0.055665786 6.175721795 -0.008529781 0.008825749 -0.006785337 5.130047872
10.138491505 -0.438391634 -0.029623696 -0.261978422 7.201737914 -0.153167948 -0.014082379 -0.121843234 5.055733855
9.300896319 0.334497048 -0.003380376 0.199892065 8.777941081 -0.124474837 -0.001606948 -0.099018215 5.362418023
9.550480330 -0.071469213 0.114764711 -0.042709281 8.464184588 0.263321524 0.054556331 0.209469061 5.313785931
9.054791517 0.300970354 -0.173056871 0.179856850 8.714713805 -0.242020456 -0.082266996 -0.192524321 5.265430512
9.650269152 -0.354239161 -0.075057312 -0.211689753 7.782364036 -0.075817957 -0.035680407 -0.060312260 5.313243151
9.802362367 0.163701966 -0.049470464 0.097826645 6.298605273 -0.065820268 -0.023517046 -0.052359221 5.125966809
9.220856304 0.328331919 -0.086377592 0.196207845 8.744694120 -0.187803838 -0.041061791 -0.149395662 5.348504014
9.669175132 0.205614915 -0.114123209 0.122873401 6.534093599 -0.118330424 -0.054251377 -0.094130409 5.091722941
9.146427277 0.317789615 -0.139769536 0.189907871 8.720698587 -0.226297489 -0.066443012 -0.180016893 5.315892413
9.552257828 -0.060434261 0.125155708 -0.036114905 8.483175833 0.269715440 0.059495956 0.214555343 5.308355528
10.179264014 -0.218135730 -0.191462347 -0.130355714 6.664545343 0.002302371 -0.091016508 0.001831508 5.140544554
10.070703848 -0.457800479 0.007243507 -0.273576953 7.328326773 -0.182511876 0.003443386 -0.145185971 5.090193435
8.919416272 0.483292795 -0.069531313 0.288810904 8.832721478 -0.054378689 -0.033053482 -0.043257584 5.245653444
9.978096978 -0.055346506 -0.127189500 -0.033074514 6.576919318 -0.012771126 -0.060462771 -0.010159275 5.142213370
9.755477212 0.114566864 -0.079488566 0.068464003 6.555089740 -0.072911811 -0.037786917 -0.058000456 5.079647488
9.275351638 0.334106634 -0.031956073 0.199658757 8.768526034 -0.143352537 -0.015191134 -0.114035194 5.360017808
8.914839266 0.470068106 -0.092292312 0.280907963 8.825873965 -0.072480895 -0.043873504 -0.057657668 5.247669927
9.121824464 0.387990830 0.173724384 0.231859410 9.045021813 0.416025549 0.082584315 0.330943250 5.388915195
8.939768879 0.397432029 -0.174656203 0.237501375 8.792146658 -0.144580277 -0.083027279 -0.115011847 5.239727911
10.397552803 0.002183376 -0.002506481 0.001304763 6.211632532 -0.000225863 -0.001191520 -0.000179671 4.943245943
9.694138832 -0.373226913 -0.070236511 -0.223036642 7.737858695 -0.096259325 -0.033388716 -0.076573119 5.308277656
9.592539618 0.162183965 0.407271564 0.096919503 8.812220938 0.251053472 0.193606921 0.199709975 5.252747719
9.542849261 -0.152273138 0.072604434 -0.090996893 8.311052497 0.194324212 0.034514369 0.154582540 5.313809043
9.056717336 0.460219548 0.152611511 0.275022563 8.995486997 0.267673620 0.072547773 0.212931100 5.263840677
10.164107034 0.059166983 0.007917421 0.035357593 6.127873607 0.012365799 0.003763748 0.009836842 5.065087491
9.549202489 -0.082154222 0.104585121 -0.049094535 8.445288896 0.256940086 0.049717204 0.204392704 5.318722872
8.914306068 0.467329205 -0.096964633 0.279271223 8.824499393 -0.075942870 -0.046094610 -0.060411627 5.247885918
10.212803266 0.048110789 0.003075127 0.028750523 6.120252770 0.013204833 0.001461840 0.010504284 5.035423136
9.547016705 -0.105928821 0.085811009 -0.063301996 8.402150063 0.239908669 0.040792451 0.190844420 5.327723925
9.668093585 0.207522173 -0.114823024 0.124013159 6.527995342 -0.124348688 -0.054584052 -0.098917865 5.094607083
9.907205236 -0.444446370 0.012266580 -0.265596671 7.541835086 -0.185892340 0.005831232 -0.147875089 5.200594172
10.220960411 -0.268023588 -0.174497268 -0.160168195 6.749666420 -0.016159838 -0.082951725 -0.012854954 5.112452644
9.586413808 0.172654283 0.375217525 0.103176460 8.799738244 0.188171080 0.178369216 0.149687799 5.250012600
9.989583474 -0.064098166 -0.131963228 -0.038304418 6.577448844 -0.009057237 -0.062732085 -0.007204922 5.143284190
10.089251556 -0.143358468 -0.170247089 -0.085669576 6.600052966 0.005054927 -0.080931294 0.004021133 5.137193386
9.454795765 0.289304367 0.172418695 0.172885374 8.791118438 -0.029227716 0.081963622 -0.023250291 5.328478450
10.109301892 -0.159930262 -0.176420695 -0.095572713 6.609178298 0.004209725 -0.083866075 0.003348785 5.136507582
8.984977349 0.515114139 0.041048253 0.307827018 8.894478336 0.081197888 0.019513333 0.064591929 5.237791995
9.962446288 -0.453958945 0.023789969 -0.271281290 7.473961194 -0.196630533 0.011309168 -0.156417190 5.160592262
8.921085717 0.430239921 -0.150013973 0.257107041 8.806844782 -0.116302683 -0.071312966 -0.092517366 5.244877382
9.068892052 0.302144960 -0.170768078 0.180558783 8.712009341 -0.242854425 -0.081178960 -0.193187733 5.272346208
9.881063483 -0.439050479 0.004165778 -0.262372141 7.569555373 -0.180642656 0.001980309 -0.143699030 5.221331494