4.8215147984 4.2221725856 2.5144183029 3.0289019450 7.6466003620 5.7358741604 1.6715557296 3.0233915747 2.5780473729 6.6286496696 1.2455826856 0.0333996360 7.8987092551 5.5111964926 3.3131663293 1.3118278286 6.4206737924 3.1016732725 3.6587471205 2.4526678743 5.0621888745 8.2730838221 2.3299851823 2.6600731017 6.1346751859 6.5877819887 0.6891876999 2.1349893024 6.7012212259 4.3743616682 3.1920748287 2.8171737775 1.1926760714 7.5433595736 2.3301339932 1.3080503280 6.8127867313 6.3487104797 4.5945322192 4.5751020761 6.4321554972 0.6639325169 0.1868735623 1.9442709784 2.3103122650 5.1991067904 2.4751676012 4.7962193653 9.3819245537 6.7076774709 3.6262567723 1.8507295841 7.3285411898 1.9570365932 3.2319407771 0.9456102656 5.0575219521 8.1929691701 3.7535756823 3.2749284145 6.7082196309 5.6614789395 1.7746806971 7.5488367618 1.3653057811 3.6301193999 6.4988432202 8.0800325292 0.9273851132 1.4939414283 4.9813477889 2.6031636032 2.8899852073 3.2384201640 4.0105464224
4.8932198445 3.2614511826 2.3279278665 2.6200743617 5.2749670478 5.2203020558 2.0240906049 1.8770366856 2.1966238639 7.2408125197 1.1328727503 -0.0058055317 7.8620718131 4.6413009880 2.6134709282 1.0492402401 5.0508160137 2.3141207233 3.9479476693 1.4892838331 4.6423170016 8.8805541267 1.6176158669 2.8031984911 6.0194107785 4.8169549893 0.1809301138 1.3683575362 4.9460011245 3.8140085291 3.6315698173 1.6358157912 0.9961253682 8.3978162554 1.5457160938 1.3379293056 6.3347257842 4.7650721374 3.8432836666 4.5193850661 4.4600906592 0.3273702149 0.3285881424 1.5993673455 2.9092164977 5.4379521078 1.7937471011 4.4229325988 9.6031790236 4.8395644820 1.9430179521 1.7755061476 6.3339293300 1.6773862001 3.5376103866 0.0432033064 4.2220433964 8.3936506518 2.8920083710 3.5270988031 6.8217250665 3.7607253394 1.0339659570 8.2365824406 0.4352056719 3.6679039544 6.4613752001 6.2018352290 0.7847597986 1.7069456894 3.8703209784 1.5330209748 3.1330715867 2.4435391799 3.7319427661
5.1384786078 3.2601485215 2.4188492871 2.6596454006 5.6232821573 5.1383549804 1.9157745269 2.3258617609 2.0866051984 7.0344345382 0.9576124759 -0.0594794509 7.8355113158 4.6863085352 2.9502886005 1.0244204822 5.5256642857 2.1556709606 3.8801594486 1.3094907881 4.7011277585 8.6606604368 1.5161930181 2.7488244953 5.8338204398 5.3787094086 0.2765723019 1.4599462261 5.3068753238 3.6439422734 3.4007686544 2.0192752081 0.9537693191 8.1716193202 1.5396805826 1.2877045616 6.2484731713 4.9424909484 3.9261692577 4.3470948160 4.9865430105 0.4338796293 0.2107266011 1.8926775583 2.7764998749 5.4231277197 1.5550739741 4.5559012697 9.4736680862 5.2278161218 2.2182262133 1.6731148622 6.7332775789 1.3920851514 3.5817318946 -0.1796588291 4.5696351582 8.1832406595 2.8067665966 3.4839932743 6.7094241903 4.5022700705 1.2011434241 7.9689785772 0.2825816284 3.4766582357 6.0778566459 6.8579249455 0.4859838453 1.5036437755 4.2768606239 1.3333538516 3.0850536409 2.1306331219 3.6097064680
4.5508527647 3.5760178805 2.4742639668 2.7308265579 5.1968984115 4.9285978176 2.0893592378 1.6249607170 2.3446905759 7.0957518597 1.5873292769 -0.0903808945 7.6739708646 4.8381839710 2.5290969000 1.1671543869 4.9733589188 2.2386348021 3.7360311223 1.6131694118 4.6536512246 8.6121256140 1.6322620936 2.7074043537 5.9827410151 5.0571667448 0.1046490946 1.2852609567 5.0325980057 3.7757747061 3.5615355124 1.7359452851 1.0913070550 8.5855415137 1.5279057352 1.1679547062 6.0808403924 4.8390971933 3.6334212532 4.4559369118 4.9376935221 0.5381984483 0.4329915230 1.4397299717 3.2368292090 5.2479995470 1.8525845999 4.2667416165 9.3519108354 5.1263045759 1.6775659871 2.0185775281 6.1366244825 1.5485890955 3.1200584776 0.3386820261 4.0707225312 7.8960261014 2.8554337231 3.4061060284 6.6540947897 3.9218263134 0.9623566595 7.8248400473 0.4437138610 3.3599319957 6.6377907590 6.3408366786 0.6561428895 1.7681613915 3.6652748019 1.5941999178 2.9916837600 2.7478275942 3.8529251729
5.2039954135 3.0159223106 2.6026026953 2.6282484650 5.3046976113 5.0441181701 1.9631794875 2.0819912620 1.9478269992 7.1979395429 0.9826064817 -0.0786911627 7.9371645511 4.4605610354 2.5947181800 0.9676848010 5.3124240763 2.1523121744 3.9755196596 1.4604470544 4.5824700007 8.9705571209 1.5503417764 2.7288594736 5.8968048616 5.1212918764 0.2601448528 1.4280968009 5.1496399486 3.6133555914 3.5359964792 1.9495333103 0.9468249345 8.4868305758 1.5881705593 1.2480246203 6.3149410659 4.7807668361 3.8508757069 4.4303688728 4.6673957124 0.4810991279 0.3197334849 1.8868584721 2.8184105397 5.4965131880 1.7410232382 4.4090993608 9.6258718459 5.0903223795 1.9950962096 1.6866694322 6.5212692208 1.4332973171 3.7999984571 -0.0678762947 4.5060559286 8.3475478005 2.8061119005 3.4237182690 6.8096752551 4.1950916906 1.1562332090 8.4200035450 0.3506390031 3.6010373372 6.1135223475 6.5913126152 0.7495726866 1.5270328264 4.0606732504 1.3431216820 3.1618610252 2.1806976624 3.4965028099
4.4948102064 4.7217492431 2.1335073112 2.5447510726 7.6285160362 5.2496405594 1.9900809136 3.1079698008 2.3137507891 6.4301194031 1.4992915732 -0.3392701154 7.1518627045 5.8288396043 2.5691450332 1.3869161010 6.3649939538 2.5300330930 3.3216483679 1.9965527912 4.9403642182 7.7414490566 2.6782152598 2.5734796544 5.8038533152 7.0305903026 -0.1295011086 2.0650351837 7.3934460209 3.4843159678 3.4587769293 2.8718020405 1.0591452915 6.9498612410 2.1356791989 1.3084793163 5.7545283667 6.5643785562 3.5945071142 4.3056172162 6.7844670869 0.4066100839 0.2353302613 2.4568283047 2.2049361510 4.6974355731 1.9857136577 4.1684423773 8.9602358656 6.3990041600 2.9195399136 1.1893170054 6.9406933305 1.0802305271 2.8116707993 0.5832782816 5.1907116970 7.1192978561 3.9620587543 3.1706057065 6.7346253056 6.0176578870 0.6570788473 7.7624903761 1.5272896069 3.6026347770 6.2670279808 8.4959079780 0.0908039607 2.2879812255 5.0686785914 2.3397963833 2.2819365654 2.7857004744 4.0763923242
4.9036639366 3.3359456970 2.5890025807 2.6758742211 4.9386090193 4.9926779078 2.2717471023 1.5189176397 2.6446184862 7.2800805920 1.5594670121 -0.1792553715 7.7335297905 4.5366797947 2.5935005345 1.0296023147 4.5125607193 2.2071545778 3.9508500824 1.6853088149 5.0274113273 8.8606371415 1.5529661182 2.7050440278 6.0880906906 4.9422731796 0.3027440680 1.2848351100 4.6539938254 3.7215532852 3.7807986041 1.5029487156 1.3798879387 8.7527236561 1.5940570444 1.1755124399 6.3005963752 4.8182168628 3.9124010094 4.5479828865 4.9134805753 0.6757955800 0.4497848169 1.3970950715 3.1615530808 5.4432339595 1.8064343484 4.5357707263 9.4489981678 4.5610075412 1.7919606062 1.7105105605 5.7129371300 1.4035234310 3.2629784915 0.5270550836 4.2280513513 8.1214576200 2.7402286845 3.5141680468 6.7253448048 3.7291239199 1.1119349077 8.0990738658 0.3625052753 3.3566297744 6.7543891114 6.2018434828 0.9278284307 1.7768412061 3.2064790834 1.7591254574 3.2480053421 2.9351545741 4.3152365867
4.8928232775 3.3455792322 2.5864301485 2.6693733704 4.9487434319 4.9898067377 2.2645068620 1.5214345032 2.6345477149 7.2748835135 1.5672306191 -0.1827086804 7.7213377353 4.5365633872 2.5877672399 1.0337687715 4.5191299150 2.2079814909 3.9428984870 1.6826455692 5.0186862946 8.8490296637 1.5547624523 2.6978274719 6.0828861531 4.9537007811 0.2969215902 1.2861710579 4.6545188222 3.7210324666 3.7719060404 1.5199616010 1.3819987044 8.7452109816 1.6017138552 1.1647465322 6.3135671740 4.8238763848 3.9073758342 4.5399600925 4.9163540395 0.6806703276 0.4479151698 1.3953184423 3.1596756350 5.4368202997 1.8154570391 4.5364783301 9.4415157816 4.5890884035 1.7810073907 1.7145482040 5.7201427025 1.3958392101 3.2573583750 0.5160692161 4.2143918174 8.0986303146 2.7471453912 3.5013890241 6.7241141578 3.7413324343 1.0969593098 8.0818967981 0.3604868039 3.3677708979 6.7543852402 6.2011350213 0.9293866654 1.7800156321 3.2102549430 1.7603857797 3.2423310288 2.9241547367 4.3203335598
4.7795778389 3.3807294335 2.2765704520 2.6250441648 5.2911324567 5.2144587994 2.0315919618 1.8228755935 2.2673348198 7.1890030465 1.2140406124 0.0052485111 7.8313468480 4.7546231633 2.6674545251 1.0913823978 5.0588026439 2.3438584363 3.8844044019 1.4875241825 4.6347096532 8.8039800616 1.6366726114 2.8433361637 6.0547292372 4.8003392230 0.1648251165 1.3444753619 4.9454547053 3.8599384092 3.5971004293 1.6477993712 1.0099631192 8.3894582951 1.6117550448 1.3688939051 6.2901726348 4.6434842008 3.7696238067 4.5235319536 4.5086748493 0.3557179998 0.3536420822 1.4838801560 3.0387319103 5.4217272973 1.8056795353 4.3542001325 9.5656383462 4.9395513433 1.9339373061 1.7657979784 6.2609492829 1.5873232187 3.4741862847 0.0855148728 4.1559261645 8.2831732514 2.9099004939 3.5448845931 6.9231853625 3.8283055512 1.0071682249 8.2162505610 0.4384561486 3.6677206767 6.4763897831 6.1520727074 0.8266372881 1.7978338809 3.8503753208 1.5705998489 3.1231335395 2.6159091782 3.8024586392
4.6433304169 3.5527031586 2.5229264928 2.6722567121 5.1284860306 4.9039323608 2.0927623463 1.5847603294 2.4067172310 7.2004405055 1.6462406485 -0.1379199452 7.6465944094 4.7154385203 2.4695623902 1.1392011720 4.7931872179 2.1726977921 3.7801336223 1.7016249262 4.7497319631 8.6275306259 1.5781414202 2.6406951333 6.0265376266 5.0869892928 0.1906985042 1.1990610694 4.9770261443 3.7124938843 3.6871134033 1.6681811194 1.2119051628 8.5915099013 1.6664313506 1.0957299519 6.0331483049 4.8697681059 3.7364279386 4.5041498109 5.0310140277 0.5212971574 0.4112006187 1.3476107408 3.1823656782 5.2684964185 1.7947107750 4.3766203559 9.3112042757 5.0676642455 1.7080216685 1.9768883526 5.9973656768 1.5228113317 3.1775764787 0.3959682357 4.0613929158 7.8504080660 2.8457303542 3.2091965889 6.6756183839 3.8669299227 0.9590632604 7.8956346102 0.3743675896 3.4116042393 6.6730661790 6.3591902187 0.7693120920 1.8119905643 3.5509390079 1.5633965175 2.9150498178 2.7584681763 4.0141348093
4.6276362477 3.4893596234 2.2944924504 2.6690100667 5.2617281226 5.1394872272 2.0774011148 1.7660239598 2.3130427888 7.0741330876 1.3525622999 -0.0228308800 7.7860047332 4.8643979393 2.6549566879 1.1451681785 4.9676586427 2.3023618926 3.8281568081 1.5916223964 4.6134952034 8.7262897904 1.6276627344 2.8645586997 6.0803795185 4.8288010865 0.1564842277 1.2828432555 5.0041862880 3.8385581994 3.5549230881 1.7552202711 1.0357080489 8.4097874890 1.6184993986 1.3531916418 6.1651090965 4.6852780830 3.6855072783 4.5244249206 4.6848440352 0.4540339036 0.4227210310 1.4850735487 3.2126610379 5.3414972418 1.7107162543 4.3414015220 9.4525908540 5.1814978992 1.8893068570 1.7825410169 6.2119092320 1.4983859051 3.3815870867 0.2393903338 3.9912748028 8.1478887456 2.9281414758 3.5244087325 6.9042866546 3.8386435619 1.0187051444 7.9989238284 0.3967565143 3.5911169906 6.4683249085 6.2513002301 0.6916267341 1.9314585102 3.7842809597 1.6327746580 3.0520488207 2.6018579449 3.7511855412
4.5538362572 4.9827300079 2.4666452747 2.7215207836 7.7881970052 5.3246905896 1.9504536537 3.3613509154 2.4499002801 6.3882694267 1.5467073814 -0.1365343373 7.3970909721 5.9454679770 2.6940092561 1.5265137414 6.4572372044 2.5678093969 3.3302557349 2.2372953683 5.2025042118 7.7439529829 2.8010577202 2.6164182681 5.9045918498 7.1361683563 0.0603844636 2.1951025575 7.4627299825 3.4994560914 3.5336755983 3.0092463482 1.3013889720 6.6889530869 2.3327761822 1.5553025540 6.0119965934 6.7233079285 3.8122669766 4.3655637046 6.9380036311 0.4207868855 0.2011807884 2.6755331431 2.0775808743 4.7120995776 2.2477562048 4.4172674111 9.1038595348 6.5304758051 3.0681296513 1.3409585138 7.0745283192 1.1643119859 2.9040402380 0.7696326486 5.4965098795 7.1211006428 4.1192102075 3.1434161960 6.6366424806 6.1003889074 0.9793584962 7.7599383614 1.8150382168 3.8235885869 6.4242959019 8.5779301271 0.3174611472 2.3436901611 5.1484133030 2.5039558209 2.3677515540 3.0161936874 4.2955822148
4.8188591759 4.4187772868 2.3296713036 3.1819652325 7.7788649616 5.6313833776 1.7955423707 3.3057725260 2.5845535701 6.7044579031 1.3540818187 0.1134950649 8.0306817064 5.8490486369 3.2778476398 1.4103550997 6.6135466852 2.9864476708 3.6988690265 2.3061350800 5.3273418695 8.5129448037 2.4880093118 2.7668047814 6.2006869252 6.9047454483 0.7649838318 2.3451950283 6.8299732294 4.1930014072 3.2839380703 3.0777080706 1.3354012384 7.6428753254 2.2911897252 1.5224917508 6.7404994180 6.4336708272 4.6440231086 4.6626952689 6.9084746420 0.9915820730 0.4357069498 2.2544916986 1.9796436867 5.2450233961 2.4301813552 5.2372536551 9.4875525706 6.9831455781 3.7503404443 1.7191910524 7.4816064470 1.7550650608 3.2938637065 0.8291032281 5.5486746435 8.2482128799 3.9367488424 3.3598024200 6.6865841636 5.9298792179 1.8616155796 8.0255227415 1.4295871445 3.8153665936 6.8069504086 8.3521226720 0.8086118751 1.5661978926 5.1536526819 2.4849253584 2.9183907274 2.9124487679 4.1786520870
4.8152355330 3.4375255489 2.3383959897 2.6068195994 6.1148721132 5.3152840527 1.8623182964 2.6136833901 2.2539019622 6.8262373194 0.9798193114 -0.1928163504 7.6600557226 4.9088714862 3.0279329029 1.1265394781 5.5978938808 2.4493486425 3.6665811921 1.4793457384 4.8117943066 8.3319250614 1.7131967160 2.6310290487 5.7934923409 5.5845545920 0.3409681778 1.6119717328 5.3738227001 3.8903929123 3.2314821414 1.9900520868 0.9453129373 7.8654122013 1.7900405387 1.1430448365 6.1360536019 5.0787416345 4.1675151751 4.2568128815 5.2412851884 0.5248863387 0.1376211275 1.8896128057 2.7281901358 5.1852314799 1.8671142892 4.6300150901 9.3274625697 5.4245568568 2.4102377999 1.7792341257 6.7532995532 1.6690701820 3.3902219594 -0.0340810571 4.5524060450 7.8578506947 2.9980008152 3.4039798532 6.5835422668 4.7655647256 1.3745932884 7.6761202419 0.5421683219 3.4294890855 6.0718349227 7.1186223120 0.5863183813 1.5625825811 4.3274893616 1.6489721303 3.0258762133 2.3974968128 3.7612026289
5.2322906517 3.1298234113 2.5299843582 2.6352219458 5.4218895556 5.0473886190 1.8971154313 2.1758949944 1.9986627029 7.1531611084 0.9550552869 -0.0525997992 7.9212677192 4.5535645780 2.7446246142 0.9818057959 5.4325019177 2.1572898820 3.9043557448 1.3282704681 4.6420919463 8.8434954988 1.5139433791 2.7359921757 5.8871069534 5.2073692481 0.2431702602 1.4399287058 5.3139111857 3.6142027932 3.5207832606 2.0660379746 0.9807193283 8.4077472913 1.5523286065 1.2446322343 6.2996569019 4.8676572603 3.7980209830 4.3822333152 4.7994548528 0.5427153256 0.2608344393 1.8865949172 2.7802614781 5.4527693572 1.7354670364 4.4309472917 9.5440695751 5.1019985075 2.1095115041 1.6343173142 6.6234026760 1.4394655447 3.6904911327 -0.2070245289 4.5310443654 8.2994061652 2.7855945696 3.4966470341 6.7405165407 4.3552182626 1.2154503879 8.3176221088 0.3113874847 3.5490362576 6.0372459689 6.7295010904 0.6290912537 1.4333960403 4.2068179850 1.2414777585 3.1854857177 2.1470336420 3.5457425989
5.0392225397 3.3216890340 2.3789600680 2.6397267102 5.7699927653 5.1892840704 1.9322115073 2.4301812343 2.1438695697 6.9802927247 0.9696339478 -0.1050628822 7.7788449819 4.7647029735 3.0227660859 1.0447894430 5.5545327617 2.2527586251 3.7961083665 1.3840056906 4.7313367898 8.5501523587 1.5430593119 2.7606168663 5.8485233483 5.4323246105 0.2739921802 1.5418949799 5.3142898543 3.6863614700 3.3536060602 1.9666312346 0.9506995591 8.0619520055 1.5975351945 1.2720594568 6.1937424799 4.9446889650 3.9817522331 4.3081174944 5.0752475925 0.4138073302 0.1850803868 1.8713688563 2.7662648490 5.3298138171 1.5795240985 4.5757173335 9.4139299104 5.3456275531 2.2394837468 1.6805111936 6.7364387282 1.4651054234 3.5476621568 -0.1455182010 4.5771442807 8.0598145589 2.8635559576 3.4511626775 6.6972939879 4.6001616276 1.2598792642 7.8204107347 0.3611136227 3.4385482303 6.0755531780 6.9609754900 0.5621538246 1.5974388150 4.2848463787 1.4297297530 3.0898890795 2.1562412746 3.6496366844
4.9053844288 5.1076969962 2.8641356512 2.9193981776 8.3756491144 5.5972756029 1.7818024514 3.6897392107 3.0801751496 6.4172626564 1.2955024200 0.1687105342 7.7355653444 6.2952907338 3.1165907858 1.6324879325 6.8819451549 2.9080421763 3.3611022837 2.4810702508 5.8355936137 7.8394927878 2.9670582757 2.9590776129 5.9835368366 7.0652028842 0.3264426763 2.5259360326 7.7877687446 3.7964769589 3.0738546199 2.9647827398 1.7206402437 7.1632987348 2.2637364360 1.7101593143 6.2948459320 6.9171124006 4.2833417174 4.4358174619 7.0814714591 0.6268496760 0.1774705095 3.0083088963 2.4676976083 4.8428396338 2.4434724856 5.3008912776 9.3584431217 7.1395919218 3.6698776580 1.6397107943 7.3486172665 1.4389477371 2.8465920200 1.0346450269 5.9445017697 7.1374906893 4.3027175043 3.2845465001 6.6981448245 6.1824769371 1.4133955421 7.7223455289 1.9470303490 4.0982518431 6.5926712561 8.5059780699 0.5499587739 2.4017321059 5.4807761163 2.9462845667 2.4980543800 3.1429839896 4.7038589948
4.9237421236 4.6742232990 1.8520286727 2.8114746618 7.6277752270 5.5471580572 2.0364445019 3.1151047477 2.5379368538 6.7813660312 1.3607690089 -0.1679715139 7.5724037559 6.0319403579 3.0394896243 1.3778113436 6.4066379074 2.6966253735 3.7267668569 2.0633804205 5.2672375965 8.1255298154 2.7389085684 2.6025877751 5.9139069311 6.8724298347 0.2415512723 2.3528473586 6.9975817687 3.7580472324 3.5435462364 3.0429675658 1.1446890099 7.2480685206 2.3314274811 1.3531120158 6.1343722625 6.2063803322 4.1736415792 4.3869775832 6.7004943805 0.6317668232 0.2574613246 2.4231745308 2.0843591496 5.1843472380 1.9793264151 4.7148979305 9.2908274169 6.7802337935 3.2758341604 1.4533577723 7.3127816829 1.4160414449 3.1807554518 0.6412882704 5.5371437738 7.7888702405 4.1095575375 3.2045239449 6.7109744280 5.9980266553 1.2909393877 7.9119700845 1.6143472540 3.6712415548 6.3995492829 8.3268646315 0.1963978170 1.8914499961 5.0100183097 2.2022616617 2.8651853674 2.6288315437 4.0692529482
4.8154808178 3.3471972185 2.2881485471 2.6226351046 5.2919160611 5.2206487406 2.0246497001 1.8386726158 2.2499498273 7.2089556288 1.1829369441 0.0071435538 7.8417595072 4.7224422940 2.6545670663 1.0802085050 5.0676152002 2.3395713528 3.9034227569 1.4803900617 4.6219760272 8.8286186372 1.6263354203 2.8286289014 6.0465678188 4.8073594180 0.1850655703 1.3560996480 4.9416407708 3.8512794117 3.6064531637 1.6358346350 1.0119988494 8.3888388785 1.5923795651 1.3602563015 6.3159533371 4.6657611383 3.7788765575 4.5034315919 4.4753970325 0.3403757789 0.3374807442 1.5131237563 2.9945209744 5.4271150856 1.8183234923 4.3745805083 9.5653591673 4.8899738965 1.9422102677 1.7727232972 6.2894462860 1.6238730628 3.4841007959 0.0615526565 4.1937874996 8.3165856162 2.9056480455 3.5483318360 6.8977928736 3.8057565176 1.0028973559 8.2361061049 0.4560113181 3.6681350458 6.4860922455 6.1738110231 0.8208688887 1.7655489669 3.8502568162 1.5613018952 3.1385509442 2.5744139602 3.8046228955
4.8621469312 4.3982640740 2.4974290590 3.2113512514 7.8143454957 5.7961906586 1.8016493260 3.2588750382 2.6249320383 6.6333534534 1.3790044935 0.1173585444 8.0041399866 5.7518993873 3.3563162936 1.3684787533 6.5502924421 3.0931874781 3.6457586232 2.4694055551 5.2566956734 8.4149481342 2.4389659277 2.7312654062 6.2915405620 6.8165900686 0.8015741411 2.3056839912 6.8622400627 4.2826330694 3.1728930393 3.0241086552 1.3335825270 7.5680104779 2.3969029751 1.4471570239 6.8931252772 6.4453830199 4.6770917010 4.7327861124 6.7080589967 0.8427155439 0.3354581526 2.0200551039 2.1835193036 5.1701448422 2.7064872880 4.9244450853 9.4415793690 6.9071503156 3.6881670096 1.7561839409 7.5187650781 1.9381939527 3.2452093678 0.9715656036 5.3326814418 8.3549926451 3.8930223952 3.3768759882 6.7714903637 5.8729580282 1.9194672833 7.8610680959 1.4285548161 3.8048374272 6.7388321800 8.2789962971 1.1238163274 1.4408228633 5.0862010089 2.6152603030 3.0316044589 3.2241047695 4.0620373953
4.5370359904 3.5741468337 2.4486558835 2.7406803266 5.2192362957 4.9488850500 2.0881660607 1.6453802865 2.3373632465 7.0701327559 1.5568600722 -0.0736041635 7.6915833174 4.8696331056 2.5495384366 1.1729213727 4.9797562625 2.2498423115 3.7358091230 1.5984932374 4.5997508315 8.6345033809 1.6477452052 2.7245365248 5.9759250808 5.0370481189 0.1178529761 1.3020905094 5.0397047856 3.7858011112 3.5546921227 1.7786826839 1.0679574032 8.5467659201 1.5162809888 1.1856600076 6.1107089611 4.8266272202 3.6366870773 4.4611843516 4.8906221363 0.5350451298 0.4438784965 1.4759310432 3.2542642759 5.2361634032 1.8647543347 4.2781767768 9.3476042054 5.1576154733 1.7002270278 2.0035552679 6.1767076200 1.5405778674 3.1136461398 0.2911699653 4.0581726648 7.9296940146 2.8713083599 3.4557612583 6.6643582309 3.9184210292 0.9428561715 7.7952544358 0.4411531577 3.3843691266 6.6313382211 6.3521887219 0.6164403334 1.7874409565 3.6994123908 1.6245849897 3.0424292907 2.7425606242 3.8483921159
4.8038588154 4.1831135054 2.5131532955 2.9939273913 7.6133675877 5.7242882773 1.6660819088 2.9968852974 2.5606824657 6.6295635862 1.2250444751 0.0224296275 7.8818772281 5.4987057999 3.3116114561 1.3009489572 6.3806275361 3.0791558443 3.6516435247 2.4231890428 5.0728397194 8.2288680177 2.2987870020 2.6420375459 6.0929454748 6.5385905253 0.6599337568 2.1045524757 6.6592012067 4.3902510980 3.2072461245 2.7806575814 1.1990904073 7.5452187766 2.3037672900 1.2742011003 6.7802385427 6.3266238364 4.5631958166 4.5609370428 6.3913693413 0.6477635589 0.1553324297 1.9165525451 2.3204583154 5.1873298832 2.4381849327 4.7931476565 9.3795613585 6.6416697323 3.6044194724 1.8671297838 7.3187961845 1.9692810739 3.2354097346 0.9174510636 5.0048111920 8.1784127030 3.7128864265 3.2856292532 6.6755122665 5.6274621132 1.7697247478 7.5020274546 1.3069546223 3.6087958345 6.4473725713 8.0183811029 0.8899514157 1.4951064864 4.9329583107 2.6133224369 2.8771017816 3.2160891334 3.9846886142
4.7701254425 3.4671274740 2.3358596228 2.6107027289 6.1950667526 5.3450052219 1.8354434513 2.6293106888 2.2736247783 6.7800232254 0.9850212394 -0.2101580637 7.6241572240 4.9397639103 3.0121453035 1.1515045423 5.6307626611 2.4937126755 3.6567673128 1.5508113391 4.8234047026 8.2846540204 1.7579437039 2.6111731359 5.7672481114 5.6291835202 0.3539384385 1.6150019800 5.3992566152 3.9442684786 3.1954167247 1.9954718977 0.9225418593 7.8168850734 1.8423379250 1.1165880191 6.1486492368 5.1593450265 4.2397913902 4.2370941038 5.3030453540 0.5670754613 0.1428425589 1.9240301130 2.6964129027 5.1701113722 1.8929007021 4.6710265536 9.3139420344 5.4343387306 2.4660692128 1.8290765064 6.7804768892 1.6982418247 3.3687577031 0.0520018638 4.5213970980 7.8389878843 3.0407356885 3.3690069519 6.5538585648 4.7946162302 1.4054339873 7.6590061464 0.5933312092 3.4172129578 6.0673337842 7.1583872440 0.5545718170 1.5190475563 4.3402259948 1.6614007452 2.9768017892 2.4495537423 3.7883206227
4.8401514847 4.2662565684 2.5166374999 3.0729501765 7.6875932734 5.7492046123 1.6862507708 3.0605003132 2.5948351343 6.6316432607 1.2704115530 0.0506886494 7.9215265295 5.5403938367 3.3214573607 1.3227247735 6.4671656025 3.1267762530 3.6614780772 2.4617175141 5.0845023292 8.3210733843 2.3597775729 2.6919312457 6.1860174864 6.6503836106 0.7095315157 2.1834472863 6.7505063947 4.3631793292 3.1852312305 2.8621455589 1.1869884977 7.5384918318 2.3610788941 1.3438713252 6.8356244830 6.3746997327 4.6484459811 4.6014427411 6.4773476404 0.6905138770 0.2293252928 1.9725363270 2.2966873044 5.1985261952 2.5423415021 4.8028812912 9.3927342067 6.7756691438 3.6423425693 1.8250886687 7.3517423114 1.9485140064 3.2309114265 0.9665113501 5.1229861198 8.2194443354 3.7761603290 3.2740154071 6.7434084728 5.6961162728 1.7988502009 7.6167073090 1.4264639290 3.6583616764 6.5580691590 8.1375695622 0.9821993436 1.4883388658 5.0163073346 2.5861014535 2.9192172507 3.2702744477 4.0291444216
5.1769361207 3.1048222848 2.4717973799 2.7823274166 4.7014030383 4.8736935738 2.2413619935 1.5239945619 2.5200020722 7.5849893770 1.4713472466 -0.0465440039 8.1482843378 4.7059912514 2.5453687554 1.1502753230 4.5395647299 2.1448725142 4.0930762313 1.6555736135 4.7421550975 9.2442400136 1.5813668630 2.7078623764 6.2535964945 4.6803456236 0.2757190894 1.4303923601 4.6485235535 3.6457239228 3.9310961410 1.6766369756 1.2926404561 9.0516199881 1.6334318888 1.1798688486 6.4154770403 4.5343060055 3.6964655025 4.7109519072 4.7524342816 0.6647873456 0.3938854598 1.4027474791 2.9977105343 5.5869845185 1.6066539851 4.2222056183 10.0119147165 4.4767877787 1.8658876397 1.8297596580 5.7390372747 1.3722411178 3.2958079285 0.3942465076 4.1125658046 8.4370632075 2.7222226987 3.4605353407 6.9230369038 3.4941139945 1.0684505294 8.5439872313 0.2847329229 3.4092060286 6.9356740503 6.0061486776 0.7654971411 2.0041839035 3.2984050133 1.6665872528 3.3266051284 2.8110306773 3.9682854562
5.2285233508 3.1525417832 2.5126920316 2.6412578494 5.4501574727 5.0562284548 1.8912131835 2.1953384721 2.0101318948 7.1400759960 0.9518614170 -0.0463518283 7.9136446500 4.5741473173 2.7757023687 0.9885121054 5.4540264109 2.1572337197 3.8976452917 1.3142825292 4.6494871764 8.8164732313 1.5088470080 2.7377479209 5.8815023505 5.2269685342 0.2424339806 1.4345445832 5.3259618190 3.6124133226 3.5180304294 2.0748213010 0.9621908185 8.3746689724 1.5430624660 1.2441731773 6.2947435765 4.8872250736 3.8124670434 4.3696843463 4.8228898316 0.5369728846 0.2547977494 1.8904887677 2.7796904519 5.4385811972 1.7218843868 4.4466398902 9.5288079468 5.1103420931 2.1327489582 1.6372402220 6.6479974629 1.4293344686 3.6662255835 -0.2268018831 4.5359450592 8.2918890152 2.7819976539 3.5049224118 6.7307378742 4.3749367640 1.2148681757 8.2804221405 0.3087989943 3.5342875696 6.0436548451 6.7694763428 0.5988734306 1.4310209075 4.2177491194 1.2362773053 3.1898868535 2.1398771849 3.5775941965
5.0479232303 3.2068191876 2.5902731080 2.7791752211 4.7965322681 4.9866239564 2.3157619689 1.4937022322 2.7431055075 7.4281784197 1.4559701325 -0.1221129315 7.9341093839 4.6146908390 2.6532205055 1.0530171229 4.4137000240 2.2213029736 4.0245687650 1.7332121399 4.9571443218 9.1118725491 1.5353779410 2.7246434819 6.1036869919 4.8049862222 0.3180181511 1.2263771057 4.7403212821 3.7224793177 3.9574203453 1.4967020277 1.3772176083 8.8386516312 1.6309851570 1.2079354859 6.2536584991 4.6302536939 3.8879131685 4.5573903816 4.8078347523 0.6579117274 0.4635299670 1.3943310621 3.1701860721 5.5099970540 1.7532699762 4.4570189086 9.6736760205 4.2790421229 1.8890609298 1.7352436133 5.6311233273 1.4343287359 3.1745864893 0.5564337045 4.2208801825 8.4044402303 2.7158612424 3.5501492806 6.7769383011 3.6753397144 1.1712857664 8.2660556586 0.2706822992 3.3359652028 6.8365539811 6.0610470159 0.8463253197 1.8712969343 3.1908619083 1.6097592628 3.3450519108 2.9769487427 4.2938536988
4.7697309339 4.1107504750 2.5106656550 2.9380285428 7.5567021558 5.6955302402 1.6673859473 2.9542486505 2.5182660582 6.6405740806 1.1856864719 0.0048784865 7.8551339911 5.4947049043 3.3113300463 1.3046425948 6.3122667619 3.0543022550 3.6175926300 2.3411720309 5.1127725999 8.1634134915 2.2226910747 2.6410482727 6.0489062966 6.4453735260 0.5920410490 2.0622924985 6.5734445833 4.3968721072 3.2514667339 2.7108814025 1.1950130209 7.5364856469 2.2691315168 1.2103747788 6.6837187862 6.2814949785 4.5536434896 4.5008329121 6.2967439647 0.6286332964 0.1139759253 1.8725842358 2.3374300802 5.1430321949 2.4311638773 4.7902876141 9.3790806139 6.5208255148 3.5334955946 1.8783410135 7.3052483519 2.0077046482 3.2377234967 0.8490303457 4.9173152085 8.1568569176 3.6139653758 3.3170784256 6.6102440620 5.5621473144 1.7691475272 7.4468184266 1.2127170141 3.5506477950 6.3687238037 7.9272037858 0.8554397343 1.4848827655 4.8383994106 2.6047360176 2.9182742898 3.1595297496 3.9746753945
4.8388362247 5.1168171353 2.6438035399 2.8366331608 8.0388873160 5.3390282677 1.8571403564 3.3877654692 2.5571070219 6.4540087806 1.4791975995 0.0104792162 7.5509559393 6.0459114648 2.8148664993 1.5738231128 6.6360916799 2.6782943911 3.3748885435 2.3810499855 5.3889747838 7.7576063708 2.9549360440 2.7104511210 5.9485739267 7.1295700789 0.2053829749 2.3133756533 7.6624461225 3.5719994760 3.4150429070 3.0186551601 1.5185594558 6.8688961751 2.3653841865 1.5719431126 6.2373278268 6.7958845754 4.0037354322 4.4065232183 7.0350647236 0.5767533563 0.1740004968 2.6262808487 2.0404167680 4.8465766553 2.3700273248 4.8003029471 9.2306942795 6.7426290621 3.3478885881 1.4456164685 7.3018084295 1.2733308929 2.8697182045 0.9288176782 5.6390193586 7.0445188935 4.2281195600 3.2033187113 6.6543954850 6.1344348717 1.1856191759 7.8162997889 1.9869702020 3.9121358056 6.5028953616 8.5681620318 0.4347800028 2.5331616953 5.4020878295 2.5627269917 2.3080382648 3.0367903612 4.4662121316
4.6671010469 3.8302175908 2.4702065565 2.8118539694 7.1547646589 5.6011146769 1.7726700742 2.7755757962 2.3395896423 6.6825822956 1.1022616537 -0.1460710653 7.6762075419 5.3430340137 3.1726208743 1.3298466830 6.0595492822 2.8842504484 3.6288897431 2.1297377926 4.9786343254 8.1593636463 2.0636218908 2.6290140639 5.8305641256 6.1740011381 0.5860486222 2.0305394534 6.0136543327 4.2467773691 3.1327411838 2.2980515559 1.1356261766 7.4912307697 2.1380004294 1.2214253956 6.3397305558 5.8250616608 4.4848685310 4.2699616907 5.9189636630 0.6169144848 0.1230135266 1.8623064535 2.4505779431 5.1645687062 2.3381690708 4.9689598640 9.3535566154 6.2565125424 3.0589546354 1.9880947322 7.1152576436 1.9560003037 3.2130674825 0.6468798458 4.7381611322 7.9404395087 3.4198094811 3.3702932898 6.4786300822 5.2665449605 1.6695162933 7.4261100092 0.9557080397 3.4243936324 6.1681823145 7.6774565727 0.8915635830 1.4982947963 4.6695214028 2.2038311067 2.9037140783 2.9566084132 3.9381743454