-28927.3157242644
-28927.2015087569
-28927.2979861247
-28926.8589676785
-28926.9960499886
-28927.1151689849
-28926.8833769576
-28926.9045215526
-28927.0576128559
-28926.8577643918
-28926.8522042926
-28927.5662305031
-28927.1159027395
-28927.6866054402
-28927.1170494267
-28927.3529212546
-28927.1039725947
-28927.4348419001
-28927.0234006807
-28927.0632702357
-28926.7979659098
-28927.4147961002
-28927.7773957678
-28927.264902133
-28926.8443808876
-28927.1015653408
-28926.7581454713
-28927.5713772616
-28927.6214648221
-28927.773473793
-28926.790583329
-28927.1222375464
-28927.0862954085
-28927.5130834323
-28927.4277197322
-28926.8664401928
-28927.7911894833
-28926.8719009706
-28927.4021243095
-28927.5245734333
-28926.7292663165
-28927.1115047019
-28926.8248201304
-28927.6399402538
-28927.1816549332
-28927.0183875301
-28927.6117387982
-28927.4175418635
-28926.973240602
-28927.4030153458
-28927.106620261
-28927.341195059
-28927.4720944016
-28927.7489816553
-28927.4006774809
-28927.6388573773
-28926.9331090015
-28927.7790962063
-28927.7682864896
-28926.8494921353
-28927.248639802
-28927.1521276036
-28926.8524281061
-28927.2693945941
-28927.830976996
-28926.8485619146
-28927.7660924368
-28926.8399252979
-28926.859097885
-28927.0438443108
-28927.1634947452
-28927.4947256898
-28926.7635267918
-28926.9161229841
-28927.1196702897
-28927.5798989103
-28927.7525547803
-28926.8954505064
-28927.541849796
-28927.3027131478
-28927.2254387077
-28927.3150541844
-28927.5026651512
-28927.5261228487
-28927.0392825968
-28927.7345502413
-28927.6746531181
-28927.6569918506
-28927.3822859963
-28927.1158710383
-28927.1183558445
-28927.2523544261
-28927.6814129666
-28927.4941764283
-28927.55828696
-28926.6210215278
-28926.7810502338
-28927.4669404321
-28927.1006454605
-28927.6378440259
-28927.0277452481
-28926.9276895851
-28927.2491919207
-28927.681895016
-28927.5000934046
-28927.6904919041
-28926.6017790076
-28927.2486531356
-28927.043267838
-28926.811553227
-28927.6695954768
-28927.1499248432
-28927.1809092056
-28927.1374187697
-28927.7877155438
-28926.7946251699
-28927.6630601221
-28927.7814874054
-28926.6300680838
-28927.5705990165
-28927.7040875209
-28927.0590615892
-28927.1076699396
-28926.8023243549
-28927.1832940101
-28926.7776135738
-28927.3127178161
-28926.94956154
-28927.7142618521
-28927.5920140925
-28927.0577851038
-28927.0670488065
-28927.4833981407
-28927.1550992213
-28927.1163536319
-28927.2426556136
-28927.2741862442
-28927.6543037754
-28927.5164766901
-28927.0828382039
-28926.854969512
-28927.6902268654
-28927.6053864399
-28927.435686405
-28927.0011579709
-28927.1032542145
-28927.2309234314
-28927.2256623852
-28927.716999588
-28927.0425576212
-28926.9930583706
-28927.5621730158
-28927.7273620859
-28926.770084732
-28926.745355175
-28927.038744628
-28927.129602984
-28927.005990166
-28926.7896669862
-28927.105069485
-28926.8653196286
-28927.3652775295
-28927.400275433
-28927.6162096263
-28926.8501667052
-28926.9409140388
-28927.6683355904
-28927.2827510229
-28927.4547149078
-28927.8480179804
-28927.1691529414
-28926.7021163082
-28926.9043205967
-28927.5349038217
-28926.8548008015
-28926.7006430847
-28927.2663901867
-28927.4359589268
-28927.6304119205
-28927.127516144
-28926.8888653549
-28927.2297968807
-28926.886043944
-28927.7661331178
-28927.2572845821
-28927.4392656525
-28927.4804355028
-28926.8834211761
-28927.4783221318
-28927.4535981532
-28927.8079172648
-28927.0312168746
-28927.6237537065
-28926.8594865994
-28927.2594326476
-28927.6134680807
-28927.0795205937
-28927.49560693
-28927.6155736965
-28927.0253881992
-28927.1837678961
-28926.9038818133
-28927.1129829595
-28927.6849806493
-28926.9164206765
-28926.9169517064
-28927.3451318639
-28927.4124219082
-28927.435401638
-28926.9179341729
-28927.4070185465
-28926.9357011566
-28927.3955716756
-28927.2540819399
-28927.6554998512
-28927.2026347634
-28926.8510029106
-28927.0119885043
-28927.539217368
-28926.9524833609
-28927.7488413807
-28927.5691579023
-28927.0500901366
-28927.4575829862
-28927.7568624762
-28926.7911785777
-28927.4741579758
-28926.7029808135
-28927.1352447173
-28927.3506651599
-28927.5554164326
-28927.0572406043
-28927.7214813007
-28926.7665490226
-28927.5210483363
-28926.8497958142
-28927.3661455722
-28927.5724952408
-28927.1396175845
-28927.1917408275
-28927.4560439111
-28927.06631029
-28926.9388168585
-28927.4378072591
-28927.4398845751
-28927.1280753377
-28927.1960147813
-28927.3508825788
-28927.7726759557
-28926.9587210232
-28927.8207108264
-28927.5245101668
-28926.689582207
-28927.5297702607
-28927.4284499493
-28926.6196181014
-28927.5872184967
-28926.877148003
-28927.3678032889
-28927.1503583203
-28927.1481313418
-28927.0479700988
-28927.2106534099
-28927.5137389542
-28927.2325014188
-28927.7159720867
-28927.3223388041
-28927.3070853347
-28927.1718001996
-28927.4193394466
-28926.6681891722
-28927.2616915995
-28927.49187353
-28926.8704179509
-28927.1072089789
-28927.6903248263
-28927.4812961984
-28926.8441929931
-28927.1527730573
-28927.1396179926
-28927.3568851349
-28927.2813171198
-28926.8532327463
-28927.7314711388
-28927.6302591287
-28927.7270151409
-28927.6564379631
-28927.8003938652
-28927.4772798002
-28927.5077272823
-28926.8624433868
-28927.1504190017
-28927.4914203247
-28927.1358324829
-28927.2365980905
-28927.0396913116
-28927.3552689156
-28927.5336795821
-28927.3199574011
-28927.1132543929
-28927.0527416125
-28927.6010142531
-28927.770008153
-28927.4144352775
-28927.1240447896
-28927.136955224
-28927.1004785187
-28927.3180935583
-28926.6782788761
-28926.9599341061
-28926.8593344878
-28927.8038071234
-28927.0503798016
-28927.0056716569
-28927.439384022
-28927.0996503407
-28927.1795380247
-28927.0486302466
-28927.0727733985
-28926.7741672538
-28926.8586063116
-28927.547995756
-28926.8481069405
-28927.8045830557
-28927.7513810179
-28927.3530860195
-28927.2048647351
-28926.7892098351
-28926.9114506559
-28927.1093046626
-28927.4280193294
-28926.8668787041
-28926.9786153918
-28927.2558067326
-28927.2590759066
-28926.9094253136
-28927.4009569417
-28926.8648925462
-28927.3208224506
-28926.7499281818
-28927.6075468866
-28927.4770178908
-28927.6171995759
-28927.75044794
-28927.2007433011
-28927.6493683132
-28927.6219807496
-28927.7972755783
-28927.1649676967
-28927.1383704874
-28927.4933169572
-28927.2600040864
-28927.1321249338
-28927.4307000575
-28927.6217665962
-28926.8551432566
-28927.6353413962
-28927.3272148095
-28926.9833101694
-28926.8503354157
-28927.1675873353
-28927.0539526545
-28926.9330628783
-28927.5273756601
-28927.2637506839
-28927.2483559874
-28927.1237700908
-28927.4875510039
-28926.7912955866
-28926.961504066
-28927.4863743843
-28927.789551631
-28927.7725624843
-28926.8351291579
-28927.6877250521
-28927.671041353
-28927.1316227479
-28926.7204979968
-28927.1431303002
-28927.2701943363
-28927.2466401745
-28927.4817489956
-28926.7187359245
-28926.9246314353
-28927.2557333979
-28926.9875324217
-28926.769744862
-28927.1447455671
-28926.9153773926
-28927.1115438862
-28926.6969227462
-28927.8192532494
-28927.2885528952
-28927.5539217121
-28926.8042601717
-28927.4679897025
-28927.0225787613
-28926.8449715104
-28927.1291382138
-28927.4565418792
-28927.0812989928
-28927.4510933466
-28927.0705721347
-28926.8040052012
-28926.9301930311
-28927.1305945663
-28926.8514101287
-28927.086265476
-28927.4448951407
-28926.8731951433
-28927.0991100589
-28927.8387636656
-28926.87994574
-28927.0911387602
-28927.7915164279
-28927.0079131935
-28927.1098019504
-28927.4973518591
-28927.6344756665
-28927.5203974404
-28927.6126233038
-28927.4356771531
-28927.320715782
-28926.7713971363
-28927.1902523655
-28926.8704384955
-28927.1787087582
-28927.0161435444
-28927.2255788463
-28927.0151916907
-28927.1122536948
-28927.8508638815
-28926.8531101591
-28927.3579167179
-28927.0633204407
-28927.7063803509
-28927.6297848345
-28926.8942681724
-28927.6455723271
-28927.5242002293
-28927.7784427252
-28927.6032453133
-28927.4452003162
-28927.685185551
-28926.751843182
-28927.7386284094
-28927.4136134941
-28927.5707037802
-28927.2703893057
-28927.7820091834
-28927.7653680702
-28927.3853788406
-28927.8410158146
-28927.5272590594
-28926.8545799812
-28926.9102428792
-28927.1570815696
-28927.743002365
-28926.8545793009
-28926.8434195099
-28926.990328526
-28927.701175088
-28927.0759203934
-28927.4226801865
-28927.4559825495
-28927.1484484903
-28927.7457817343
-28927.3638467557
-28927.3282843524
-28927.0637554144
-28927.7450780483
-28927.8109471148
-28926.8203170569
-28927.7354551555
-28926.8800314558
-28926.8750804831
-28927.634929144
-28927.652060334
-28926.8250282974
-28926.8256824587
-28926.8450531445
-28927.0222130405
-28927.0762891075
-28927.1191316407
-28927.2441976819
-28927.0958373475
-28926.8924712696
-28926.8276050781
-28927.4521896927
-28927.0371976616
-28927.4671646537
-28926.9080594389
-28927.6954710406
-28927.6680795314
-28926.988476112
-28927.6994059408
-28926.9166312925
-28926.8725969013
-28926.8653403093
-28927.249070558
-28926.8667721716
-28927.1327139239
-28926.9872590834
-28927.3824400127
-28926.911039356
-28927.133685914
-28927.0994062547
-28926.7084973745
-28927.3012550266
-28927.2499199609
-28927.7147176426
-28927.4508775604
-28927.5682136678
-28927.216038676
-28927.610711569
-28927.6160625488
-28927.7265071046
-28926.8299247113
-28927.7103638234
-28927.4987166453
-28927.1492285043
-28926.9230718156
-28927.2623955576
-28926.9053638806
-28926.8536681282
-28927.2627788298
-28927.5429655982
-28927.0946869868
-28926.8692210588
-28927.6881789377
-28927.4211996159
-28926.9488564934
-28927.1615582481
-28927.6825072719
-28927.0702989326
-28927.7325546955
-28927.2184664744
-28926.7759572177
-28926.8747640148
-28927.4903701018
-28927.7523870222
-28927.370536535
-28927.0459367291
-28927.2581254134
-28927.3951776549
-28926.8149456685
-28927.0339539303
-28926.8610513892
-28927.4930192648
-28927.034376795
-28927.5482013379
-28926.7936485538
-28926.9053304106
-28926.9424888968
-28927.6251233908
-28927.3048140016
-28926.7285771886
-28926.9076666428
-28927.4563003783
-28927.1407223661
-28927.6294267329
-28926.9913327616
-28927.0587075693
-28926.7847528849
-28927.3111463595
-28926.7896491627
-28927.6608426676
-28927.3837494238
-28927.2236940507
-28927.1421776301
-28926.8730465692
-28927.000909395
-28927.7379464924
-28927.1481132463
-28927.3141149839
-28926.9742442934
-28927.1745094996
-28927.1424003552
-28926.7988649734
-28927.5435279211
-28927.125273655
-28927.4629832186
-28926.6976316024
-28927.8465088378
-28927.7830119224
-28926.8622700504
-28926.977763948
-28927.395201873
-28927.1390631528
-28927.1181652289
-28927.3191582032
-28926.9010721033
-28926.7766462096
-28927.0352773553
-28927.7918533047
-28927.7264307767
-28927.5531502697
-28927.7290332722
-28927.3852520356
-28927.1396838442
-28927.7418409837
-28926.6734353883
-28927.0585104229
-28926.7754431949
-28926.821645516
-28927.5330413395
-28926.794175502
-28927.8179137697
-28926.8137972126
-28926.988062227
-28926.9093887143
-28927.0100288775
-28927.63489581
-28926.8719541688
-28927.1474484725
-28927.214547493
-28926.8792129378
-28927.1543549903
-28927.2788421096
-28927.1284067722
-28927.5242776457
-28927.0529922292
-28927.1501911065
-28927.0025469753
-28927.0276810292
-28927.2157766305
-28926.8790847722
-28927.2631702653
-28926.9423128392
-28927.6862254335
-28926.9573848089
-28927.1124712497
-28927.1521963123
-28927.7527513825
-28927.1768649158
-28927.5411857025
-28926.8663993758
-28927.7311497725
-28926.605889285
-28927.8159393127
-28927.7280925751
-28927.126439118
-28927.1506116582
-28927.8187313353
-28927.3276216195
-28926.7057731082
-28927.0171407051
-28927.6301132757
-28927.0566833155
-28927.7357769299
-28927.0152322357
-28927.5677348837
-28926.9928985038
-28927.1216821624
-28927.4487907204
-28927.3765997724
-28927.1552419449
-28927.500601713
-28926.740463115
-28927.1478156899
-28926.7563840793
-28927.1293139992
-28926.8714900789
-28927.3532171783
-28927.6617513913
-28927.003178143
-28927.0299005246
-28927.126982257
-28926.849063012
-28927.0744790072
-28927.1766494017
-28927.2223653195
-28927.1357954754
-28927.2700250815
-28926.879407363
-28926.8390503163
-28927.2179203423
-28927.5659027422
-28926.7811294188
-28927.7380432288
-28927.1525912854
-28926.9736167992
-28926.8790141587
-28927.3391358386
-28927.323283719
-28927.3053182283
-28926.9821550468
-28926.6097342516
-28926.897773405
-28927.3427567195
-28927.4192978132
-28927.5513060191
-28927.2123617397
-28927.244851299
-28926.8553710157
-28927.5337527807
-28927.2447134734
-28926.8764760182
-28926.7406780848
-28927.6964910588
-28927.6494541651
-28926.8686013198
-28927.2760511755
-28926.8148939669
-28927.0458787689
-28927.0750447315
-28927.0093638316
-28927.2170355646
-28926.8781476126
-28927.3140427377
-28926.9431040098
-28927.4213464212
-28926.8344598943
-28927.4090140923
-28927.1088979887
-28927.7133010186
-28927.4696887804
-28927.4191976754
-28927.0401623404
-28927.2375779719
-28927.3017910906
-28926.7290237272
-28926.874268904
-28927.4362831503
-28927.7667395232
-28927.4075429096
-28927.3192348032
-28927.2639343606
-28927.3846061738
-28927.4850553131
-28927.0911677403
-28927.4150003216
-28927.2128416122
-28927.3689337853
-28927.4346722372
-28927.0268671372
-28927.4577601322
-28927.2675832693
-28927.4880999933
-28927.131960441
-28927.385425236
-28927.0743304331
-28927.4616237386
-28927.0728685022
-28927.4747554014
-28926.7722264028
-28927.7381913948
-28926.7856029681
-28926.7917878403
-28927.2384073745
-28927.0251300994
-28926.7860195741
-28927.1156345715
-28927.2973946856
-28927.1033759854
-28926.9347113431
-28926.9376350687
-28927.4441487328
-28927.069816611
-28927.5476671787
-28927.1529795916
-28927.0977957498
-28927.2553178803
-28927.1475994956
-28927.1705316055
-28926.8647228833
-28927.2879560138
-28927.25861032
-28926.8666509449
-28926.8105990603
-28927.6813506526
-28927.6811688806
-28926.8177496641
-28927.8202535394
-28927.8513930066
-28926.9086538713
-28927.2604796051
-28927.2529521238
-28927.4410915354
-28927.2366785001
-28927.117469026
-28926.5983086055
-28927.3952614659
-28927.4988212731
-28927.3854791145
-28927.0828722182
-28927.615510158
-28926.968492354
-28926.6986627772
-28926.7466756068
-28927.3340669046
-28927.1892550688
-28927.2001672363
-28927.1380589172
-28926.8981807592
-28927.7038936399
-28927.0499804748
-28927.251260393
-28927.0759093728
-28926.9971370828
-28927.1038517762
-28927.3120918186
-28927.452877324
-28926.9467069313
-28927.2638392569
-28926.9176372969
-28927.0139799684
-28927.1543114521
-28927.1674229786
-28927.4769301341
-28927.5594868454
-28927.1221014896
-28927.107620823
-28927.086512147
-28927.1185396573
-28927.767401848
-28927.2467148697
-28927.3934506853
-28926.8773315437
-28927.1330057658
-28927.1719972099
-28926.9323200079
-28927.0938158148
-28927.336841648
-28927.4959149627
-28927.5759640101
-28927.7752828049
-28927.4152246793
-28926.8431502534
-28926.8548048832
-28927.3219475047
-28927.6563884385
-28927.5623126101
-28926.9451492164
-28927.4330191465
-28927.2435269216
-28926.9926959151
-28927.7035154018
-28926.8504762345
-28927.0044236074
-28927.7295015798
-28926.8236055509
-28927.240964699
-28926.6497453057
-28927.5239653952
-28926.6435989375
-28927.7526000872
-28927.0199757217
-28927.3353073349
-28927.4518272372
-28927.2704176056
-28927.7455362877
-28927.1969775196
-28926.917355115
-28927.4989453569
-28926.9785100838
-28927.2441670691
-28927.4429442216
-28927.2145491256
-28927.5397938409
-28927.2601119795
-28927.638334783
-28926.7522772033
-28926.7915961362
-28926.815459011
-28926.9718279237
-28927.6434570512
-28927.57232585
-28927.1561665873
-28927.4930791298
-28927.5500956574
-28926.9698877531
-28927.631238874
-28926.8053322997
-28926.9255891395
-28927.6478208026
-28926.8407336117
-28927.0883432001
-28927.2956026808
-28926.7375276884
-28927.5164731527
-28927.0865400387
-28927.4562560237
-28926.9853795941
-28927.2558370733
-28926.7842658013
-28927.6233896183
-28926.915646377
-28927.2543331008
-28927.2905363319
-28927.1301214966
-28927.4742498142
-28926.8746071413
-28927.0771496671
-28927.2883445921
-28927.142193957
-28927.0022510516
-28927.0715024915
-28927.0249666951
-28926.9691373995
-28927.2576137036
-28927.6435846726
-28926.6588869654
-28927.0306949606
-28927.1022184137
-28926.7661664307
-28926.8949666883
-28926.9741100053
-28927.2554699919
-28927.7273809978
-28927.1175209997
-28927.2754598724
-28927.211680367
-28927.2813504537
-28927.7380849983
-28927.6655295539
-28927.389347755
-28927.4062189404
-28927.2701095728
-28927.2528122574
-28927.3589470764
-28927.1041687886
-28927.2545668465
-28927.4336093611
-28927.3952380642
-28927.229641912
-28926.6402108498
-28927.7775628456
-28927.5343576895
-28926.8710468056
-28926.8860737405
-28927.3909038372
-28927.2560414307
-28927.5332685544
-28927.2474252225
-28927.3786606255
-28927.3114014661
-28927.2486370808
-28926.7097856968
-28927.7560126651
-28926.7825569273
-28927.0284551927
-28927.4078035945
-28927.6430977251
-28927.0371718108
-28927.228404747
-28927.8137732877
-28927.3938573593
-28927.805246877
-28927.508961454
-28927.7802294238
-28927.0184988246
-28927.5444927003
-28927.0386182312
-28926.5974096779
-28927.2310505085
-28926.9835588814
-28927.4641372528
-28926.8682266193
-28926.8044094261
-28927.3725689522
-28927.7640891358
-28927.3068434256
-28927.8283821198
-28927.7186842439
-28926.7914732769
-28927.5407393
-28927.4208344393
-28927.8163565991
-28927.241543893
-28927.6837418517
-28927.143469762
-28927.6427128203
-28927.0119389796
-28926.8730748691
-28927.6474295031
-28927.4967849102
-28927.6969532439
-28927.1416908187
-28926.756019447
-28927.1326624944
-28927.5261382231
-28927.5474209158
-28926.7125615286
-28927.4926989869
-28927.0852873633
-28927.655121341
-28926.7731024729
-28926.8956018016
-28926.7154109672
-28927.032421658
-28927.0921712956
-28927.315507934
-28927.7667789797
-28927.1157766148
-28927.1405766492
-28927.7330717116
-28927.0682712773
-28926.9077880055
-28926.8235905847