-0.223265998465798 -0.0739924540758455 -0.127884548248494 -0.144463784192594 0.599813889077834 -0.489639861579575 0.900097500035158 0.89295086538258 -0.81542391761811 0.54584697584187 0.0697653055536468 0.048872789175972 0.084977486653605 2.28855496715786 0.197786122199244 -0.279273852336104 0.0326589068022174 -0.102566394287181 -0.671370738388106 -1.77391036893031 2.3179282629288 -0.567983391285928 -0.417537938680892 0.384520620283276 0.10543548682165 0.284730758864609 -1.34239309247796 0.391719962523413 0.0488218813596959 0.273283699287616 0.45282271178426 0.0499868475998323 -0.0531223062841103 -0.168871253884969 0.0352248664306794 -0.420699622603858 -0.799856667355135 0.140394501322888 0.561368460492233 0.371652255613484 -0.176539050878919 0.27955924463947 0.134884115876275 -0.140481404564814 -0.087479425846447 -0.731952582417765 1.067754679635 -0.153965805233583 0.240697040446881 -0.349584488588345 -0.636844183215033 -0.254842214286507 0.467236822875526 0.305464381149058 0.00968019839795536 -0.333273932785702 -0.180600363332946 0.27254450751088 -1.03340553048834 0.196876209260854 -0.182258209794301 -0.242218361400951 0.630356007741662 0.390081913546165 -0.158911833828044 -0.269490809864863 -0.126084519855823 -0.694995307572599 0.371434483288303 -0.19942648516814 -0.926208324691316 -0.233326977045092 0.449209028159206 0.343164447313525 -0.654012715699056
-0.0133131652867498 -0.186160371044919 0.345058835143436 -0.0370814590636577 -0.24137401155928 0.0206179227020037 0.64546817298035 -0.18052065917615 -0.453168010760314 -0.300038842062905 0.800735469961356 -0.965364405823316 -0.258153279225919 -0.507731419621332 0.210670427700395 0.121889510106526 0.558021657237355 0.495372390224484 -1.04414142329857 -0.75684753301751 0.590168657664796 -0.242324805016801 -0.583167290265733 0.272093536249525 0.69413347423847 -0.420021365940543 0.382146721961674 -0.106598653290504 -0.0698606934316186 0.464272856683451 -0.131847901722717 0.745494575767574 0.507699023738247 0.361495889156219 0.129918032687523 0.418119521915319 0.155231558665539 -0.0127953453777595 -1.23402834933897 -0.353624203786981 0.397041886205731 0.566406534532285 -0.236471948806148 0.171291689149732 0.593959747316266 0.766342869193736 -0.0306830150442283 -0.227540455261708 0.224941842639978 0.73907736270477 -0.316697267943434 -0.452022584894102 -1.15039323495192 -0.448717690599087 0.500299135555204 0.442261396788435 -0.235095123775045 -0.161801752287354 0.210399947787655 -0.125701682793019 -0.121706704766261 0.682148540158196 0.491100247420223 0.349559806010756 0.143823579836395 -0.69511229270596 -0.730345386662502 -0.948461468158552 0.468090942904158 0.622288918633183 -0.346349785373346 -0.534366749051243 -0.252178552788424 0.414152054678165 -0.589985595214348
-0.294301685434699 -0.168116378387056 0.119357489022248 -0.504082254790995 0.28327268701561 -0.806083361772179 -0.254221807414415 0.284603489323918 0.060512681390374 0.602992542272892 -0.144146767336693 -0.315739789621151 0.0637499557072042 -0.300650250078585 -0.891224884722673 -0.125711967200348 -0.274940260198055 1.37179209926722 -1.18356353390854 0.887697075898813 -0.0690441114897353 -0.293706732470745 -0.10410776983554 0.411547271412038 0.79140494141257 -1.21832483067889 -0.942281567794853 0.482990735131513 0.140061543635628 -0.14514615461884 0.569499055815966 -0.178549909621825 -0.57962328350033 0.0744431682270173 0.24684248804603 -0.405127744357585 -0.20439719634019 -0.335443942732017 0.0385444160061376 -0.367897418497847 -0.206853112810237 0.350016947916508 0.200276491433841 -0.263101878922213 -0.160494089895535 -1.01334862220611 0.948446555767926 -0.39376296003922 -0.164298549276532 0.114586552462554 -0.184015043676192 -0.117396766765068 -0.284556952380757 0.491028513679106 0.144537317704993 -0.442051851989117 -0.109101620924079 -0.268503249651144 -0.0155878190776319 -0.0589180840340893 -0.0201651516693662 -0.0103378862466133 0.560202980031731 0.566561314862579 0.648193540922404 0.00856691130464469 -0.108840654088118 0.945588261861151 0.994322725758554 0.331797606113695 -0.403299690954943 -0.0849479189825355 1.09218271814203 -0.14922212235331 0.739618579640432
0.28198816454028 -0.112502931537799 -0.41851418604655 -0.882117784923099 -0.00167661550472953 0.540400096610511 -0.256953603111049 0.699367466238129 0.35521031650722 -0.00483212878329809 -0.27340248419226 -0.319597470810073 0.196055770666223 -0.0331985810767807 -0.529991505063514 0.209646614950842 -1.73079427675646 -1.03684257941753 1.02967794705212 1.48131718066305 0.094247337199153 0.0823770742605925 0.160154704453694 0.0741053254462759 -0.154215459221483 -0.141677481137119 0.222142426965159 -0.41492235678707 -0.0363178418195163 -0.415632752223286 0.528322602864281 0.184548547306359 -0.142919580432219 -0.778569229736046 0.773387688213762 -0.254358332921701 -0.435116047686773 0.152992900300307 1.48478328304294 1.36416646834332 -0.0157587973494683 -0.549480199840848 0.15423448537504 -0.0433832296541992 -0.0175274582997879 -0.466130734867345 -0.480195947439992 0.746753644334766 -0.355337071827544 0.502027430206759 0.55026310034873 -0.69235041511789 -0.256955402882332 -0.0642407790469571 0.026875984561399 -0.897468291301625 -0.603448398627728 0.270152354366269 0.13527749445659 -0.600161502045538 0.323268232895799 -0.392826307641777 -0.237536899185015 -0.12006351358535 -0.351580692050807 0.627602871899821 -0.244020703785271 0.442001458393207 -0.24319229477496 0.432524377039989 0.480547674170627 0.386854409416297 -0.0946617988144917 -0.243884435388168 0.351081384075008
-0.114403490012107 0.44223542865993 -0.69076018863472 0.575899299606678 1.40467109238627 0.0897975312582921 -0.0708269135001317 0.144063720747515 0.404516079231722 0.319258342478415 -0.0820559436417599 0.624382052634717 0.0554008167277406 0.76371417468057 0.882611179364684 0.447303841701601 0.231362655245347 -0.139502586097323 -0.459132452790481 -2.49492599837457 -0.213926728170783 -0.308268167696992 -0.707193900215122 -0.46926593644144 0.402978046115744 0.216405527447136 0.545426857802501 -0.193643562927322 -0.112126265119393 0.208677052449947 0.0300906331821065 0.896143402527531 0.776998029406433 -0.330370387486682 -0.425304208875013 0.173574570466477 0.403464241472199 0.213418421338571 -1.18193988310156 -0.26305045688557 -0.04293431527431 0.0258452298368996 -0.384266852532445 0.0514660024838545 0.134197631687097 0.475313939281151 0.573575794880986 -0.0699915625148739 0.173501551174445 -0.172754646092212 0.0611104625663433 -0.176701287404526 -0.526847304633007 0.0173161137291871 -0.53763333392896 -1.03446276756171 -0.35719186468924 0.277568954711221 -0.0409854200855583 0.345834536566188 -0.634790644181713 -0.219859802758597 -0.145113244515389 -0.182544887648583 0.186426737194727 -0.635041840830712 0.280043126004276 -0.221962964057277 -0.359154386717702 0.0291748067095031 0.241230029856681 -0.155429790616796 0.185635094940615 0.716701063459775 0.127029913999496
0.157354774558509 0.192171864238613 -0.178292799438612 -0.263379300809899 -1.3635419477083 0.838110548854243 -0.775095156940477 0.739188177193734 -0.8274453613444 0.555096257572761 -0.709366481263268 0.181005568981689 1.53220314257358 0.252838297518548 -0.488471552907057 0.112511930394212 -0.523314867825849 -1.06208000078131 -0.105154722501582 0.736724804528374 -0.905063069003543 0.559166054662834 -1.2871763666414 -1.98476694440335 -0.643109187049375 0.0272845326425239 1.49816124009586 -0.055108739559611 -0.615028898389808 -1.17372649829883 0.411028937282681 0.101328151644829 0.50797618851575 -0.161059989408786 1.09414524017049 0.959929610770568 -0.292240433095883 -0.319667404779907 -0.402210057998488 1.02806946574594 0.348058282540794 -0.474340263017325 0.0638366018389468 0.60700834622449 -0.0479011697936115 -0.843384650042483 0.305992485465377 0.746078987214016 -0.922493853874443 -0.434350630671349 0.130587290494426 1.09764065311127 0.759913057731954 0.231435931647563 0.125619664644574 0.240711952837508 0.340816517120428 -0.251394623839809 0.159694477225744 -0.440716935917877 -0.712072051721215 0.45442656510714 0.196940229696474 -0.63471351112675 0.0207832445498094 0.839193496945934 -0.237934391528262 -0.609664808637443 -0.142595364491188 -0.555472152660618 0.412441243519068 0.533048802252095 0.8100850246637 -0.590599317221677 1.12432586191672
-0.146945925901329 -0.00390524657281657 0.0939812281595279 0.681271794433441 -0.408506172164999 0.0995078115476833 -0.86747535998914 0.0858981982196894 0.262891305682162 0.64680386038214 -0.496750757916687 0.880121324350453 0.481826540221927 0.922787473703672 0.515183501171566 1.20316304317484 -0.52690438309368 -0.134550643968648 0.349440763995929 1.12085924531646 -2.321953322847 0.508038923400454 0.0252891005106107 -0.0656227462817249 -1.37674892648938 0.382932450681572 0.575595909590487 -0.381397245777609 0.715094896145246 0.147725998197196 0.465050357877486 0.407780864338156 0.729917298207453 -0.36644191775068 0.502865866514216 0.0783106196029016 -0.324042134547269 -0.50500708012001 0.0823199957999193 0.755209484040263 -0.283130762194476 -0.366807014210842 -0.135189819884115 -0.126706983609381 0.157696216881815 -0.951325418489357 0.0202487124789104 0.323904323489068 -0.10551544808863 0.152625489848496 0.142852988894767 0.170641971716754 -0.338770691392605 0.387737325785449 -0.724450621491987 -0.870718547840184 -0.566593967855847 0.246453223228646 0.0550182367751202 -0.684700358726582 -0.0669157533931012 -0.0751939299619981 -0.363374079044587 -0.311936358680886 -0.52703165263437 0.588158313142256 -0.0128678504494255 -0.582867499792107 -0.434816771433513 0.145473198771887 0.89888522552131 -0.580492315919589 0.117880133909508 -0.544791281429599 0.453007316895807
-0.13488694408829 -0.00565668114086098 0.0798265412431232 0.76498507031619 -0.426795705047829 0.110589260444147 -0.78339544498513 0.0401307858365595 0.293720102200272 0.607474229876471 -0.553382618201649 0.875223375360252 0.618572133824661 0.976573381370654 0.410348109517534 1.14461674046568 -0.514416798605226 -0.329763350344117 0.319151641752382 0.859363019488415 -1.91034820164373 0.154179978016199 -0.16460091085199 0.0666218764536892 -1.38756478056659 0.267909325127923 0.544532114364921 -0.40183724823283 0.735036104845034 0.154665916262471 0.558773961633435 0.297352297758516 0.298375339177519 -0.364574012269641 0.440516647085154 0.275381718382631 -0.612161091406254 -0.460957677981107 0.237141720833417 0.916517070555482 -0.22389437575357 -0.524549253815452 -0.152675883444405 -0.124796140727744 0.188515243212963 -0.953172498045557 -0.0825529376259099 0.318081292059668 -0.133628903961831 0.0818785376153432 0.204985464439381 0.139839914657698 -0.386429406283447 0.537563657069309 -0.56054467946522 -0.677736272304085 -0.353296388303385 0.394718638590222 -0.122222467793786 -0.747166049068639 -0.0708788497571406 -0.253625311789362 -0.266572866395583 -0.0392314144156817 -0.104581109682835 0.303170701204618 -0.0227807335631883 -0.323893781971556 -0.451237370394571 0.0465605972983408 1.01875924890163 -0.573059774743278 -0.0480580070053712 -0.29197689515809 0.257250822482843
0.0590939473994067 -0.322387630518296 0.578618754014518 0.386082050425926 -0.843683154965193 0.130686535025146 0.485990696749238 0.470644304133643 -0.274566164881481 -0.423026726872115 0.200754459264434 -0.411226912123755 0.218761428055913 -0.707479806738854 -0.494405913045788 0.160492547234436 -1.53151074485019 -0.257560126033248 0.643766617787849 1.98946691855247 0.364957620662994 0.526451869171226 0.0305313200361329 0.137013759523825 -0.342098982714292 -0.157760751537802 -0.470066063331598 -0.139822945385606 0.288189147939002 -0.216942373509684 0.0572934047863687 0.19453496393252 -0.0479857590438884 0.0361172958766104 -0.300004903518721 -0.371971586461034 -0.375757019688474 0.852324371112786 0.803739802452195 0.385477841495377 0.473801617183494 0.221872204162603 0.300756950804618 0.580059342371058 0.0482840068564151 -0.636233289419719 -0.687691835708261 0.520482284937395 -0.354599422711907 0.42363453534523 0.0588635766752482 0.187926460893406 0.468956890001219 0.101846485774185 0.0555414559979579 0.187852927381007 -0.465025932410081 0.126113573306526 0.0905153828898217 -0.010569799631871 -0.333684537748293 -0.550839027159127 0.465665108325547 -0.837392183002346 -0.582166103212303 0.137894361901328 -0.103662712108399 0.84669365810043 -0.546474324688909 -0.0409062301491288 0.1161220144767 0.284188513488213 -0.0426818330743952 -1.53055840873157 -0.287317801528094
-0.0161619461167457 -0.176715685574786 -0.308341958319574 0.169007265171888 0.482745452016728 0.134686655255568 0.832116539153007 -0.0985135664692001 0.181706965561493 -1.16048969473649 -0.546243696854567 -0.514478505049197 -0.372350309760906 0.63895840025159 0.684528866234379 -0.364282449321878 0.95370651589609 0.337046510503981 -0.290568959794818 -2.35725557944282 0.967159549122507 -0.759882204509969 -0.164995317873038 0.499960007223547 -0.861391361723779 0.325052063346929 -1.26536339580782 0.502858410318903 -0.468186587892314 0.0912556031072909 -0.223656291723915 0.63017500217268 -0.970824140563836 0.119505070267412 -0.253235789861795 0.406283197520942 1.09309185974987 -0.0841269661675376 0.314354737064184 -0.384956936264188 -0.47842548671839 0.342456880089324 0.0526433100127851 0.367931099931848 0.155823426307294 0.467078957223034 0.648549638526154 -0.029857948466299 0.75582552003924 -0.197951186936866 -0.424710798572158 -0.579785520025937 -0.264435252332354 -0.46187504711481 -0.258853390254807 -0.152351924613558 0.171242323994556 0.525631173466411 -0.662703811222192 0.538275595166625 -0.0226496073697499 0.049479826318537 -0.29157991703521 0.212892373903718 1.22068510216078 -0.579705044538591 0.222586970471934 -0.139810346986629 -0.193871619659832 -0.0282546093637851 -0.418488989248595 0.214522195355103 0.370046345409138 1.14615657335294 0.00130637684090335
0.223065709633076 -0.170260934425233 0.490345114812127 0.660762629338937 0.301763537171895 -0.768543218141669 -0.444414437462657 -0.55905369751277 -0.35021955074088 0.715495216700508 -0.00785291632586323 0.49140415165678 -0.240511149784419 -0.724976926037023 -0.180911980874999 -0.450226670264362 1.06809097975464 -0.245019576847052 -0.0639944674914394 -1.6299613193245 0.802171687444782 -0.473756880011615 0.522964683756313 -0.3108058452053 -1.47838303925223 1.45223776183152 -0.860007337607546 0.339402154002575 -0.149904235669373 -0.271288524265886 0.337139841500487 -0.0899877927938694 -0.836540376965363 0.0397368930358778 -0.350761024786726 -0.23294671108412 0.173880788694684 0.225026946110622 1.5016648805625 0.468778198423886 -0.245208552831713 -0.22179352844654 0.148376744070907 0.0789677932311931 -0.313589834269127 0.272141615853786 1.00456830944939 0.0546045464903311 0.618837471533736 -0.828477401619815 -0.0387683589757158 0.349843912763206 -0.154312389760554 0.588012274558191 -0.634051452404977 -0.924571561264984 0.810391242891906 0.144340628414835 -0.698462952613587 -0.00775264335441031 -0.544490462515241 -0.043973040414489 -0.272544250400697 0.144050351017988 0.557317946665902 -0.149906292550839 0.420359722941651 -0.317284764712075 0.0144349370161065 -0.842190887461827 0.205069539469291 0.0409900480688561 0.115807311612448 1.47904201265181 0.266618889118378
0.52292123213535 -0.142716977607848 -0.138762622990037 -0.271903017603764 0.604099915831989 -0.487764499903222 -0.329463816980674 -1.63297747888377 0.172607064847048 -0.283996709291537 0.231959407980584 -0.0993682007181989 -0.0521622568599943 0.0299201691306365 0.3126161580053 -0.282322407778456 0.443974007718814 -0.19197311806699 1.381456613944 -0.596265254329133 -0.716349593839323 -0.753143603718149 0.330170355764142 -0.116365754930386 -0.797681258094973 0.0396551319976161 0.518644718457975 0.525070159046641 0.427236906122222 0.506986314310381 -0.633933438830882 -0.00515351651231387 0.47450712752623 1.05229155899622 -0.277949477782376 -0.136408779262726 0.225009719728346 -0.107577728868178 -0.316720664970107 1.05572089461991 0.00949225085402693 0.154631463497921 0.108657591637671 -0.748950907960501 -0.0853448971054158 0.050050610925269 -0.328854208736277 0.772110364823561 -1.25616862143577 -0.0195624853999159 0.645777990751122 0.370429696692308 0.236242349412539 -0.363452497650467 -0.308578242577946 0.363998856789794 -0.0496220082498536 -0.456882738687371 1.10682257197415 0.471143612109442 -0.0906238833871374 0.323477520584935 -0.444764107311827 0.29995682391446 -0.18360186761177 -0.331413740610159 -0.276258464107386 -0.933533650921227 -0.0988274980029027 0.990268355279475 0.91278820156835 -0.250554644871254 -0.788714540455433 -0.0826940911164936 -0.201332442956296
0.24103385478689 0.170202570413644 -0.0187302197368566 -0.334218041378459 -0.0257637259088212 0.0451549759267174 1.32230995895704 0.228100441240745 0.409606603749149 1.00675451733725 -0.0400243422207095 0.218337196253612 -0.498623291381024 0.0266790381610581 0.661563013339278 -0.915038429891827 -0.25653991282626 -0.12519671839319 -0.0660922294762712 0.0691086461457217 1.61328849527371 -1.10489373137969 0.853521219015641 0.68567094966821 0.498594495040504 0.282572833096905 -1.31450795044745 0.27392184676235 0.385440817628994 -0.00940534761210107 -0.616104904506553 -0.539441589847494 0.07418888625582 -0.435056398124267 -0.0380595062005986 -0.98792068219656 -0.12413151090414 -0.0583087328998754 -0.0904179381303841 -0.48545385068669 -0.0130367718397962 -0.274795250054723 -0.861956232796297 -0.913617639019394 0.280793116408707 0.474178797822267 -0.0530693415863685 -1.02586063216196 0.375813583928781 -0.186204336886248 -0.0955958801101032 0.14003531839694 0.518437744760488 0.270886918159708 0.177015733158595 0.653502351985379 -0.169452837119396 0.145227401436736 -0.36099735251097 -0.121733187115132 0.813952990259951 0.00227773911308065 0.719974847422621 0.573759885772166 0.577650734174723 -0.0490730780086946 -0.531809274058827 -0.94752815819349 0.538590298030877 0.280138770992431 -0.802961787037794 0.115208759105929 -0.349359002957667 0.468059575461806 -1.35057433850779
0.127037370194809 -0.068292835534388 0.164964464651053 0.189462437127918 -0.259774358931075 0.402743818738837 -0.257999013115992 -1.66215691357657 -0.000779300965317469 -0.0563366977946345 0.136888289754417 -0.371034162733041 -0.36634267321996 -0.578964567210939 -0.254731399797543 -0.582802708025937 0.0346417405351531 0.0823413359451259 0.444531165485836 0.372286032215103 0.86118335958556 0.269724008801037 0.468909581727507 0.28920858981544 -0.526812594758273 0.543938704062066 -0.794601078100086 0.187707145907126 0.107469228370862 0.584068975678259 -0.0185219604884544 -0.096737192213384 -0.135734893472526 0.0322603860182378 -0.0206706302895623 0.380218138477396 0.00280970008214758 0.533011778385713 0.77065126453383 0.656481744788447 0.34392035125217 0.0239945507381351 0.158070569308573 0.323357964349741 -0.22285153685046 0.112160974994126 -0.771259073006945 0.507073217552307 0.312819017939855 0.0738147909392456 -0.0511016773542422 0.313646655619617 0.499828109699559 -0.314388675608368 0.362105497400616 1.03874185234092 -0.0367747266150851 0.389559979874244 -0.179709476548114 -0.508732606674762 -0.0214992964100566 -0.236023291536442 0.156299080146238 -0.186313094493747 -0.367105519133552 0.115728893006568 -0.314169617732271 -0.894318691557271 -0.322349063990814 -0.33308572813159 0.27387942358212 -0.530377941668883 -0.894493526481855 0.384325473654218 -0.79501836792744
-0.477387790018944 -0.118507482756547 -0.140043545922803 0.219393661996433 0.469453369765002 0.689097457079884 1.01536179494066 0.356141826700999 0.0975486319516031 -0.548858250307657 0.0347209304715826 -0.13233075464679 -0.526658585758529 -0.112900938101412 0.259812154128007 -0.548220359943106 -0.701874033414269 -0.472745151440673 0.941352885813089 0.658739943527603 0.329928415081739 -0.0641590180086954 0.709226356213417 -0.220738605364818 -0.801804019882788 0.78248784603839 -0.145449287524848 -0.0994682165794686 -0.665401925484825 0.124507920212363 -0.195577802835631 -0.932417278505718 -0.875778219135625 -0.430507347652686 -0.0739996531609755 0.235376402315479 -0.33486878725217 0.0653304120034122 1.45533876775125 0.605320160761516 0.218576051613817 -0.776605679266851 0.319726283011862 0.077236156147256 0.0885284353939546 -0.138288511812193 -0.915618727575337 0.404640263450214 0.605701969383586 0.233929129094175 -0.0524129392886266 0.545750045302799 0.660038349952827 -0.622432386115415 0.171667070017223 0.997935380942875 0.0726408258426968 0.032227990135153 -0.254503857285399 -0.52455388179875 0.311883908203511 -0.307139453992688 -0.37418093426538 -0.873163665682536 -0.600363590649543 0.279899915632227 0.454853625121456 -0.422670372158182 -0.377509996917617 0.420150435252515 -0.156477257503204 0.760062181638218 -0.604427988425768 -0.00194143899343854 -0.082600245899621
-0.10209176888897 -0.144291263259658 0.121374261299368 0.110839685762597 0.605079505630029 -0.448446953576164 -0.8799138364326 0.0403698983069472 -0.128701644410744 -0.118538078868349 -0.273269044007173 0.346939339023453 0.591222809415967 -0.404600154261633 -1.33400975784413 -0.258361024253955 -0.709240497273494 -0.388919518407861 0.570075239736546 -2.21833971878359 0.959465012669503 0.377848353918725 1.27655668763399 -1.36020080087745 -0.737808009730249 0.765945891070856 0.179612288898859 0.0408442665949745 0.0720908671608049 0.668614260113884 -0.00100272971452924 0.492439791474761 0.265106309910539 0.240207502658045 0.174001630480793 -0.0335215114668957 -0.132136122238098 0.193305463036397 0.451491909475951 0.889511759571927 -0.103158261928936 0.387575346370025 -0.101262074327743 -0.0192256710599073 -0.0203520707725618 0.128051669867583 1.03711383066081 -0.136643006639632 0.442090675626782 -0.494401542172673 0.354496835748805 0.210042050412623 0.160708519788334 0.131321082957314 -0.248203629355957 -0.0587913287137655 0.0741204949470854 0.185977051484288 -0.368099507101852 0.079011244852156 -0.275732673782716 -0.124428730275933 0.0617658364233523 0.293087096929202 -0.528708782359466 0.635443704047073 -0.12305267657538 -0.968250467629878 -0.22628652889818 -0.584658529328366 0.282359431644839 0.273733127887872 -0.517036751372163 1.3148334519394 -0.912989261731622
-0.116155438800518 0.0163686627040486 -0.0832988142674097 0.256557396318719 -0.247521001819528 -0.577903473484821 0.810414125698212 -0.615413792334077 -0.447953816244762 1.16510765073717 0.952025272408062 0.490537947449537 -0.631011638708854 -0.792381960108778 -0.4940948097241 2.34180608564376 -0.612855288900928 0.40153951464067 -0.530560489898964 0.26190194569716 -1.52798087914486 -0.976329898027152 -0.245775223675514 -1.66115135565003 0.178771795709937 0.942202377858424 1.70609858654871 -0.231742664096135 0.703131559320362 0.376047297085321 0.474714358333899 0.0908763655870523 0.571409384477236 0.356699241578204 0.257395575515992 0.0640973115647244 0.0192788928678323 -0.256338595552805 -0.311925560053191 0.9010020136597 -0.219716335276365 -0.126990833251647 0.28454923907526 -0.465386915107311 -0.0529855236666412 -0.657996895098119 0.437554994884728 0.46379977394634 -1.19703173663577 -0.35457165481212 -0.118956911356802 -0.923191393801499 -0.184031498727918 0.227747686069378 0.0768265796253983 -0.3832276131719 0.286922623176496 -0.441408305200535 0.887005449505971 0.404208318342417 -0.311671535192177 0.168566835428045 -0.369713901942244 0.0425327091681318 -0.172906598210491 0.955506801398944 -0.432660388326909 -0.683449003464886 -0.204997548617992 -0.604026125209407 0.315961675709263 -0.0714100393956579 0.145525649249262 0.200584252323147 0.101447964990206
-0.204793660242704 -0.130248419272951 0.276813564992942 0.188413170470228 -0.0949824152129579 -0.917661210870779 -1.11805417321762 0.141277674802223 -1.11281940988741 0.707860844030375 -0.760695186909287 0.052627369181426 0.948659442999626 -0.518842179078682 -0.660644872875025 1.04529096292771 0.242151512753315 -0.426234176407693 -0.889532071276401 -0.656704145096925 -1.43911922895347 0.981780376801076 -0.981802488276832 -0.519838995258997 -0.0722078522941667 0.18854301111275 0.367152056076714 -0.183066821320504 -0.101489359729703 0.371996783258989 0.00954058756847091 -0.27879819849716 0.111473976584582 0.31096191108651 0.695684362863608 0.801952115348318 -0.717466737585382 -0.123727590806313 0.448922607415108 0.847966867727698 0.161717934367627 -0.146061981091444 0.431593895286943 0.026734573960632 0.220770229917353 -1.2109853633889 0.842081872744145 0.167491086421483 -0.359490943947527 -0.290323676680033 0.12845558996541 -0.195185195585865 0.179636971476448 0.176192723462131 -0.0181419516376661 -0.0301435978798483 0.392736319077652 -0.610575492906382 0.17599731972289 -0.0855415863955735 -0.369996980253961 0.622149050693515 -0.66921101284912 -0.099362287183985 0.0630220767785292 0.262491242237083 0.276191358349568 0.422158722893589 0.291416137848503 -0.327005072298612 0.224268471070144 0.757965705204302 0.627604414560921 -0.0176657835783563 1.14867496759751
0.025740585992332 -0.318820740946587 0.526126367679279 0.077964035075931 -0.94160665356392 0.349515583059244 0.67631136766872 0.391300615814593 -0.399580592154772 -0.392353482014849 0.618889664900928 -0.815850720522243 0.0903055809803202 -0.78171960081095 -0.182210387300223 -0.245320909981777 -1.50955687763621 -0.122929263687437 0.359175726862908 1.47014574320247 1.56554313425113 0.177030131328855 0.644896617043069 0.281285996629926 -0.420418601173606 -0.395635493503558 -1.35051494605546 -0.227300828570954 0.238647872286677 -0.141634286626339 0.119214792870565 0.266537128080117 -0.356083976909777 0.122830790487267 -0.144779001277213 -0.198755684700139 -0.630149548264542 0.859447094518326 1.21146873053334 1.05536891077909 0.735322782699316 0.355332186734063 0.490136341343359 0.437336965449363 0.196491829536951 -0.294086741321533 -0.789368114541159 0.304321012164311 0.555571397191338 0.709324315193221 -0.0471416663124014 -0.0815790042519005 -0.0820202053262934 -0.0843683926295743 0.390095797496059 0.520125930223463 -0.762406512288751 0.148713558410916 -0.0694552306726923 -0.286396575741643 -0.251475356437338 -0.240666187224896 0.706337723305024 -0.792144133189306 -0.95947761106848 0.226367518605892 -0.526844476420992 -0.111874554250027 -0.304589435195585 0.0465369431614853 0.353858174053705 0.17592610020214 -0.473322878022352 -0.90085237553307 -0.84625348546677
-0.00969099702565029 -0.0691479840037532 0.0137050012059658 -0.655760550724535 -0.0239117612591406 -0.407584432158182 -0.945423454233712 -0.711716725448015 -0.0821366762392887 0.0275526985636146 -0.488572340098876 -0.0335971018607602 0.373882943563037 -0.104228868731834 0.191501835101161 -0.223331304452334 1.09930775553922 -0.0766072646391179 0.999360542688423 -0.105582039626082 0.0745570680381805 0.464940314719071 0.393478853286771 1.66529288648122 -0.310534336851828 0.865245957590503 -0.763575849402002 -0.0375637977673646 -0.0931458771742701 0.431691082936197 0.409840574015872 -0.578568617528792 -0.778855650480145 -0.0239163892424385 0.00446883209441865 -0.0835448687127442 -0.480273080494956 0.618185954329476 1.00100759052208 -0.744701390852363 0.109507597903372 0.0175804229975297 0.118575616955098 0.588354745322231 -0.150266246807337 0.849746327305713 -1.04905094224701 0.79345616645424 0.409570608323499 0.0919006925569714 0.382397147280123 0.51054677612751 -0.211047608339168 -0.411190145367555 0.328363385396524 0.682613909589811 -0.0796077404772093 -0.351616430366274 -0.378852112073987 -0.31971008507032 0.229265407480882 -0.604639075886185 0.350542224020812 -0.150782524055228 0.479359310903818 -0.521571660783667 -0.268783242640662 -0.153842135235458 -0.827527893713211 0.541120776454056 -0.39940909966257 -0.191539887408276 -1.06038795866559 0.0392918353087367 -0.194416179027876
0.416358317160312 -0.0628459563030286 -0.364902599083786 -1.07006712862281 -0.108914958931067 0.617731126415372 0.00576749562982562 0.607247458694878 -0.0572859485910555 0.0528507979306377 -0.0890038321227147 -0.525212598088141 -0.00862450398568432 -0.198238636121698 -0.421760459219793 -0.155347258247985 -0.633362397113967 -0.967959676012665 0.98028168154313 0.675621026826794 2.02003217713279 -1.02039318411595 -0.211909441673297 0.58314466456961 0.336858048739686 0.215781263922296 -0.54824709940216 -0.514486218354694 -0.0708258850593988 -0.442437517263935 0.325646244980333 -0.260434874991748 -0.588820886084395 -0.361200212445525 0.865746551117218 0.154970334719395 -0.800806946592289 0.145216602809041 1.44286840964507 1.10189994040637 0.177118320121697 -0.436681334482171 0.0498613778304245 -0.242151512753315 -0.15226810669383 0.309863793494009 -0.712570331256281 0.342938447462481 0.31495380379107 0.374645532366446 0.568008073863516 -0.845473156060719 -0.707534056987512 0.184227673797709 0.532362060952735 0.202574542251396 -0.462942054375142 0.342146290988003 -0.243163241324257 -0.902852178538098 0.608411396494281 -0.553152247477491 0.361445752670493 0.660481350798502 0.489347013080896 0.138933087041507 -0.555882243402842 -0.0024497458256499 0.0980996190742278 0.490116800969434 0.0288621607267165 -0.009171891565744 -1.19557854988025 0.314396388913865 -0.631856759881074