0.30729529067411 -1.09440252643587 3.20234039755126 -1.09440252643587 0.539114545042299 -3.3532924701631 3.20234039755126 -3.3532924701631 2.31010582550625
-0.405202353206127 -0.155683009389722 0.535293635024936 -0.155683009389722 2.46960171059313 -1.30731075008082 0.535293635024936 -1.30731075008082 1.43313674397114
-1.42809131670984 1.60898288349309 -2.66339030566386 1.60898288349309 0.418906786234888 3.64401300980462 -2.66339030566386 3.64401300980462 -0.497451808653929
4.75799067882641 -2.63374441876015 2.52342001431856 -2.63374441876015 -2.75008651798947 1.38005800465117 2.52342001431856 1.38005800465117 -2.8022398728164
-4.10192330650691 0.806861837213996 -0.610780887946908 0.806861837213996 -0.791085209112047 1.24184601202489 -0.610780887946908 1.24184601202489 6.91241691266851
-3.74271570752657 1.91624992016611 2.64221876542314 1.91624992016611 -1.56224391081815 0.944016024927881 2.64221876542314 0.944016024927881 0.518182709335413
1.64642830007272 1.57132112672006 -0.822225897755404 1.57132112672006 0.575162827516401 -0.00592951368573609 -0.822225897755404 -0.00592951368573609 -1.58318015409154
1.80052276119195 0.938801659238392 -0.162066812752733 0.938801659238392 0.464459768254783 0.053363462735656 -0.162066812752733 0.053363462735656 -2.34799236036886
-3.02198250189321 1.041045575966 -0.0590066318361297 1.041045575966 1.46673627706951 -1.35715253223098 -0.0590066318361297 -1.35715253223098 -3.20110977711004
3.76996218905256 -2.25078336419575 1.76104808513007 -2.25078336419575 -5.65294436407245 2.50864398052013 1.76104808513007 2.50864398052013 -3.75397083300144
1.79387603556773 -0.471098179065378 -0.781734969628137 -0.471098179065378 -1.27546231886696 -0.0288007620389314 -0.781734969628137 -0.0288007620389314 -3.33265960736206
2.36432683389709 -3.67296624960214 -0.547202280334261 -3.67296624960214 2.35400226257003 2.26366226345824 -0.547202280334261 2.26366226345824 0.387171424764807
-1.14858676235154 -1.1679139434488 0.0745476985180085 -1.1679139434488 -4.87321066238093 -2.57879816354889 0.0745476985180085 -2.57879816354889 -0.405870803042491
-2.33627503803606 0.820049880795265 2.24708532290425 0.820049880795265 1.26104347228033 -1.46172033132691 2.24708532290425 -1.46172033132691 -3.77074295640602
-4.66144240899661 3.04973653882193 0.0138940161221956 3.04973653882193 -4.02000199802191 -1.17867570103292 0.0138940161221956 -1.17867570103292 -1.38245460415846
-3.62829839889772 1.37783483502445 -1.95555856409611 1.37783483502445 -2.71215909631129 0.483450819306825 -1.95555856409611 0.483450819306825 2.231125531101
-2.93207714743356 -1.68456130451607 -3.59041145034788 -1.68456130451607 -3.51296035588737 -6.03288703637037 -3.59041145034788 -6.03288703637037 -5.5322210328935
-3.64881113436854 -2.92235099901915 -1.15298029057347 -2.92235099901915 -3.75337736597186 -0.630149132556859 -1.15298029057347 -0.630149132556859 -3.93499239980921
-3.43181981051162 0.782844223113008 0.833623307855473 0.782844223113008 2.55588059870409 -3.28159835148182 0.833623307855473 -3.28159835148182 -3.33449323142189
-2.78492353094758 -3.39584549129379 -1.7942392709267 -3.39584549129379 -11.3653499830173 -3.56371143535288 -1.7942392709267 -3.56371143535288 -0.941150047019835
6.78748955578319 -5.3685791134595 2.78564030261001 -5.3685791134595 -2.85387644835118 -0.549903056855291 2.78564030261001 -0.549903056855291 -2.59498048362734
1.91530372629439 -0.328184065460556 3.1984496215787 -0.328184065460556 0.225962799169563 -1.70010106041862 3.1984496215787 -1.70010106041862 -1.06256316276164
1.11963259188259 -0.0496511127220663 2.1002420681434 -0.0496511127220663 2.42545685647294 0.0124127781805166 2.1002420681434 0.0124127781805166 -1.09728959115766
-1.81251419493938 -0.589743424622065 0.205598625097601 -0.589743424622065 -0.14608323362198 -3.157020993275 0.205598625097601 -3.157020993275 5.03446106982414
-9.07238689554844 0.608911563266271 1.73183938123784 0.608911563266271 -4.28610477000414 0.302478796038115 1.73183938123784 0.302478796038115 6.27099830740459
-4.22780015390423 2.82085895857307 -0.225575695780369 2.82085895857307 -4.81615738104272 -1.6255403232008 -0.225575695780369 -1.6255403232008 -0.234877786328013
-5.18426420169119 -0.0908480583915409 -0.183671074574202 -0.0908480583915409 1.26792290189933 -2.14677911894793 -0.183671074574202 -2.14677911894793 -3.85709256605825
1.70448502402713 0.970162859587771 0.273360805740201 0.970162859587771 -0.0482401421894472 0.375201105917922 0.273360805740201 0.375201105917922 -1.84652544269606
-4.07937399232333 -2.82882039699028 -0.24644033115578 -2.82882039699028 -0.697373703057845 0.558423303576394 -0.24644033115578 0.558423303576394 1.73556914069283
-0.559390515854917 -1.3337320169689 -0.960805006398955 -1.3337320169689 -3.26052157158028 -2.39553808873055 -0.960805006398955 -2.39553808873055 4.04522215632121
7.93809803731222 -6.03536303367834 1.8746355415549 -6.03536303367834 -2.73166913496382 -1.02563036588282 1.8746355415549 -1.02563036588282 -1.21831239156726
0.667869462210542 -0.755819350238268 -1.44017941645401 -0.755819350238268 -5.87065502585069 -6.04380636790528 -1.44017941645401 -6.04380636790528 -7.58292940839048
-3.24750567225353 2.34643719699446 -0.649501134450707 2.34643719699446 -0.493986778314622 3.04396482378131 -0.649501134450707 3.04396482378131 0.55573512560395
-6.60108815738375 -2.63822754116173 -1.54816490647671 -2.63822754116173 -1.95383378571392 -1.07350472124677 -1.54816490647671 -1.07350472124677 -1.07902402572619
0.131720737689097 -2.90883295730088 0.0137209101759476 -2.90883295730088 -4.86543474839101 -0.935766073999624 0.0137209101759476 -0.935766073999624 -3.96534304084885
4.91546772868751 -0.953448508090975 -0.715086381068231 -0.953448508090975 -3.22690240868605 2.83230292109378 -0.715086381068231 2.83230292109378 0.0821247664532142
-0.372856522835613 0.245926642721362 0.663737498097438 0.245926642721362 -3.08598271027773 -0.542096362987947 0.663737498097438 -0.542096362987947 -6.02123618791979
-9.06802195000548 1.14799196269735 0.430218347185609 1.14799196269735 1.87245291003063 -3.60224274120178 0.430218347185609 -3.60224274120178 1.67406206599167
-3.12394325433412 2.60573044532095 -2.55928684451317 2.60573044532095 -1.27597682219281 4.76902448294669 -2.55928684451317 4.76902448294669 -1.58152682750718
-0.00801237412488899 0.018695539624741 1.98172720022254 0.018695539624741 -1.2125392842332 -1.91762820722343 1.98172720022254 -1.91762820722343 -1.58645007672802
4.03773219956849 1.05641792972542 -4.1504959111684 1.05641792972542 1.69145567399856 -0.57766673310828 -4.1504959111684 -0.57766673310828 -4.099059832193
-6.64293736615982 -1.90273696583952 0.138683452320664 -1.90273696583952 -0.965236828151824 -5.41974931669156 0.138683452320664 -5.41974931669156 -3.65569580317271
-9.05312656076426 0.529515041092279 1.84737523664657 0.529515041092279 -3.92789515556511 0.270684927722545 1.84737523664657 0.270684927722545 6.44309160075344
-3.68699732714262 -2.75803145254583 0.188942211782398 -2.75803145254583 -0.642928359537326 0.635055767379726 0.188942211782398 0.635055767379726 1.87105273612291
-6.55943313213025 1.40133344186419 -0.0417418472044652 1.40133344186419 -3.77664331849923 0.481025096356218 -0.0417418472044652 0.481025096356218 1.65973535312993
0.887617202209521 4.10264927765447 -1.13532432840753 4.10264927765447 2.06680633421461 3.51950541806333 -1.13532432840753 3.51950541806333 0.307053625182945
0.665642657716155 -0.240370959730834 -0.2113151294337 -0.240370959730834 -1.54260044486601 -0.171693542664881 -0.2113151294337 -0.171693542664881 0.898089300093225
-4.67487559802246 1.80014316090812 -2.00901473377685 1.80014316090812 2.53943859645664 -0.384763423705552 -2.00901473377685 -0.384763423705552 2.53119366594867
0.328920940711807 -3.0763782101869 -4.91722986156558 -3.0763782101869 -6.22462149985705 -1.03927961098857 -4.91722986156558 -1.03927961098857 -4.05761294928515
-2.025762796351 -0.262598881008463 -2.27764335568565 -0.262598881008463 -2.01236489425873 -0.884261538089721 -2.27764335568565 -0.884261538089721 3.50221160691899
-5.65286586841949 -2.25116580929702 -1.08954207272627 -2.25116580929702 -1.13112764802116 -5.25087197390217 -1.08954207272627 -5.25087197390217 -3.48487120971226
-1.64928866393055 1.44621485173278 0.362239773109539 1.44621485173278 1.23490831741888 -1.05927691227486 0.362239773109539 -1.05927691227486 3.95993933785655
-5.03710508911952 1.50534175077135 -2.7680643182682 1.50534175077135 0.760941983906398 1.46674324434132 -2.7680643182682 1.46674324434132 -2.29936816876064
3.92657348929405 1.10259813285624 -1.68827381543577 1.10259813285624 -2.04986488902834 0.769017635387031 -1.68827381543577 0.769017635387031 -0.234270273031811
7.13190397641334 -0.529622285198683 0.928124490081187 -0.529622285198683 -0.812430301566912 1.14665795727482 0.928124490081187 1.14665795727482 -2.94377435219656
-0.640347649866294 -1.39664302234212 0.787917478642065 -1.39664302234212 -0.83535063789142 0.205543690080539 0.787917478642065 0.205543690080539 1.36765609168974
-0.254155264727728 -3.12445222181587 -5.5776030378835 -3.12445222181587 -5.32344777315577 -0.698926978001251 -5.5776030378835 -0.698926978001251 -2.5968037917833
1.63145379483495 -0.109260223702797 2.01883095159942 -0.109260223702797 2.58499756533209 0.466839137639225 2.01883095159942 0.466839137639225 -0.983342013325177
-0.645526502679573 -1.27290567395851 -1.13809692641097 -1.27290567395851 -3.22244756156911 -2.23989919002069 -1.13809692641097 -2.23989919002069 3.99241290813872
0.990364970503507 -0.481261692493672 2.61710903851931 -0.481261692493672 -4.40294788091318 1.11962947468569 2.61710903851931 1.11962947468569 0.0636379097512293
-3.76915647900584 0.0190361438333628 -2.72760746640899 0.0190361438333628 -2.92340780298072 -1.34068841569255 -2.72760746640899 -1.34068841569255 2.61882950164691
1.03584499190315 3.90749447440695 2.00246271949595 3.90749447440695 0.423055504118863 0.766627852918424 2.00246271949595 0.766627852918424 0.62560935154547
1.65801842113611 -0.717649764372345 -1.00223501576138 -0.717649764372345 -2.00240781955617 0.216532256491656 -1.00223501576138 0.216532256491656 -3.56968891416244
2.25057817620603 -0.68261550156306 4.34461670731677 -0.68261550156306 -1.50893952977097 0.916141857360948 4.34461670731677 0.916141857360948 -0.559436764438899
2.27449598845126 0.0870865581163772 -0.858058734381952 0.0870865581163772 -3.19402758738595 -0.75560396012739 -0.858058734381952 -0.75560396012739 0.543010303549175
2.5960257477251 -1.96299485385675 2.61200129078803 -1.96299485385675 -5.65534224427499 2.08880225547728 2.61200129078803 2.08880225547728 -3.64641770411234
-0.708501720698682 -1.19121717875713 -1.32616988746164 -1.19121717875713 -3.18436487654682 -2.03986209695665 -1.32616988746164 -2.03986209695665 3.8435569536804
5.18035273080924 -3.43083004248017 2.92924670293629 -3.43083004248017 -2.81889836823663 0.838647343717375 2.92924670293629 0.838647343717375 -3.15395603905195
1.99662944644811 -0.16211071559034 -0.707951859223635 -0.16211071559034 -0.484280112396457 -0.186735128085075 -0.707951859223635 -0.186735128085075 -2.76819437128314
-6.42506798817221 0.238538103376624 -0.0220868614237615 0.238538103376624 2.22856431765753 1.28324664872054 -0.0220868614237615 1.28324664872054 0.426276425478596
-5.14508362185683 3.11731537088973 -1.53802232332512 3.11731537088973 3.43372425672584 1.24362449041673 -1.53802232332512 1.24362449041673 -0.398950334315102
2.83658905079437 -2.96810363405847 -1.3641414617002 -2.96810363405847 1.79736597127607 2.38273480266727 -1.3641414617002 2.38273480266727 0.224348406744645
3.68244636665216 1.83924549999276 -3.9019692166513 1.83924549999276 1.85308928332603 -0.450911799998224 -3.9019692166513 -0.450911799998224 -2.56307759998991
-9.32510348555699 1.28161765871649 0.2558785256118 1.28161765871649 2.60328586926788 -2.62998623715781 0.2558785256118 -2.62998623715781 0.340429690596569
-8.09853560010205 0.941588573953057 3.53041098725787 0.941588573953057 2.69150144573124 -3.22455855024295 3.53041098725787 -3.22455855024295 -6.04713961183773
-1.8093710347318 0.79676279732667 -3.28031773748873 0.79676279732667 -2.90991630328001 -1.10587478558718 -3.28031773748873 -1.10587478558718 2.50220824979847
5.83992632093711 0.070300058893482 2.96264533908246 0.070300058893482 0.986711540897801 -1.49136553509744 2.96264533908246 -1.49136553509744 -1.40349046148059
-6.50039779309705 0.562620636574951 0.567103669535708 0.562620636574951 -0.2891556259688 -2.49929087562179 0.567103669535708 -2.49929087562179 5.97364142020815
-0.373483105564987 -0.301454220920311 2.73976535296601 -0.301454220920311 -1.69401265738405 -2.44364660498234 2.73976535296601 -2.44364660498234 -2.6757396777263
5.34694725942415 -1.3142760426429 4.57943058608386 -1.3142760426429 -1.02677815831477 0.849658926005469 4.57943058608386 0.849658926005469 -1.16025931889569
1.34601929837372 2.59329586829532 1.39279216974578 2.59329586829532 4.32129361620753 3.30528291029223 1.39279216974578 3.30528291029223 0.823722234719055
-3.09096205181625 0.921529058926585 -1.73986606177545 0.921529058926585 -1.61747548363677 0.297577091945043 -1.73986606177545 0.297577091945043 0.811137557076005
-1.96370290812822 -1.38370626859668 0.317617207362511 -1.38370626859668 -2.91379264145608 -0.176760880619136 0.317617207362511 -0.176760880619136 -0.740186187592633
0.280633561969899 0.27261546019933 1.36575000158684 0.27261546019933 -0.908718200664435 -1.39247700748874 1.36575000158684 -1.39247700748874 -1.12787964905997
0.862617342718374 -2.80074156465934 -3.01639590033893 -2.80074156465934 -7.29906982300163 -1.8524154475042 -3.01639590033893 -1.8524154475042 -4.31032191441649
4.70546286553328 0.620002070123828 0.506587057296299 0.620002070123828 -0.0957726774988028 -1.33325648412807 0.506587057296299 -1.33325648412807 1.04341811801327
-0.720466093447068 -0.319025576434126 2.71171739969007 -0.319025576434126 -2.7409614108632 -2.03644659623784 2.71171739969007 -2.03644659623784 -5.67067962111659
-3.11010522617158 -2.58737639170524 0.593651842157751 -2.58737639170524 -0.60941251053362 0.6199196227842 0.593651842157751 0.6199196227842 1.87026598060318
-3.61894825072709 1.64717858801501 -2.25275895125582 1.64717858801501 -2.79778127817255 1.2983642987883 -2.25275895125582 1.2983642987883 2.10499734262506
-2.5990240476239 -1.54558983257634 -3.63033890907466 -1.54558983257634 -3.94553969782905 -6.18788916870457 -3.63033890907466 -6.18788916870457 -5.93628152154097
1.29326186857314 -0.903100587547907 1.09681702777722 -0.903100587547907 -4.01620563404991 -4.0680452448155 1.09681702777722 -4.0680452448155 -4.53733014227241
-2.72983538251615 -0.211447030621906 -1.37440569904239 -0.211447030621906 -1.03012655944006 -2.34760421177655 -1.37440569904239 -2.34760421177655 4.71418443912173
-3.83980603706984 -2.4945678676202 -1.07619053555971 -2.4945678676202 -0.775797546265131 -0.235090165534888 -1.07619053555971 -0.235090165534888 -0.169787341775197
-1.95806257005145 -0.665575570355995 -0.096660352541327 -0.665575570355995 -2.66230228142398 0.577200390889638 -0.096660352541327 0.577200390889638 -1.54104219194458
2.31578031668405 0.888207746028296 1.03042832167633 0.888207746028296 0.0724519913678671 0.279074337120673 1.03042832167633 0.279074337120673 -2.61632191050631
-1.33694589790634 0.461354311318634 -0.779394304653181 0.461354311318634 8.42413340369471 -1.07976540946914 -0.779394304653181 -1.07976540946914 -1.19755799959305
7.61897688096636 -2.40277140817208 -0.483713225145571 -2.40277140817208 2.46200159900623 -0.373150202255155 -0.483713225145571 -0.373150202255155 -1.07009211440367
-5.23688767584843 1.63170394952751 -2.90509453176013 1.63170394952751 1.12730897864316 1.36159079572059 -2.90509453176013 1.36159079572059 -2.0010423435084
1.45754436582277 -0.79577000085258 0.473086632809266 -0.79577000085258 -4.65156278848879 -4.68437804625591 0.473086632809266 -4.68437804625591 -5.77821997182647
2.02326873143448 -4.08529740025277 0.28423954081455 -4.08529740025277 2.64859572122649 1.91215691093425 0.28423954081455 1.91215691093425 0.201551674395772
-2.64555575937911 1.79251757385274 -1.10326271994744 1.79251757385274 0.0841664343052683 3.81023722868445 -1.10326271994744 3.81023722868445 3.25064417897915
7.24565443066038 -1.23853892550821 -3.03986671130434 -1.23853892550821 0.153304492408182 0.20575076612677 -3.03986671130434 0.20575076612677 6.37020509243471
-3.62183043533773 1.20799585693218 1.88533639099772 1.20799585693218 4.72628379024715 0.174727972163405 1.88533639099772 0.174727972163405 -1.39998091276604
0.724735573609988 -2.77685422289992 0.290933276861357 -2.77685422289992 1.53519255915234 0.148064256974084 0.290933276861357 0.148064256974084 -1.44167829158976
1.26418887200379 -1.80675920333589 2.25437972668488 -1.80675920333589 -1.89085760469237 -0.854548271848057 2.25437972668488 -0.854548271848057 -2.3004982048481
1.75838464606561 -3.86119515063891 0.945228859814355 -3.86119515063891 2.5663610960987 1.09025027392286 0.945228859814355 1.09025027392286 -0.567137315888613
-2.78647858234932 0.966136337220481 -0.606780748376278 0.966136337220481 8.02953553433851 -1.40011221227277 -0.606780748376278 -1.40011221227277 -0.416302649371427
-3.96558418667196 0.0108869847266217 -2.89321619109972 0.0108869847266217 -3.53282654378875 -1.17307260429349 -2.89321619109972 -1.17307260429349 1.87800486534225
2.21793440115588 4.13962901586237 -0.765071448482342 4.13962901586237 1.60227084496975 3.31788560823319 -0.765071448482342 3.31788560823319 0.38382372331269
6.0684927183279 -4.66174225683721 3.05832767947478 -4.66174225683721 -2.87571100045102 -0.0381287571588063 3.05832767947478 -0.0381287571588063 -3.08040222309303
5.95961658192984 -0.169349739896042 2.42070510557284 -0.169349739896042 4.07933638161349 3.42435135819203 2.42070510557284 3.42435135819203 -2.46304254054685
-5.24511540094993 3.04359791891428 -1.57958879336058 3.04359791891428 3.36832174751454 1.11451822528055 -1.57958879336058 1.11451822528055 -0.170617604857763
-1.69748499178699 3.72318460434247 1.97698025478515 3.72318460434247 -0.141029719861457 0.594889000142874 1.97698025478515 0.594889000142874 0.397447392336834
-3.83669621750606 -1.4672140645931 -2.28995092324343 -1.4672140645931 -10.1635426605271 -1.73597477175221 -2.28995092324343 -1.73597477175221 -3.75990744403203
-9.38111133078413 0.279734949160762 -0.641392276290033 0.279734949160762 -5.04521961879231 -0.447575918657219 -0.641392276290033 -0.447575918657219 -2.2079079915903
8.64520337837899 -6.13414012638175 0.997600668459336 -6.13414012638175 -2.61543998189641 -1.09595566394124 0.997600668459336 -1.09595566394124 0.0822970370358808
-2.3665161698008 -2.30077960952855 0.872981520415405 -2.30077960952855 -0.610035279326428 0.528521944588845 0.872981520415405 0.528521944588845 1.76436927770704
-0.4501606524753 -1.3634176083591 -0.799423227671654 -1.3634176083591 -3.30635237852548 -2.50434202066719 -0.799423227671654 -2.50434202066719 3.99970326854491
-4.40520498799679 1.07674055906434 -0.237747459209461 1.07674055906434 6.71980421897815 -1.5797434479703 -0.237747459209461 -1.5797434479703 0.51675687414949
-1.47063585662827 -1.08946001878896 1.75989695342832 -1.08946001878896 -0.583928943072991 0.346031966265476 1.75989695342832 0.346031966265476 -2.99804258272198
-0.997002775700471 -2.34803264668884 -0.424311886264169 -2.34803264668884 0.455549571142513 -0.281139163905094 -0.424311886264169 -0.281139163905094 -1.5358528398519
-2.73806748054378 0.269352881509729 1.11558752499305 0.269352881509729 2.56627548525017 -3.66277501076615 1.11558752499305 -3.66277501076615 -2.46235193254169
1.4067464022004 -0.844047841320242 0.803074645139648 -0.844047841320242 -4.33223260949483 -4.37593735208747 0.803074645139648 -4.37593735208747 -5.18993818287527
1.99657457197368 -0.0475846968494224 1.08453454902642 -0.0475846968494224 -2.61914102242029 0.392573749007735 1.08453454902642 0.392573749007735 3.29127486541838
0.445329582230289 -1.17034786549545 1.68899390333683 -1.17034786549545 -2.98153586151742 -2.9217965273158 1.68899390333683 -2.9217965273158 -1.60210032631628
6.03570962605323 -2.45299455352033 0.918391680665823 -2.45299455352033 2.66234835599469 -0.391057102735124 0.918391680665823 -0.391057102735124 -3.83551966420006
-3.21905365054245 0.920072797132654 -1.68399746942556 0.920072797132654 -1.83534103657793 0.055252413404833 -1.68399746942556 0.055252413404833 1.11225510462773
0.471519248123084 -0.425619144323492 -2.51407386720494 -0.425619144323492 -2.92717480140127 1.61484910640384 -2.51407386720494 1.61484910640384 -1.05987512409968
6.82454930876495 -0.10268129235206 3.73910169467379 -0.10268129235206 2.18636020056947 0.225397958821595 3.73910169467379 0.225397958821595 -3.22819965467817
2.23089333347985 -3.85500433667294 -0.253041141991928 -3.85500433667294 2.48393447547178 2.16892407421652 -0.253041141991928 2.16892407421652 0.361487345702754
-6.3112509040052 0.121412661672013 0.072847597003208 0.121412661672013 1.93377257499425 1.19425909026471 0.072847597003208 1.19425909026471 0.465783120232633
-2.86137463028945 -3.25481364195425 -1.75259196105229 -3.25481364195425 -11.5528000697937 -3.41989294754787 -1.75259196105229 -3.41989294754787 -1.54899415082015
-2.37661993032872 -0.342190496155316 1.27786763408001 -0.342190496155316 1.32598817260185 3.71330155593542 1.27786763408001 3.71330155593542 -3.52349276509927
-3.59804433865822 3.30312267155509 2.0926615683144 3.30312267155509 -0.671908493748007 0.600101479148983 2.0926615683144 0.600101479148983 0.456487449950936
-3.7150025775735 2.60050180430145 -0.408191641239557 2.60050180430145 -1.15577857968953 2.25193366122048 -0.408191641239557 2.25193366122048 -0.532025060492007
-0.332802176100759 -1.25003744193943 1.30956303441274 -1.25003744193943 -2.50278059262766 -2.16186129028054 1.30956303441274 -2.16186129028054 0.484321866032811
-0.757411072066494 1.72064037023801 0.631175893388745 1.72064037023801 0.721735912874956 -0.546104359932001 0.631175893388745 -0.546104359932001 2.9747594279713
7.2985273085318 -0.0924813391834509 3.68925558472361 -0.0924813391834509 3.32182972364341 1.87712123585869 3.68925558472361 1.87712123585869 -3.85172280220805
2.67234461021041 -3.2269335013255 -1.11433674865917 -3.2269335013255 2.01199690730127 2.3731245573297 -1.11433674865917 2.3731245573297 0.322435401811101
-3.95147997705697 -2.06573515268711 -3.01276118783321 -2.06573515268711 -2.31772161233124 -5.56862384993803 -3.01276118783321 -5.56862384993803 -4.41391666673358
9.34303755982007 -3.95591607524223 -2.5608928251314 -3.95591607524223 -1.65834896446892 -0.176890556210019 -2.5608928251314 -0.176890556210019 5.99417771157131
-0.0546081065995792 -2.50677213152354 -0.0780115808565417 -2.50677213152354 1.00634939304939 -0.0962142830564015 -0.0780115808565417 -0.0962142830564015 -1.56023161713083
-6.17270918824283 1.39345116862661 -1.06605003445073 1.39345116862661 -3.23608072255551 0.105806464093425 -1.06605003445073 0.105806464093425 -1.93446157936847
-2.94296394466524 -2.93471264388581 -0.959901324007636 -2.93471264388581 -4.04588781551643 -0.668355363134257 -0.959901324007636 -0.668355363134257 -4.0623904170753
-7.36008994539686 0.737115774982603 -0.0686203874608429 0.737115774982603 3.17424631028544 0.889851476105124 -0.0686203874608429 0.889851476105124 -0.130600092264185
-6.790257494188 -1.77800451543076 0.294022587575134 -1.77800451543076 -1.02075766252499 -5.48657243607184 0.294022587575134 -5.48657243607184 -3.7668176785569
-4.21470255859072 3.09023201295236 -1.12721986237586 3.09023201295236 2.80705238898965 1.36915973527605 -1.12721986237586 1.36915973527605 -0.827544337988133
6.91310794590768 -0.246802942239013 3.98297939762323 -0.246802942239013 4.16151769626422 3.16380367444693 3.98297939762323 3.16380367444693 1.3652928719605
-0.65846008729876 -0.153994697836 2.2621290095909 -0.153994697836 -2.92324417788683 -1.62225448927235 2.2621290095909 -1.62225448927235 -6.19695904740043
4.37078033038791 3.98769428966567 0.370230804456387 3.98769428966567 1.41921808374948 2.8358651202458 0.370230804456387 2.8358651202458 0.881869207837089
-7.6676631413245 0.854915647761773 -0.0354369180419388 0.854915647761773 3.30449260741079 0.620146065733928 -0.0354369180419388 0.620146065733928 -0.281280536957889
1.32839641745445 0.883812132580583 0.200866393768314 0.883812132580583 -0.190153519434004 0.133910929178876 0.200866393768314 0.133910929178876 -1.37928257054243
4.41651093595835 0.840879440637011 -0.608564399980539 0.840879440637011 -0.515133351020871 -0.4949320431377 -0.608564399980539 -0.4949320431377 1.38631475348264
7.38249205283872 -2.60430784105223 0.0394891257172438 -2.60430784105223 2.75634097506362 -0.406737994887611 0.0394891257172438 -0.406737994887611 -2.26667581616979
-3.46160909995723 -0.351894014730089 -0.856011844820948 -0.351894014730089 1.06556670752538 -1.98681733035809 -0.856011844820948 -1.98681733035809 -5.61251184167822
-0.155198555996805 3.80753790712161 -0.773406137384076 3.80753790712161 2.9772256325387 3.62129963992544 -0.773406137384076 3.62129963992544 0.400929602991745
-8.08311815668207 0.592995403481549 3.52952614692154 0.592995403481549 1.9715456034571 -3.22974618279987 3.52952614692154 -3.22974618279987 -5.5295180243464
-6.66277152819131 -1.21998313458351 -0.0942714240359985 -1.21998313458351 -2.17656081965467 -5.85869173494308 -0.0942714240359985 -5.85869173494308 -4.08139812297029
5.5740572688801 -2.28927440631894 1.05278969677998 -2.28927440631894 2.49074635579653 -0.359489164754138 1.05278969677998 -0.359489164754138 -4.05511678703432
-0.731838942896651 -1.44158463468699 -0.0579947841540742 -1.44158463468699 -5.38799161355232 -2.63738185081623 -0.0579947841540742 -2.63738185081623 -0.856113480369667
5.0710791125782 -1.02543147932071 -0.885235769257331 -1.02543147932071 -3.41076134625619 2.92007636103437 -0.885235769257331 2.92007636103437 0.0761062426058339
3.39032130508042 -2.78334442626764 1.48463263601506 -2.78334442626764 -4.6562235343161 -1.40260873347279 1.48463263601506 -1.40260873347279 -2.75600312542022
-3.33828700641592 2.49449006964314 -0.765075356665696 2.49449006964314 0.334566715455095 3.79585619078833 -0.765075356665696 3.79585619078833 -5.16610369452721
2.11806321846436 -3.99332406798281 0.0284130431745219 -3.99332406798281 2.58300392495654 2.04832211249053 0.0284130431745219 2.04832211249053 0.297045451370002
-8.608720200781 0.986532104937828 0.575849056728415 0.986532104937828 1.3324879335925 -3.90372093107751 0.575849056728415 -3.90372093107751 2.80112622555877
6.32867758121265 -0.491018088197533 -2.7743532308445 -0.491018088197533 0.796136324073367 0.157610744359702 -2.7743532308445 0.157610744359702 5.40119897017286
7.23206993110057 -0.100028629752428 3.75357433145987 -0.100028629752428 3.05087320744906 1.48292443607975 3.75357433145987 1.48292443607975 -3.78608363612941
-0.820628990169322 -1.17695473590074 0.672159929447898 -1.17695473590074 -2.28372409764226 -1.70064560462721 0.672159929447898 -1.70064560462721 1.61156416819436
5.06407101256336 -0.771962044598073 -0.882609937657131 -0.771962044598073 -0.501775328988748 1.50275278015092 -0.882609937657131 1.50275278015092 -2.3622038564701
1.62155555228534 -0.325850561930756 -0.646569618949217 -0.325850561930756 -3.39705625193954 -1.30596800017917 -0.646569618949217 -1.30596800017917 1.18281188228408
0.0717923188409566 3.8716571946373 1.97685277951348 3.8716571946373 0.233325036233109 0.692283074537796 1.97685277951348 0.692283074537796 0.510238266048227
-6.55752859585105 0.581096706451204 0.319110733712187 0.581096706451204 2.89957407422431 -2.03088374356336 0.319110733712187 -2.03088374356336 0.299412540273163
2.4880795395139 -0.142288901386021 0.644252525720041 -0.142288901386021 0.739111793310722 0.0197623474147252 0.644252525720041 0.0197623474147252 -3.48410184921605
0.601776364717255 0.518864954467322 0.794344801426777 0.518864954467322 -0.628521980926911 -0.815741294394501 0.794344801426777 -0.815741294394501 -0.944120252200849
1.04331443181673 -0.840226508066145 2.94875701053545 -0.840226508066145 -4.90994921538179 1.37183901435444 2.94875701053545 1.37183901435444 -1.23644706518738
1.08046746739796 -0.336409284720977 -2.80011257576578 -0.336409284720977 1.1299394210334 -1.30803845412098 -2.80011257576578 -1.30803845412098 -6.59362198053115
-1.36068955020168 2.06335997422638 -2.83418237917656 2.06335997422638 -3.37939822658034 3.32769672380929 -2.83418237917656 3.32769672380929 1.81425273360224
-4.89945725676638 -2.87798360501454 -1.46790934112225 -2.87798360501454 -3.153388734681 -0.603137233969555 -1.46790934112225 -0.603137233969555 -3.53069376232406
7.05511430066675 -0.0873157710478557 3.15334670298542 -0.0873157710478557 4.08138861240834 3.09846250404105 3.15334670298542 3.09846250404105 -3.5051045234925
-3.94038517254589 2.71188513331975 -0.305402813489862 2.71188513331975 -1.53160659096044 1.79797295460573 -0.305402813489862 1.79797295460573 -0.952948628558592
2.76221184652553 0.424641584683895 -1.00648221754404 0.424641584683895 0.945235835137709 -0.25723480610659 -1.00648221754404 -0.25723480610659 -0.800286063442725
-4.34748108040799 -0.300391280681456 -2.97114284892204 -0.300391280681456 -6.2945627451887 -0.963982928005037 -2.97114284892204 -0.963982928005037 -1.17971848413081
1.23940715100965 -0.878172905991764 -2.11758005700142 -0.878172905991764 -3.26979273507572 1.21034232669787 -2.11758005700142 1.21034232669787 -2.42898888891339
-8.32715180261355 0.691265480735194 -0.797152967668619 0.691265480735194 -4.46725322232339 -0.243741007658074 -0.797152967668619 -0.243741007658074 -2.28756929318438
4.00141786602707 1.44415993340651 2.89614022746324 1.44415993340651 4.73653176714735 2.9769506208488 2.89614022746324 2.9769506208488 1.4389463596397
-5.42470131636314 -2.8487258309393 -1.58966615517599 -2.8487258309393 -2.87076626290015 -0.611621986913467 -1.58966615517599 -0.611621986913467 -3.26749403819537