0.0000160923 0.0000072428 0.0000127643 5.2031758003 0.0000146207 2.4734665341 0.0000209281 3.1093701538 0.0000150312 5.2031805345 3.1093627775 2.4734642794 2.9819447035 4.6640207133 4.8554096634 2.2212604788 1.5547088819 2.3819603156 7.4244066698 1.5547086812 0.0915204562 8.1850954578 4.6640209726 2.5649681790 1.1249759060 4.6640453747 2.1863015838 4.0782192154 1.5546834970 4.6597567195 9.2813811740 1.5546835439 2.7606238876 6.3281397997 4.6640452443 0.2871723610 1.1666281568 4.6640375572 3.7264713872 4.0365692784 1.5546895222 1.2530308042 9.2397280556 1.5546895547 1.2204545973 6.3697918651 4.6640376506 3.6938985655 4.8587881611 4.6640381251 0.8029054575 0.3444324057 1.5546892121 3.2763636483 5.5475702902 1.5546891738 4.1440217147 10.0619239815 4.6640381088 1.6705656080 1.8605266157 5.9000867781 1.5441777630 3.3426742521 0.3186410869 4.0176313150 8.5458258884 2.7907275778 3.4027475299 7.0636886180 3.4280006385 0.9292987523 8.5458274263 0.3186430400 3.4027467967 7.0636856052 5.9000873498 0.9292973350 1.8605299890 3.4280015204 1.5441764143 3.3426726509 2.7907294001 4.0176305360
