1.61979415423954e-05 2.36541368555616e-05 -6.68486476352827e-06 1.00272971452924e-05 -1.87690433745217e-05 -1.13128480613555e-05 6.17064439710302e-06 -3.41956543672792e-05 -1.67121619088207e-05 5.14220366425252e-07 8.22752586280403e-06 -1.0284407328505e-06 0.0119584517314024 4.24231802300833e-05 0.00306398205334486 -0.0119558806295703 -4.44800616957843e-05 0.00303544282300826 -0.011921684975203 -4.34516209629338e-05 -0.00307118113847482 0.0119728499016623 4.06234089475949e-05 -0.00304007080630609 -0.00187870410873466 7.45619531316615e-06 0.0132596863686415 0.00198026263110364 -8.9988564124419e-06 0.0133771857223697 0.00187741855781859 -6.9419749467409e-06 -0.0132162347476786 -0.00200340254759278 8.9988564124419e-06 -0.0133725577390719 0.0104962661194722 4.37087311461464e-06 0.0220091459033672 -0.0104965232296554 6.17064439710302e-06 0.0218389389620804 -0.0104908668056248 5.65642403067777e-06 -0.0220227727430775 0.0104692695502349 3.34243238176414e-06 -0.0218556511239893 0.011574586227866 5.65642403067777e-06 0.0375529991396697 -0.011688228928846 5.14220366425252e-07 0.0375401436305091 -0.0115676442529192 1.0284407328505e-06 -0.0375429718425244 0.0116614894697919 5.39931384746514e-06 -0.0375463142749062 0.00127372384763535 -0.0238477408235207 -0.00758243641312355 -0.00132411744354502 0.023845683942055 -0.00757960820110821 -0.00127655205965069 -0.0238994199703464 0.00763205867848359 0.00131717546859828 0.0238860502408194 0.00761560362675798 -0.00127115274580322 0.0238464552726046 0.00759400637136812 0.00130791950200263 -0.0238369421958258 0.0075814079723907 0.00128143715313173 0.0238983915296136 -0.00761740339804047 -0.00132925964720928 -0.02389890574998 -0.00761766050822368
