6.00431087305778 0 0 0 6.05825975611022 0 0 0 7.99842143921807
