10.138647 0.000000 0.000000 0.000000 6.167615 0.000000 0.000000 0.000000 4.925518
8.914443 0.000000 0.000000 0.000000 9.287727 0.000000 0.000000 0.000000 5.073284
10.138647 0.000000 0.000000 0.000000 6.167615 0.000000 0.000000 0.000000 4.925518
8.914443 0.000000 0.000000 0.000000 9.287727 0.000000 0.000000 0.000000 5.097911
8.628699 0.000000 0.000000 0.000000 8.897898 0.000000 0.000000 0.000000 5.097911
9.038461 0.000000 0.000000 0.000000 9.124582 0.000000 0.000000 0.000000 5.097911
9.038461 0.000000 0.000000 0.000000 9.124582 0.000000 0.000000 0.000000 5.122539
9.496271 0.000000 0.000000 0.000000 8.443135 0.000000 0.000000 0.000000 5.122539
8.967163 0.000000 0.000000 0.000000 8.679329 0.000000 0.000000 0.000000 5.122539
8.967163 0.000000 0.000000 0.000000 8.679329 0.000000 0.000000 0.000000 5.147166
9.006414 0.000000 0.000000 0.000000 8.789161 0.000000 0.000000 0.000000 5.147166
9.618093 0.000000 0.000000 0.000000 8.459661 0.000000 0.000000 0.000000 5.147166
9.618093 0.000000 0.000000 0.000000 8.459661 0.000000 0.000000 0.000000 5.171794
10.138647 0.000000 0.000000 0.000000 6.167615 0.000000 0.000000 0.000000 4.950146
9.323895 0.000000 0.000000 0.000000 8.440877 0.000000 0.000000 0.000000 5.171794
9.377808 0.000000 0.000000 0.000000 8.178919 0.000000 0.000000 0.000000 5.171794
9.377808 0.000000 0.000000 0.000000 8.178919 0.000000 0.000000 0.000000 5.196422
9.272183 0.000000 0.000000 0.000000 8.659137 0.000000 0.000000 0.000000 5.196422
9.472271 0.000000 0.000000 0.000000 7.973904 0.000000 0.000000 0.000000 5.196422
9.472271 0.000000 0.000000 0.000000 7.973904 0.000000 0.000000 0.000000 5.221049
8.867089 0.000000 0.000000 0.000000 8.818646 0.000000 0.000000 0.000000 5.221049
8.456025 0.000000 0.000000 0.000000 9.271401 0.000000 0.000000 0.000000 5.221049
8.456025 0.000000 0.000000 0.000000 9.271401 0.000000 0.000000 0.000000 5.245677
8.601324 0.000000 0.000000 0.000000 9.065892 0.000000 0.000000 0.000000 5.245677
10.121665 0.000000 0.000000 0.000000 6.165088 0.000000 0.000000 0.000000 4.950146
8.952092 0.000000 0.000000 0.000000 9.051774 0.000000 0.000000 0.000000 5.245677
8.952092 0.000000 0.000000 0.000000 9.051774 0.000000 0.000000 0.000000 5.270304
8.858416 0.000000 0.000000 0.000000 9.189747 0.000000 0.000000 0.000000 5.270304
8.805401 0.000000 0.000000 0.000000 9.087797 0.000000 0.000000 0.000000 5.270304
8.805401 0.000000 0.000000 0.000000 9.087797 0.000000 0.000000 0.000000 5.294932
8.048584 0.000000 0.000000 0.000000 9.171755 0.000000 0.000000 0.000000 5.294932
8.612363 0.000000 0.000000 0.000000 8.965764 0.000000 0.000000 0.000000 5.294932
8.612363 0.000000 0.000000 0.000000 8.965764 0.000000 0.000000 0.000000 5.319560
8.620613 0.000000 0.000000 0.000000 9.137464 0.000000 0.000000 0.000000 5.319560
8.312742 0.000000 0.000000 0.000000 9.497379 0.000000 0.000000 0.000000 5.319560
10.134376 0.000000 0.000000 0.000000 6.194328 0.000000 0.000000 0.000000 4.950146
8.312742 0.000000 0.000000 0.000000 9.497379 0.000000 0.000000 0.000000 5.344187
8.684120 0.000000 0.000000 0.000000 9.085888 0.000000 0.000000 0.000000 5.344187
8.123853 0.000000 0.000000 0.000000 9.259780 0.000000 0.000000 0.000000 5.344187
8.123853 0.000000 0.000000 0.000000 9.259780 0.000000 0.000000 0.000000 5.368815
8.406793 0.000000 0.000000 0.000000 9.002358 0.000000 0.000000 0.000000 5.368815
8.082209 0.000000 0.000000 0.000000 9.139384 0.000000 0.000000 0.000000 5.368815
8.082209 0.000000 0.000000 0.000000 9.139384 0.000000 0.000000 0.000000 5.393442
8.503375 0.000000 0.000000 0.000000 9.102529 0.000000 0.000000 0.000000 5.393442
8.094132 0.000000 0.000000 0.000000 9.580359 0.000000 0.000000 0.000000 5.393442
8.094132 0.000000 0.000000 0.000000 9.580359 0.000000 0.000000 0.000000 5.418070
10.134376 0.000000 0.000000 0.000000 6.194328 0.000000 0.000000 0.000000 4.974773
8.434437 0.000000 0.000000 0.000000 9.358622 0.000000 0.000000 0.000000 5.418070
8.164545 0.000000 0.000000 0.000000 9.521369 0.000000 0.000000 0.000000 5.418070
8.164545 0.000000 0.000000 0.000000 9.521369 0.000000 0.000000 0.000000 5.442698
8.405818 0.000000 0.000000 0.000000 9.218327 0.000000 0.000000 0.000000 5.442698
8.451337 0.000000 0.000000 0.000000 9.219503 0.000000 0.000000 0.000000 5.442698
8.451337 0.000000 0.000000 0.000000 9.219503 0.000000 0.000000 0.000000 5.467325
7.830107 0.000000 0.000000 0.000000 9.208664 0.000000 0.000000 0.000000 5.467325
8.399525 0.000000 0.000000 0.000000 9.248225 0.000000 0.000000 0.000000 5.467325
8.399525 0.000000 0.000000 0.000000 9.248225 0.000000 0.000000 0.000000 5.491953
8.309837 0.000000 0.000000 0.000000 9.259797 0.000000 0.000000 0.000000 5.491953
10.164559 0.000000 0.000000 0.000000 6.255580 0.000000 0.000000 0.000000 4.974773
8.222916 0.000000 0.000000 0.000000 9.039915 0.000000 0.000000 0.000000 5.491953
8.222916 0.000000 0.000000 0.000000 9.039915 0.000000 0.000000 0.000000 5.516580
7.687213 0.000000 0.000000 0.000000 8.969124 0.000000 0.000000 0.000000 5.516580
8.607357 0.000000 0.000000 0.000000 8.869069 0.000000 0.000000 0.000000 5.516580
9.976388 0.000000 0.000000 0.000000 6.318368 0.000000 0.000000 0.000000 4.974773
9.976388 0.000000 0.000000 0.000000 6.318368 0.000000 0.000000 0.000000 4.999401
10.152672 0.000000 0.000000 0.000000 6.258674 0.000000 0.000000 0.000000 4.999401
10.138647 0.000000 0.000000 0.000000 6.167615 0.000000 0.000000 0.000000 4.925518
10.153941 0.000000 0.000000 0.000000 6.123892 0.000000 0.000000 0.000000 4.999401
10.153941 0.000000 0.000000 0.000000 6.123892 0.000000 0.000000 0.000000 5.024028
10.059297 0.000000 0.000000 0.000000 6.199075 0.000000 0.000000 0.000000 5.024028
10.203987 0.000000 0.000000 0.000000 6.297254 0.000000 0.000000 0.000000 5.024028
10.203987 0.000000 0.000000 0.000000 6.297254 0.000000 0.000000 0.000000 5.048656
10.011514 0.000000 0.000000 0.000000 6.192074 0.000000 0.000000 0.000000 5.048656
9.914618 0.000000 0.000000 0.000000 7.043270 0.000000 0.000000 0.000000 5.048656
9.914618 0.000000 0.000000 0.000000 7.043270 0.000000 0.000000 0.000000 5.073284
9.205117 0.000000 0.000000 0.000000 8.843088 0.000000 0.000000 0.000000 5.073284