5.20318 0.0255572 2.47346 2.90341 4.65071 4.88571 2.32705 1.62034 2.41589 7.50295 1.56802 0.0612175 8.07931 4.59839 2.53104 1.20824 4.67368 2.16821 4.12902 1.60754 4.64276 9.19812 1.54505 2.77872 6.27734 4.61119 0.304166 1.39993 4.67189 3.69298 3.94886 1.57423 1.24583 9.00643 1.54684 1.25395 6.4575 4.6445 3.7011 4.77165 4.67285 0.674195 0.560975 1.54737 3.12981 5.63471 1.54588 4.27273 9.84538 4.67136 1.81712 1.96617 5.87144 1.47686 3.4092 0.392408 3.92243 8.4662 2.76589 3.4654 7.00311 3.40207 0.991461 8.44019 0.347292 3.47007 6.99716 5.82632 1.0245 1.94016 3.45284 1.48153 3.40324 2.81666 3.95547
5.20318 -1.53449 2.54735 3.74497 6.00607 0.547627 2.21732 1.345 2.59325 6.66138 0.21267 4.54707 8.18903 4.87375 2.50145 2.62186 4.45953 3.13472 3.3214 -0.227228 0.0994257 7.78449 1.75922 1.95998 7.08495 6.44597 4.99527 2.95095 4.49168 4.63275 3.41288 0.13655 1.60476 7.45541 1.72706 0.461942 6.99347 6.08219 3.48994 5.6191 6.33662 0.603451 9.25557 1.34839 2.18021 4.78726 -0.117878 4.49125 1.15078 4.87036 2.91449 3.39488 5.57067 2.39285 2.83865 7.60866 4.98102 7.44719 3.07574 2.62881 8.08233 5.49821 0.642722 7.01147 0.648071 2.70185 7.5677 -1.38991 0.113681 2.95916 3.143 2.46589 2.32402 0.720531 4.45197
5.20318 0.0255572 2.47346 2.90341 4.65071 4.88571 2.32705 1.62034 2.41589 7.50295 1.56802 0.0612175 8.07931 4.59839 2.53104 1.20824 4.67368 2.16821 4.12902 1.60754 4.64276 9.19812 1.54505 2.77872 6.27734 4.61119 0.304166 1.39993 4.67189 3.69298 3.94886 1.57423 1.24583 9.00643 1.54684 1.25395 6.4575 4.6445 3.7011 4.77165 4.67285 0.674195 0.560975 1.54737 3.12981 5.63471 1.54588 4.27273 9.84538 4.67136 1.81712 1.96617 5.87144 1.47686 3.4092 0.392408 3.92243 8.4662 2.76589 3.4654 7.00311 3.40207 0.991461 8.44019 0.347292 3.47007 6.99716 5.82632 1.0245 1.94016 3.45284 1.48153 3.40324 2.81666 3.95547
5.20318 -1.53449 2.55966 3.74497 6.00607 0.550234 2.21732 1.345 2.60578 6.66138 0.21267 4.56909 8.18903 4.87375 2.51354 2.62186 4.45953 3.14989 3.3214 -0.227228 0.0998564 7.78449 1.75922 1.96944 7.08495 6.44597 5.01947 2.95095 4.49168 4.65519 3.41288 0.13655 1.6125 7.45541 1.72706 0.464133 6.99347 6.08219 3.50682 5.6191 6.33662 0.606328 9.25557 1.34839 2.19074 4.78726 -0.117878 4.513 1.15078 4.87036 2.92859 3.39488 5.57067 2.40441 2.83865 7.60866 5.00514 7.44719 3.07574 2.64152 8.08233 5.49821 0.64579 7.01147 0.648071 2.71491 7.5677 -1.38991 0.114181 2.95916 3.143 2.4778 2.32402 0.720531 4.47353
5.20317 -1.33958 2.55966 4.24751 5.35854 0.274082 2.08447 1.02177 2.4104 6.15884 0.860205 4.84524 8.32188 5.19697 2.70892 2.92459 4.04581 3.05728 3.23482 -0.46707 4.78456 7.48176 2.17293 2.06204 7.17153 6.68581 0.334767 3.70448 3.89366 4.34091 3.1579 -0.197626 1.22042 6.70187 2.32509 0.77841 7.24844 6.41637 3.8989 5.995 5.86872 1.00278 8.94246 1.54191 1.81055 4.41135 0.35002 4.11654 1.46389 4.67683 3.30878 3.49682 5.12883 2.09625 3.66257 6.93462 4.51287 7.56614 3.51637 2.79246 8.46969 6.129 1.00992 6.90953 1.08991 3.02307 6.74378 -0.715882 0.60645 2.84021 2.70238 2.32686 1.93666 0.0897456 4.1094
5.20318 -1.45292 2.55966 3.93047 5.65872 0.151382 1.89681 1.20051 2.31947 6.47588 0.56002 4.96794 8.50954 5.01823 2.79985 2.51529 4.48168 2.77848 3.33118 -0.195958 4.81455 7.89106 1.73707 2.34084 7.07517 6.4147 0.304772 3.72029 4.46869 3.73249 3.04834 0.179901 1.19926 6.68606 1.75005 1.38683 7.35801 6.03884 3.92006 5.70342 5.81801 0.730223 9.18948 1.4371 1.6217 4.70293 0.400729 4.3891 1.21688 4.78165 3.49763 2.91232 5.3819 1.60245 3.52259 7.36122 4.58946 7.92654 3.25964 3.02739 8.1472 5.77167 1.15894 7.49403 0.83684 3.51687 6.88376 -1.14248 0.529868 2.47981 2.9591 2.09193 2.25915 0.447073 3.96038
5.20318 -1.45292 2.57198 3.93047 5.65872 0.152062 1.89681 1.20051 2.33063 6.47588 0.56002 4.99189 8.50954 5.01823 2.81332 2.51529 4.48168 2.79185 3.33118 -0.195958 4.83776 7.89106 1.73707 2.3521 7.07517 6.4147 0.306193 3.72029 4.46869 3.75047 3.04834 0.179901 1.20501 6.68606 1.75005 1.39348 7.35801 6.03884 3.93895 5.70342 5.81801 0.733699 9.18948 1.4371 1.62948 4.70293 0.400729 4.41025 1.21688 4.78165 3.51447 2.91232 5.3819 1.61014 3.52259 7.36122 4.61158 7.92654 3.25964 3.04197 8.1472 5.77167 1.16449 7.49403 0.83684 3.53381 6.88376 -1.14248 0.532376 2.47981 2.9591 2.10198 2.25915 0.447073 3.97946
5.20318 -1.1122 2.57198 3.34862 5.65751 0.233694 2.25629 1.67596 2.40822 7.05774 0.561226 4.91026 8.15006 4.54278 2.73573 1.85481 4.81166 2.77512 3.84839 0.510459 4.96939 8.55155 1.40708 2.36883 6.55797 5.70828 0.174562 2.40333 4.60282 4.16365 3.56764 0.64915 1.37441 8.00302 1.61592 0.980307 6.83871 5.56959 3.76955 5.11461 5.28082 0.61131 0.515681 0.824334 2.14008 5.29175 0.937922 4.53264 9.89067 5.39441 3.00387 2.72255 5.86311 2.07101 3.72366 -1.03292 4.53137 8.489 2.73256 3.15245 7.61663 4.90342 0.928708 7.68381 0.355628 3.07294 6.6827 7.25166 0.612582 1.91735 3.48618 1.9915 2.78972 1.31532 4.21524
5.20318 -1.23029 2.57198 3.20088 6.26938 4.96961 2.53509 1.83714 3.11979 7.20547 -0.0506418 0.174339 7.87126 4.3816 2.02417 1.97348 5.12449 2.5105 4.19683 0.739303 0.418826 8.43287 1.09425 2.63345 6.20953 5.47944 4.72513 1.72603 5.85946 3.91241 3.53454 0.665775 1.87118 8.68032 0.359281 1.23154 6.87181 5.55297 3.27277 4.72427 5.25623 4.47172 0.819342 1.12141 3.28173 5.68208 0.962513 0.672229 9.58701 5.09733 1.86223 3.08036 6.05643 1.76449 3.83784 -0.623315 4.88745 7.97274 2.54915 2.46218 6.73183 4.30777 0.440476 7.32599 0.162309 3.37946 6.56851 6.84206 0.256499 2.43361 3.6696 2.68177 3.67452 1.91097 4.70348
5.20318 -1.23029 2.58429 3.20088 6.26938 4.99345 2.53509 1.83714 3.13473 7.20547 -0.0506418 0.175126 7.87126 4.3816 2.03385 1.97348 5.12449 2.52252 4.19683 0.739303 0.420788 8.43287 1.09425 2.64606 6.20953 5.47944 4.74779 1.72603 5.85946 3.93117 3.53454 0.665775 1.88013 8.68032 0.359281 1.23741 6.87181 5.55297 3.28845 4.72427 5.25623 4.49317 0.819342 1.12141 3.29745 5.68208 0.962513 0.675409 9.58701 5.09733 1.87113 3.08036 6.05643 1.77292 3.83784 -0.623315 4.9109 7.97274 2.54915 2.47396 6.73183 4.30777 0.442542 7.32599 0.162309 3.39566 6.56851 6.84206 0.257681 2.43361 3.6696 2.69462 3.67452 1.91097 4.72604
5.20317 -1.28521 2.58429 3.19259 6.30957 5.26181 2.54196 1.84113 3.02344 7.21376 -0.0908255 -0.0932262 7.86439 4.37762 2.14514 1.88365 5.16255 2.67484 4.17025 0.68726 0.326607 8.5227 1.0562 2.49374 6.23611 5.53148 4.84197 1.8535 5.54593 4.22582 3.76508 0.740649 1.8537 8.55285 0.67281 0.942764 6.64127 5.47809 3.31488 4.69149 5.26423 4.9297 0.978939 0.754676 2.98318 5.71486 0.954511 0.238876 9.42741 5.46407 2.18539 2.90192 5.99081 1.86249 3.76679 -0.733845 4.90285 8.06348 2.54733 2.67686 6.97645 4.44231 0.425834 7.50444 0.22793 3.30608 6.63956 6.95259 0.265728 2.34287 3.67142 2.49172 3.4299 1.77643 4.74275
5.20318 -1.12046 2.58429 3.28068 5.93425 0.120428 2.28108 1.65224 2.49143 7.12568 0.284495 5.04815 8.12527 4.5665 2.67716 1.74565 4.85454 2.59588 3.91053 0.597506 -0.181698 8.6607 1.3642 2.5727 6.49582 5.62123 5.35028 2.41247 4.92632 3.96614 3.51538 0.677977 1.37701 7.99388 1.29242 1.20244 6.89097 5.54076 3.79157 5.0421 5.23316 5.61711 0.535578 0.985063 2.49667 5.36426 0.985578 -0.448529 9.87078 5.23368 2.67191 2.48846 5.95145 1.73958 3.78336 -0.913399 4.48352 8.38573 2.74969 3.07137 7.5435 4.77492 0.905257 7.91789 0.267288 3.429 6.623 7.13214 0.685063 2.02062 3.46905 2.0972 2.86286 1.44382 4.26332
5.20318 -1.12046 2.5966 3.28068 5.93425 0.120953 2.28108 1.65224 2.50329 7.12568 0.284495 5.07225 8.12527 4.5665 2.68991 1.74565 4.85454 2.60825 3.91053 0.597506 4.98918 8.6607 1.3642 2.58496 6.49582 5.62123 0.204032 2.41247 4.92632 3.98507 3.51538 0.677977 1.38355 7.99388 1.29242 1.20814 6.89097 5.54076 3.80966 5.0421 5.23316 0.47214 0.535578 0.985063 2.50856 5.36426 0.985578 4.72107 9.87078 5.23368 2.68464 2.48846 5.95145 1.74785 3.78336 -0.913399 4.50492 8.38573 2.74969 3.08602 7.5435 4.77492 0.909537 7.91789 0.267288 3.44536 6.623 7.13214 0.688289 2.02062 3.46905 2.10719 2.86286 1.44382 4.28367
5.20318 0.0255572 2.48578 2.90341 4.65071 4.91009 2.32705 1.62034 2.42792 7.50295 1.56802 0.0614701 8.07931 4.59839 2.54364 1.20824 4.67368 2.179 4.12902 1.60754 4.66592 9.19812 1.54505 2.79256 6.27734 4.61119 0.305633 1.39993 4.67189 3.71139 3.94886 1.57423 1.25201 9.00643 1.54684 1.26017 6.4575 4.6445 3.71955 4.77165 4.67285 0.677513 0.560975 1.54737 3.14541 5.63471 1.54588 4.29405 9.84538 4.67136 1.82615 1.96617 5.87144 1.4842 3.4092 0.392408 3.94199 8.4662 2.76589 3.48268 7.00311 3.40207 0.996365 8.44019 0.347292 3.48736 6.99716 5.82632 1.02957 1.94016 3.45284 1.48888 3.40324 2.81666 3.97519
5.20319 -1.11106 2.5966 3.49072 5.70275 0.300643 2.17299 1.48031 2.31815 6.91564 0.515999 4.89256 8.23336 4.73842 2.87506 2.12315 4.82621 2.84876 3.68741 0.374305 4.95072 8.2832 1.39252 2.34445 6.71894 5.84444 0.242488 2.66738 4.58628 4.31158 3.56337 0.486003 1.32016 7.73899 1.63245 0.881617 6.84298 5.73273 3.87305 5.28529 5.20192 0.67507 0.399611 0.956243 2.21444 5.12106 1.01682 4.51815 10.0067 5.26249 2.97878 2.91752 6.00484 2.14739 3.78841 -1.10151 4.4061 8.27024 2.81381 3.02314 7.82174 5.08158 0.988456 7.48882 0.213904 3.0458 6.61794 7.32026 0.787097 2.13611 3.40493 2.17007 2.58461 1.13716 4.20475
5.2032 -0.980096 2.5966 3.97296 5.23377 0.0709636 1.81087 1.38312 2.82983 6.43339 0.984976 5.12223 8.59549 4.83562 2.36338 2.37534 4.41849 2.6497 3.29503 0.464088 0.273624 8.03101 1.80024 2.5435 7.11133 5.75466 4.91959 2.83081 4.27326 4.08652 3.00697 0.248552 1.81562 7.57554 1.94547 1.10668 7.39937 5.97019 3.37759 5.84092 4.87218 -0.0962732 9.32303 0.824359 2.67013 4.56544 1.34657 5.2895 1.08333 5.39438 2.5231 3.52163 5.16243 1.90712 3.70687 -0.911775 4.7792 8.32071 3.18065 3.15384 8.36673 5.22205 0.466347 6.88472 1.0563 3.28608 6.69949 7.13052 0.414011 2.08561 3.03809 2.03937 2.03963 0.996703 4.72687
5.2032 -0.980096 2.60891 3.97296 5.23377 0.0712506 1.81087 1.38312 2.84326 6.43339 0.984976 5.14657 8.59549 4.83562 2.37458 2.37534 4.41849 2.66227 3.29503 0.464088 0.274876 8.03101 1.80024 2.55557 7.11133 5.75466 4.94297 2.83081 4.27326 4.10593 3.00697 0.248552 1.82422 7.57554 1.94547 1.1119 7.39937 5.97019 3.39362 5.84092 4.87218 5.09964 9.32303 0.824359 2.68279 4.56544 1.34657 0.118218 1.08333 5.39438 2.53506 3.52163 5.16243 1.91615 3.70687 -0.911775 4.80191 8.32071 3.18065 3.1688 8.36673 5.22205 0.468517 6.88472 1.0563 3.30168 6.69949 7.13052 0.415932 2.08561 3.03809 2.04903 2.03963 0.996703 4.74932
5.20318 -1.22016 2.60892 3.7634 5.52387 0.118963 2.01699 1.38725 2.28278 6.64294 0.694848 5.09888 8.38937 4.8315 2.93506 2.33828 4.53722 2.75912 3.52315 0.202592 4.99678 8.06808 1.68152 2.45871 6.8832 6.01615 0.221046 3.12101 4.2533 4.09927 3.33537 0.354321 1.30895 7.28529 1.96542 1.11859 7.07101 5.86445 3.90888 5.57783 5.40479 0.638813 9.42662 1.2387 1.93864 4.82853 0.813914 4.57897 0.979738 4.98007 3.27913 3.07643 5.60774 1.92422 3.67221 7.28931 4.55287 8.02407 2.92345 3.38235 8.11166 5.47837 1.10069 7.32998 0.610982 3.29363 6.7341 -1.07058 0.664995 2.38229 3.29528 1.83548 2.29469 0.7404 4.11715
5.20305 7.09633 2.60897 3.3537 5.57644 0.441854 2.19154 1.64752 2.52042 7.05266 0.642148 4.776 8.21487 4.5713 2.6974 1.86907 4.8452 2.93823 3.79754 0.774196 5.17214 8.53727 1.37364 2.27964 6.6088 5.44447 0.0456641 2.22099 4.69833 4.46302 3.61648 0.793768 1.50542 8.18522 1.52047 0.754856 6.78996 5.42504 3.7124 5.22061 4.91111 0.472666 0.563164 0.946035 2.41321 5.18572 1.30748 4.74504 9.84321 5.27281 2.80453 2.88 5.79541 2.29564 3.705 -0.719179 4.82128 8.38763 2.6855 3.11436 7.66155 4.55891 0.803933 7.52641 0.423384 2.92222 6.7013 6.93785 0.396675 2.01882 3.53335 2.10349 2.74476 1.65974 4.41386
5.20305 -0.87757 2.62128 3.3537 5.57644 0.443897 2.19154 1.64752 2.53231 7.05266 0.642148 4.79859 8.21487 4.5713 2.71013 1.86907 4.8452 2.9521 3.79754 0.774196 5.1966 8.53727 1.37364 2.2904 6.6088 5.44447 0.0458298 2.22099 4.69833 4.48412 3.61648 0.793768 1.5125 8.18522 1.52047 0.758383 6.78996 5.42504 3.72994 5.22061 4.91111 0.474855 0.563164 0.946035 2.4246 5.18572 1.30748 4.76748 9.84321 5.27281 2.81778 2.88 5.79541 2.30647 3.705 -0.719179 4.84407 8.38763 2.6855 3.12907 7.66155 4.55891 0.807692 7.52641 0.423384 2.93601 6.7013 6.93785 0.398504 2.01882 3.53335 2.11341 2.74476 1.65974 4.43473
5.20371 -1.29929 2.62163 3.34141 6.26465 -0.218262 2.52733 1.72918 3.10372 7.06499 -0.0459417 5.46075 7.87885 4.4895 2.13864 2.09947 4.99739 2.45624 4.00119 0.632796 0.439395 8.30683 1.22142 2.78623 6.4051 5.58582 4.80303 2.02505 5.4813 3.90152 3.32766 0.540848 1.83922 8.38131 0.737473 1.34099 7.07821 5.67794 3.40294 4.93292 5.39073 4.4482 0.776516 1.16375 3.53204 5.47343 0.827635 0.794541 9.62967 5.05494 1.71058 3.15428 5.98751 1.74449 3.89586 -0.735547 4.81843 7.81473 2.67857 2.85023 7.00552 4.49575 0.429789 7.25193 0.231217 3.49798 6.51063 6.95421 0.423979 2.59156 3.5402 2.39226 3.40139 1.7229 4.81226
5.20418 -1.52609 2.62069 3.12802 6.56285 0.194487 2.76177 1.83322 3.1833 7.27824 -0.344151 5.04775 7.64474 4.38542 2.05927 2.33496 5.0656 2.88278 3.9225 0.45198 0.538621 8.07128 1.15315 2.35974 6.48372 5.76683 4.70389 2.06618 5.58876 4.30571 3.77414 0.736406 2.06982 8.3398 0.630103 0.93672 6.63175 5.48199 3.17277 5.02191 6.30946 4.85316 1.00075 1.3447 3.11774 5.38435 -0.0907863 0.389804 9.40557 4.87403 2.12503 3.27457 6.00139 2.09412 3.08664 -0.829554 0.072067 7.43998 2.57262 2.36538 6.93787 4.55926 0.249438 7.13146 0.217372 3.14818 7.3196 7.04846 5.17039 2.96631 3.64609 2.87722 3.46866 1.65965 4.99319
5.20418 -1.52609 2.633 3.12802 6.56285 0.195354 2.76177 1.83322 3.19826 7.27824 -0.344151 5.07151 7.64474 4.38542 2.06893 2.33496 5.0656 2.89632 3.9225 0.45198 0.541111 8.07128 1.15315 2.37082 6.48372 5.76683 4.72602 2.06618 5.58876 4.32597 3.77414 0.736406 2.07953 8.3398 0.630103 0.941088 6.63175 5.48199 3.18769 5.02191 6.30946 4.876 1.00075 1.3447 3.1324 5.38435 -0.0907863 0.391592 9.40557 4.87403 2.13501 3.27457 6.00139 2.10394 3.08664 -0.829554 0.0723565 7.43998 2.57262 2.37649 6.93787 4.55926 0.250564 7.13146 0.217372 3.16298 7.3196 7.04846 5.19473 2.96631 3.64609 2.89074 3.46866 1.65965 5.01669
5.20383 -1.42103 2.63457 3.33355 6.21652 5.1481 2.48205 1.62476 3.51389 7.07331 0.00220492 0.118561 7.92377 4.59366 1.75363 2.4764 4.62574 2.49964 3.60993 0.239871 0.761396 7.92968 1.59281 2.76715 6.79654 5.97852 4.50592 2.15707 5.49059 3.83875 3.31498 0.381534 2.32438 8.24978 0.729824 1.42699 7.09125 5.83664 2.94282 5.19619 6.21067 4.54974 9.19425 1.86826 3.54051 5.21036 0.00880838 0.717676 1.21134 4.3495 1.72702 3.45655 5.47027 1.68281 2.9051 -1.12862 0.346289 7.28787 2.92059 2.37136 7.10609 4.78812 0.105933 6.94926 0.747028 3.58254 7.50185 7.3467 4.92076 3.11805 3.29842 2.89648 3.30022 1.43025 5.16133
5.20318 0.0268207 2.48578 2.89813 4.64919 4.91012 2.33135 1.62296 2.4347 7.50823 1.56954 0.0614351 8.075 4.59577 2.53686 1.22014 4.66591 2.17651 4.13506 1.60194 4.66176 9.18622 1.55282 2.79505 6.27129 4.61679 0.309802 1.40584 4.65763 3.70691 3.96061 1.57262 1.25425 9.00052 1.5611 1.26464 6.44575 4.64611 3.71731 4.76829 4.67717 0.690849 0.568377 1.54262 3.16591 5.63807 1.54156 4.28071 9.83798 4.67611 1.80565 1.99099 5.85947 1.49668 3.41158 0.387531 3.95278 8.45757 2.78309 3.47882 6.99886 3.40312 0.986347 8.41537 0.359261 3.47488 6.99477 5.8312 1.01878 1.94879 3.43564 1.49274 3.4075 2.81561 3.98521
5.22743 7.62985 2.60067 3.00616 6.35889 0.306544 2.64063 1.8484 3.12731 7.39915 -0.139917 4.96044 7.76255 4.37128 2.1405 2.05197 5.01874 2.82631 3.922 0.519912 0.325435 8.35145 1.19988 2.44148 6.48457 5.69938 4.94527 1.86649 5.4953 4.31311 3.70235 0.750111 1.86287 8.54145 0.722523 0.956375 6.69638 5.47483 3.40462 4.97823 5.85814 5.18843 9.77861 1.23979 3.14445 5.43181 0.355812 0.102351 0.621687 4.97974 2.13069 2.8884 6.16126 2.15359 3.10668 -0.755258 -0.0326002 7.4966 2.5139 2.60356 6.99288 4.43155 0.426533 7.50849 0.0585642 3.1124 7.29807 6.97456 5.30692 2.90778 3.70598 2.6618 3.42001 1.78606 4.83837
5.22743 7.62985 2.61283 3.00616 6.35889 0.307933 2.64063 1.8484 3.14194 7.39915 -0.139917 4.98368 7.76255 4.37128 2.1505 2.05197 5.01874 2.83953 3.922 0.519912 0.326912 8.35145 1.19988 2.4529 6.48457 5.69938 4.96844 1.86649 5.4953 4.33331 3.70235 0.750111 1.87156 8.54145 0.722523 0.960815 6.69638 5.47483 3.42056 4.97823 5.85814 5.21274 0.826517 1.23979 3.15916 5.43181 0.355812 0.102781 9.57378 4.97974 2.14064 2.8884 6.16126 2.16365 3.10668 -0.755258 5.2375 7.4966 2.5139 2.61573 6.99288 4.43155 0.428486 7.50849 0.0585642 3.12696 7.29807 6.97456 0.0614851 2.90778 3.70598 2.67425 3.42001 1.78606 4.86103
5.80977 7.60538 2.33838 3.19102 6.41483 0.0675838 2.60116 1.83783 3.08902 7.24409 -0.210693 5.19798 7.72673 4.40237 2.2618 2.03134 5.14303 2.63953 3.95583 0.415952 0.446597 8.29434 1.1144 2.63306 6.37474 5.77477 4.89845 1.91964 5.62054 4.18001 3.53074 0.690463 1.8709 8.43924 0.67862 1.12339 6.86153 5.74073 3.44305 4.83055 5.52143 4.78918 0.895713 1.02747 3.18874 5.55269 0.523426 0.594007 9.44551 5.22973 2.06939 2.99316 6.12374 1.86294 3.37465 -0.90651 5.20339 7.66279 2.54066 2.64768 6.93494 4.60316 0.493922 7.38631 0.0866829 3.4478 6.86937 7.08051 0.260771 2.64222 3.70272 2.65749 3.51646 1.58408 4.76172
5.57352 7.76394 2.6394 3.42674 6.1118 5.24687 2.41154 1.55649 3.27663 7.01008 0.118358 0.0310846 7.93847 4.57191 2.01468 2.2837 4.8117 2.60807 3.70249 0.364091 0.586404 8.09067 1.34629 2.64547 6.6683 5.89352 4.73156 2.18268 5.39152 4.01416 3.3905 0.384127 2.11125 8.20604 0.959622 1.20043 7.29176 5.86323 3.29457 5.15204 6.08701 4.53022 9.37958 1.04409 3.39343 5.27487 0.276346 0.650232 0.955849 4.99474 1.86795 3.38139 5.68932 1.83906 3.22131 -0.924497 5.22855 7.64292 2.83 2.79304 6.96405 4.62592 0.271988 7.00741 0.513885 3.3443 7.13761 7.24717 0.155674 2.6327 3.28979 2.61857 3.11902 1.6365 5.10217
5.57352 -1.32386 2.65169 3.42674 6.1118 5.27134 2.41154 1.55649 3.29189 7.01008 0.118358 0.0311799 7.93847 4.57191 2.02404 2.2837 4.8117 2.62021 3.70249 0.364091 0.589094 8.09067 1.34629 2.65778 6.6683 5.89352 4.75362 2.18268 5.39152 4.03286 3.3905 0.384127 2.12107 8.20604 0.959622 1.20599 7.29176 5.86323 3.30992 5.15204 6.08701 4.55134 9.37958 1.04409 3.40924 5.27487 0.276346 0.653221 0.955849 4.99474 1.87663 3.38139 5.68932 1.8476 3.22131 -0.924497 5.25294 7.64292 2.83 2.80604 6.96405 4.62592 0.273209 7.00741 0.513885 3.35988 7.13761 7.24717 0.156351 2.6327 3.28979 2.63076 3.11902 1.6365 5.12596
4.94971 7.93164 2.76299 3.35127 6.39249 -0.0366714 2.94728 1.83135 3.35463 7.09051 -0.175347 5.33264 7.51644 4.31953 1.87322 2.61422 4.87931 2.71378 3.83938 0.381889 0.654727 7.78022 1.26748 2.74046 6.56605 5.89673 4.59518 2.26425 5.52914 4.05697 3.38051 0.496457 2.13176 8.18606 0.506341 1.44142 6.94849 5.56292 3.14427 5.0361 6.44674 4.5279 9.07535 1.60467 3.58051 5.32938 0.0448583 0.716966 1.3724 4.47995 1.90053 3.40878 5.94251 1.85588 3.09574 -0.848925 5.24176 6.98391 2.61514 2.52421 6.79224 4.57258 0.0856284 6.83382 0.243203 3.46692 7.44126 7.10638 5.12286 3.51135 3.64848 2.88755 3.65623 1.72568 5.23163
5.06726 -1.50985 2.8575 3.20527 6.32209 0.168092 2.78396 1.86804 3.14592 7.21146 -0.193148 -0.110879 7.69425 4.41232 2.12291 2.21691 5.03119 2.84041 3.91107 0.450985 0.401188 8.13952 1.19774 2.48373 6.50595 5.80115 4.84109 2.00289 5.42494 4.31009 3.62851 0.554651 2.01005 8.20728 0.840268 0.968446 6.9304 5.68598 3.40768 4.95831 6.06979 4.77733 0.986348 1.131 3.14335 5.4189 0.337314 0.201596 9.50838 4.80512 2.00886 3.20843 6.14464 2.17215 3.09094 -0.702147 5.2555 7.61944 2.61864 2.61993 6.87544 4.58173 0.4098 7.19917 0.0817432 3.17396 7.22014 6.98252 0.266661 3.0087 3.68682 2.77453 3.37173 1.71686 4.91363
5.06726 7.45591 2.87074 3.20527 6.32209 0.168824 2.78396 1.86804 3.1605 7.21146 -0.193148 5.20812 7.69425 4.41232 2.13273 2.21691 5.03119 2.85357 3.91107 0.450985 0.403005 8.13952 1.19774 2.49523 6.50595 5.80115 4.86355 2.00289 5.42494 4.33008 3.62851 0.554651 2.01935 8.20728 0.840268 0.9729 6.9304 5.68598 3.42348 4.95831 6.06979 4.7995 0.986348 1.131 3.15792 5.4189 0.337314 0.202484 9.50838 4.80512 2.01815 3.20843 6.14464 2.1822 3.09094 -0.702147 5.27989 7.61944 2.61864 2.63207 6.87544 4.58173 0.411656 7.19917 0.0817432 3.18868 7.22014 6.98252 0.267851 3.0087 3.68682 2.78739 3.37173 1.71686 4.93643
4.80558 8.00321 2.97852 3.37962 6.3019 0.219017 2.518 1.75238 3.20578 7.12122 -0.152251 5.21863 7.77595 4.48449 2.04725 2.34281 4.93305 2.78134 3.78499 0.359112 0.447172 7.99061 1.25051 2.64901 6.84 5.86606 4.75026 2.29365 5.3778 4.31196 3.32228 0.438714 1.96394 8.25833 0.63559 1.2485 7.08264 5.76955 3.20708 5.27914 6.10134 4.91711 0.687315 1.40546 3.41274 5.35175 0.314747 0.501248 9.58395 4.77206 2.18501 3.2258 5.91796 1.97412 3.17488 -0.906709 5.13211 7.36563 2.69501 2.43896 7.21425 4.56892 0.167281 6.9305 0.229932 3.32436 7.55203 7.10812 0.0194906 2.91934 3.49709 2.6314 3.36108 1.59075 4.92426
5.39358 7.11571 2.16887 3.29062 6.53035 5.1907 2.79446 1.78909 3.41028 7.01778 -0.247116 0.0724058 7.68888 4.49675 2.1144 2.52512 4.9227 2.60994 3.77677 0.1354 0.72133 7.84481 1.35477 2.70538 6.61276 6.11009 4.72079 2.14983 5.76937 3.85995 3.37828 0.76116 2.02463 8.03844 0.683855 1.35313 7.22042 5.88698 3.28657 5.08116 6.44344 4.51256 9.2217 1.44289 3.50321 5.25933 -0.406413 0.909903 1.2007 4.62978 1.8577 3.40992 5.76179 1.59481 2.86371 -1.15166 0.266409 7.27712 2.72989 2.48605 6.84898 4.95951 0.358423 6.90419 0.486492 3.60627 7.27729 7.39615 5.31975 3.3105 3.6434 3.11624 3.71181 1.15525 4.87742
5.20318 0.0122007 2.48578 2.91721 4.69751 4.90576 2.3313 1.60687 2.46599 7.48915 1.52122 0.0657953 8.07506 4.61186 2.50557 1.17687 4.68367 2.18463 4.13595 1.61718 4.6558 9.22949 1.53506 2.78693 6.27041 4.60155 0.315761 1.39998 4.69471 3.62549 3.9401 1.53888 1.2324 9.00637 1.52402 1.34607 6.46625 4.67985 3.73916 4.76475 4.68918 0.707003 0.538367 1.49031 3.21753 5.6416 1.52955 4.26455 9.86799 4.72842 1.75403 1.96282 5.91025 1.48796 3.4195 0.401567 3.95465 8.49717 2.75465 3.44076 6.96729 3.36938 0.932575 8.44354 0.308475 3.4836 6.98686 5.81716 1.01691 1.90919 3.46408 1.53079 3.43907 2.84935 4.03898
5.39358 7.11571 2.17886 3.29062 6.53035 5.21468 2.79446 1.78909 3.42602 7.01778 -0.247116 0.0726915 7.68888 4.49675 2.12414 2.52512 4.9227 2.62197 3.77677 0.1354 0.72462 7.84481 1.35477 2.71785 6.61276 6.11009 4.7426 2.14983 5.76937 3.87777 3.37828 0.76116 2.03395 8.03844 0.683855 1.35934 7.22042 5.88698 3.30174 5.08116 6.44344 4.5334 9.2217 1.44289 3.51938 5.25933 -0.406413 0.914066 1.2007 4.62978 1.86625 3.40992 5.76179 1.60214 2.86371 -1.15166 0.267593 7.27712 2.72989 2.49751 6.84898 4.95951 0.360033 6.90419 0.486492 3.62292 7.27729 7.39615 5.34433 3.3105 3.6434 3.13062 3.71181 1.15525 4.89995
4.65848 -1.17207 2.79151 3.22019 6.39078 5.31194 2.61903 1.7758 3.38409 7.28549 -0.153723 0.0664716 7.76789 4.37267 1.93404 2.23566 4.87747 2.73976 3.87377 0.442907 0.595856 8.17739 1.25274 2.73187 6.56244 5.83473 4.71456 1.9707 5.70224 4.01328 3.28888 0.515571 2.02501 8.41023 0.617188 1.41438 7.01236 5.56572 3.22488 5.0454 6.27007 4.73386 9.47563 1.33354 3.55825 5.40763 0.134749 0.846946 9.65247 4.70112 1.86618 3.14586 5.80363 1.78703 3.23027 -0.805722 5.08291 7.50532 2.54614 2.50707 6.81404 4.54797 0.226383 7.26311 0.337228 3.58869 7.46329 7.00001 -0.0186071 3.04573 3.60912 2.88271 3.63703 1.73432 5.05218
5.08234 -1.51313 2.55788 3.35589 6.32064 5.23541 2.82498 1.83121 3.36769 6.99653 -0.0575395 5.36797 7.7464 4.42601 2.05421 2.7261 4.85419 2.53478 3.62264 0.176395 0.696894 7.80687 1.39944 2.64748 6.61187 6.01756 4.88902 2.29435 5.39293 3.92531 3.25196 0.373328 2.18257 8.12797 0.638969 1.37628 7.31696 5.44836 3.68252 5.17707 6.38318 4.41174 9.13029 1.84994 3.37772 5.17889 -0.256697 0.767096 1.47706 4.47149 1.65078 3.67114 5.78695 1.77461 2.81489 -1.03435 5.40603 7.03302 2.73235 2.33117 6.51952 4.98922 0.692348 6.99418 0.427291 3.50198 7.25967 7.30095 0.114897 3.50698 3.46688 2.80586 3.37013 1.45988 5.20673
5.08234 -1.51313 2.56962 3.35589 6.32064 5.25949 2.82498 1.83121 3.38316 6.99653 -0.0575395 0.0238434 7.7464 4.42601 2.06362 2.7261 4.85419 2.54642 3.62264 0.176395 0.700056 7.80687 1.39944 2.65963 6.61187 6.01756 4.9115 2.29435 5.39293 3.94335 3.25196 0.373328 2.19258 8.12797 0.638969 1.38257 7.31696 5.44836 3.69944 5.17707 6.38318 4.43202 9.13029 1.84994 3.39324 5.17889 -0.256697 0.770582 1.47706 4.47149 1.65834 3.67114 5.78695 1.78273 2.81489 -1.03435 0.0620736 7.03302 2.73235 2.34186 6.51952 4.98922 0.695489 6.99418 0.427291 3.51807 7.25967 7.30095 0.115377 3.50698 3.46688 2.81874 3.37013 1.45988 5.23068
4.90546 -1.70506 2.70159 3.24903 6.35191 5.49161 2.81487 1.83899 3.09128 7.29301 -0.150327 5.02114 7.46246 4.43638 2.57475 2.2731 5.03367 2.81107 3.94285 0.478118 0.29754 8.19854 1.17458 2.36998 6.49362 5.76258 5.28668 2.39064 5.24699 4.29651 3.59808 0.777172 1.78422 8.54287 0.472186 0.976983 6.97828 4.64473 4.45283 5.0657 6.21967 4.76719 1.02998 1.40351 3.23032 5.45384 0.116912 0.30597 9.22138 5.28751 2.38788 3.09464 6.05876 1.95256 3.10895 -0.777966 5.03572 7.53197 2.56462 2.10005 6.28585 5.4432 1.44474 7.18605 0.35896 3.15936 7.49361 6.94437 5.2936 2.80685 3.62356 2.47948 3.68189 1.65593 4.74033
5.123 -1.55923 2.54785 3.387 6.5033 5.39504 2.95053 1.88266 3.10183 7.16056 -0.15503 5.30469 7.43812 4.29575 2.46628 2.5041 5.03286 2.68029 3.85975 0.297507 0.345482 7.83138 1.15386 2.53742 6.51609 5.95038 5.22674 2.33308 5.75141 4.05525 3.35353 0.677173 1.76211 8.3339 0.319741 1.32652 7.15051 4.76824 4.31477 5.1004 6.40323 4.58528 0.979283 1.66086 3.3676 5.31327 -0.295205 0.59705 9.20166 4.69316 2.01428 3.40503 5.94916 1.81506 3.01104 -0.870066 5.04139 6.92848 2.36066 2.08228 6.44335 5.48769 1.33657 6.90186 0.342105 3.43492 7.42569 7.14109 5.00993 3.31287 3.71896 2.81282 3.93714 1.4781 4.71422
5.123 7.58016 2.55949 3.387 6.5033 0.0262999 2.95053 1.88266 3.11601 7.16056 -0.15503 5.32898 7.43812 4.29575 2.47754 2.5041 5.03286 2.69253 3.85975 0.297507 0.347018 7.83138 1.15386 2.54901 6.51609 5.95038 5.25067 2.33308 5.75141 4.07381 3.35353 0.677173 1.77014 8.3339 0.319741 1.33256 7.15051 4.76824 4.33452 5.1004 6.40323 4.60626 9.06149 1.66086 3.383 5.31327 -0.295205 0.59974 9.20166 4.69316 2.02347 3.40503 5.94916 1.82334 3.01104 -0.870066 5.06446 6.92848 2.36066 2.09179 6.44335 5.48769 1.34266 6.90186 0.342105 3.45062 7.42569 7.14109 5.03286 3.31287 3.71896 2.82567 3.93714 1.4781 4.7358
5.00184 7.56128 2.76839 3.41926 6.08427 0.0720067 2.64931 1.69814 3.23046 6.98195 0.0768522 5.12544 7.75794 4.65226 2.45252 2.56834 4.8262 2.74114 3.72365 0.181374 0.468872 7.9706 1.41908 2.43944 6.67476 6.01646 5.09864 2.43966 5.22192 4.208 3.24326 0.292521 1.95494 8.20605 0.535826 1.15829 7.14036 4.83886 4.21556 5.19014 6.2648 4.75798 9.3227 1.5637 3.21006 5.23183 -0.0676019 0.522708 1.16368 4.78882 2.16853 3.4117 5.84303 1.95871 3.05974 -1.14296 -0.093331 7.3448 2.79659 2.05531 6.71102 5.83167 1.27876 6.90752 0.689512 3.41061 7.41859 7.34871 4.76587 3.20381 3.40459 2.64085 3.31868 1.41339 4.99939
5.45064 8.20813 2.65901 3.39674 6.41702 -0.213865 2.86931 1.65084 3.27254 7.13985 -0.143706 5.1388 7.42446 4.6404 2.62645 2.4887 4.81756 2.53168 3.78346 -0.063401 0.462674 7.72353 1.38624 2.56251 6.63688 6.15612 5.29411 2.43845 5.47383 3.93632 3.47467 0.329926 1.89776 8.07933 0.815177 1.18723 7.26967 4.97791 4.54745 5.25362 6.39302 4.58271 9.05217 1.41204 3.38303 5.3767 -0.471506 0.399672 1.07194 4.76008 1.81502 3.42496 5.68635 1.61581 2.9957 -1.28027 -0.0841442 7.13623 2.78671 2.44746 6.44706 5.8686 1.4091 6.91228 0.350313 3.372 7.5799 7.40782 5.13929 3.11664 3.41062 2.71346 3.55288 1.21532 5.00528
5.45064 -1.37223 2.6711 3.39674 6.41702 5.20318 2.86931 1.65084 3.28744 7.13985 -0.143706 5.16221 7.42446 4.6404 2.6384 2.4887 4.81756 2.54319 3.78346 -0.063401 0.464738 7.72353 1.38624 2.57416 6.63688 6.15612 5.31824 2.43845 5.47383 3.95424 3.47467 0.329926 1.90638 8.07933 0.815177 1.19261 7.26967 4.97791 4.56817 5.25362 6.39302 4.60359 9.05217 1.41204 3.39843 5.3767 -0.471506 0.401448 9.16607 4.76008 1.82326 3.42496 5.68635 1.62314 2.9957 -1.28027 5.33349 7.13623 2.78671 2.45859 6.44706 5.8686 1.41548 6.91228 0.350313 3.38735 7.5799 7.40782 5.16271 3.11664 3.41062 2.7258 3.55288 1.21532 5.02809
5.20318 0.0122007 2.49809 2.91721 4.69751 4.93012 2.3313 1.60687 2.47821 7.48915 1.52122 0.0660694 8.07506 4.61186 2.51798 1.17687 4.68367 2.19545 4.13595 1.61718 4.67891 9.22949 1.53506 2.80074 6.27041 4.60155 0.317279 1.39998 4.69471 3.64347 3.9401 1.53888 1.23848 9.00637 1.52402 1.35272 6.46625 4.67985 3.75771 4.76475 4.68918 0.710467 0.538367 1.49031 3.23348 5.6416 1.52955 4.28572 9.86799 4.72842 1.7627 1.96282 5.91025 1.49531 3.4195 0.401567 3.97427 8.49717 2.75465 3.45783 6.96729 3.36938 0.937162 8.44354 0.308475 3.50088 6.98686 5.81716 1.02191 1.90919 3.46408 1.53836 3.43907 2.84935 4.05902
5.57128 -1.41568 2.71079 3.30001 6.49721 5.50504 2.74927 1.72607 3.30093 7.2762 -0.163938 5.28853 7.53106 4.4703 2.29885 2.29403 5.01039 2.84265 3.93301 0.239291 0.4948 8.05945 1.21507 2.4552 6.46463 5.93251 5.05491 2.28789 5.73864 4.15981 3.562 0.620039 2.01939 8.4381 0.418571 1.16207 7.03261 4.85564 4.08304 4.96769 6.13806 4.66731 9.30822 1.43422 3.32715 5.3962 -0.20195 0.527528 9.25756 4.92516 2.28711 3.1608 5.86076 1.86346 3.05478 -1.01099 5.48705 7.41313 2.60861 1.92561 6.41339 5.40835 1.10556 7.17737 0.292691 3.28305 7.20633 7.24222 4.83691 2.96721 3.64035 2.97419 3.47917 1.31414 4.96221
5.15603 7.71496 2.67075 3.35337 6.50435 5.34879 2.88101 1.85937 3.0793 7.03754 -0.33545 5.21091 7.59822 4.4435 2.59178 2.51228 5.01702 2.65406 3.76564 0.162888 0.460408 7.8927 1.25346 2.52693 6.54351 6.06366 5.30074 2.32274 5.65602 4.0771 3.37667 0.453013 1.93195 8.02703 0.653455 1.095 7.08126 4.9147 4.39079 5.1586 6.51436 4.73153 9.24546 1.42694 3.31651 5.34234 -0.307381 0.499755 9.32788 4.75686 2.04308 3.33404 5.9362 1.71063 3.07456 -1.09342 5.25167 7.17989 2.59976 2.4684 6.47298 5.63459 1.36583 7.1237 0.206185 3.3426 7.49889 7.34749 5.19706 3.27786 3.65086 2.76556 3.62946 1.38827 4.92587