-28928.0153094009
-28927.5970571757
-28928.0153094009
-28927.5872016256
-28927.1484335241
-28926.8908383153
-28926.9421861703
-28927.7380135685
-28927.352125186
-28927.3434349629
-28927.4739027332
-28927.7099386457
-28927.7593837457
-28928.0183785713
-28927.3722624161
-28927.5144695795
-28927.5245958826
-28927.456203914
-28927.5666653408
-28927.5605981577
-28927.8002761761
-28927.5826242651
-28927.5978303867
-28927.205338213
-28928.0046447208
-28927.4575277471
-28927.4554239
-28927.4057828782
-28927.7170685689
-28927.727565899
-28927.7129227806
-28927.3691528368
-28927.3577084149
-28927.6477934552
-28927.7751422582
-28927.4024737035
-28927.7810083493
-28927.3939402179
-28927.6360665792
-28927.6409590475
-28927.6356498371
-28927.5291148748
-28927.5168954731
-28927.9164932159
-28927.515684159
-28927.5024028336
-28927.4526573201
-28927.4493507304
-28927.7612124858
-28927.7278656323
-28927.6864859823
-28927.9379598574
-28927.8931636839
-28927.5699443109
-28927.6400949504
-28927.6047268363
-28927.688641667
-28926.3898927777
-28927.8016624593
-28927.7839150678
-28927.4471019828
-28927.5627515295
-28926.885560534
-28926.9467795856
-28926.9564857452
-28928.0153094009
-28927.2506816071
-28927.2966858294
-28927.3672089926
-28926.6996491894
-28926.6445916083
-28927.1484434562
-28926.5149150086
-28926.4489792742
-28927.505149005