-7.71330549637878e-06 5.14220366425252e-06 -1.36268397102692e-05 0.0234697888541981 -0.00135394222479769 0.0270629036645946 0.0149288456780579 0.00263589359829584 -0.00283823931248418 -0.0230825809182799 0.00140690692253949 -0.0271222961169167 -0.0151435326810404 -0.00266726104064778 0.00338562689254386 -0.0287922267568827 -0.00936446709297026 0.0285587707105256 -0.0294524857073727 -0.00599889479471699 0.0114275192030684 0.0285975943481907 0.00939403476403971 -0.0286433599608026 0.0294293457908836 0.00602126338065649 -0.0113452439444403 -0.00827072037358375 -0.00205816701661707 -0.0247478835749481 0.00839978968555649 -0.00475191040613575 -0.00408213837886686 0.00831725731674523 0.00206433766101417 0.0245967027872191 -0.00846046768879467 0.00476193770328104 0.00385819540928866 -0.0126832453378788 -0.00704944700332378 -0.0120636097963364 -0.0296430043531333 -0.00137348259872185 0.0178781565896899 0.0125863147988077 0.00706384517358368 0.0119641081554331 0.0298782601707728 0.00137168282743936 -0.0179064387098433 -0.0120286428114195 -0.00182111142769503 -0.00854402849833877 0.0103491990946746 -0.00517357110660446 -0.00272382528095456 0.0192223286275255 -0.00654653948495988 0.0125382351945469 -0.0116226658321268 0.0018144265629315 -0.00485783980161935 0.0119576804008528 0.00161876571350669 0.00854762804090375 -0.0103602548325528 0.00522267915159807 0.00271585486527497 -0.019272465113252 0.00670851890038383 -0.0125490338222418 0.0116838580557314 -0.00193089747592682 0.0049036054142312
7.9704156795914e-06 -2.85392303366015e-05 -2.36541368555616e-05 -0.890581595044275 -1.13323344421412 -0.280658133562521 -0.551653295109361 0.302234048807175 0.231159538200609 0.890587251468306 1.1336350503203 0.28054680485319 0.551582846919161 -0.302060756543689 -0.230982646394559 -0.925148516516113 1.21557143772687 -0.218116081496049 0.548357142560575 0.698433384942518 -1.28110856631758 0.925141574541167 -1.21613013815499 0.217838916718546 -0.548206475993213 -0.698203785548909 1.28128982899675 0.745045147167318 0.583718020278174 0.883050066447428 0.0506676753649793 0.0963345576664731 0.277522931988426 -0.745046175608051 -0.583743217076129 -0.882814296409422 -0.050661247610399 -0.0963427851923359 -0.277652772630948 1.013932262322 0.170262219976149 -0.657000078917803 1.86426608639635 0.26765864269929 -0.0189405358667245 -1.01415157730828 -0.170332925276533 0.657009849104765 -1.86425374510756 -0.26771700671088 0.0189446496296559 1.45136795808172 1.26501655417067 -0.787437731285599 0.437325909711485 -0.815791070959738 0.281970681047821 0.0347124458355366 2.1351126382573 0.17022545321995 -0.447064215010847 -0.0886436207560338 0.333353894052681 -1.45125405827055 -1.26490316857987 0.787277551641458 -0.437332337466066 0.815400520591438 -0.282041900568571 -0.0347584685583317 -2.13483650192053 -0.170138035757657 0.447117179708588 0.0885901418379256 -0.333274961226435
-7.71330549637878e-06 5.14220366425252e-06 -1.36268397102692e-05 0.0234697888541981 -0.00135394222479769 0.0270629036645946 0.0149288456780579 0.00263589359829584 -0.00283823931248418 -0.0230825809182799 0.00140690692253949 -0.0271222961169167 -0.0151435326810404 -0.00266726104064778 0.00338562689254386 -0.0287922267568827 -0.00936446709297026 0.0285587707105256 -0.0294524857073727 -0.00599889479471699 0.0114275192030684 0.0285975943481907 0.00939403476403971 -0.0286433599608026 0.0294293457908836 0.00602126338065649 -0.0113452439444403 -0.00827072037358375 -0.00205816701661707 -0.0247478835749481 0.00839978968555649 -0.00475191040613575 -0.00408213837886686 0.00831725731674523 0.00206433766101417 0.0245967027872191 -0.00846046768879467 0.00476193770328104 0.00385819540928866 -0.0126832453378788 -0.00704944700332378 -0.0120636097963364 -0.0296430043531333 -0.00137348259872185 0.0178781565896899 0.0125863147988077 0.00706384517358368 0.0119641081554331 0.0298782601707728 0.00137168282743936 -0.0179064387098433 -0.0120286428114195 -0.00182111142769503 -0.00854402849833877 0.0103491990946746 -0.00517357110660446 -0.00272382528095456 0.0192223286275255 -0.00654653948495988 0.0125382351945469 -0.0116226658321268 0.0018144265629315 -0.00485783980161935 0.0119576804008528 0.00161876571350669 0.00854762804090375 -0.0103602548325528 0.00522267915159807 0.00271585486527497 -0.019272465113252 0.00670851890038383 -0.0125490338222418 0.0116838580557314 -0.00193089747592682 0.0049036054142312
-1.49123906263323e-05 -1.82548230080964e-05 -2.31399164891363e-06 -0.912821368781984 -1.16483408550224 -0.229944435474746 -0.523516185099304 0.256785710161412 0.269472812152039 0.91302911381002 1.16531719553649 0.229985058883694 0.523178856538929 -0.256792652136358 -0.269357883900143 -0.814312944516448 1.25654683051528 -0.062777564994294 0.520862036678 0.800012219015979 -1.13995661839495 0.814393162893611 -1.25714795412363 0.0623679884724363 -0.520742994663173 -0.79983224188773 1.13968716692294 0.694518368182739 0.593980830351289 0.599576576378729 0.0229949063458044 0.0541579461020907 0.0319413122808709 -0.694504484232846 -0.59397285993561 -0.599554979123339 -0.0230396435176834 -0.0540435320705611 -0.0317474512027286 1.02311006742196 0.168908020641168 -0.686828459713033 1.8609311102099 0.271011359488383 -0.0339285168869213 -1.02336563494407 -0.168933474549306 0.686862912477583 -1.86069431173116 -0.271124487968996 0.0339609127700061 1.42627863218346 1.22334182168392 -0.795715650744313 0.446669293769432 -0.819579589509376 0.309063409493668 0.0476725988407355 2.0894503839391 0.114266450284454 -0.489554500998748 -0.067154865863489 0.335388921152809 -1.42628943081116 -1.22339684326313 0.795711536981381 -0.446614015080041 0.819278256374651 -0.309057495959454 -0.0478644030374121 -2.08908477325857 -0.113967945361745 0.489696425819882 0.0671252981924195 -0.335445228282933
-3.59954256497676e-06 -8.9988564124419e-06 5.65642403067777e-06 -0.0393908227292736 -0.131240093249602 1.80938077558595 -1.14401330286568 -0.457533998781448 -0.579345861612643 0.0398248247185365 0.131206926035968 -1.80932986776968 1.14376776264071 0.457774139692569 0.579415795582477 -3.14390809622889 2.19991160351201 -2.26653579395735 0.291709757677732 0.77025917150443 0.218080857400949 3.14387287213379 -2.19965963553246 2.26667771877848 -0.291785862291963 -0.770229603833361 -0.218459066480455 0.885406995496938 -0.236113280100567 1.18728263270871 -0.130798377954843 -0.0358262471492137 0.181539072611855 -0.885392597326678 0.236095025277559 -1.18726643476717 0.130838744253607 0.0357809957569683 -0.181457311573593 -0.196250145964732 -0.039236556619346 -0.415242973185536 -0.391418886498871 0.66154475851627 -0.245771881243132 0.19614601634053 0.0391532529199851 0.415337332622775 0.39144125508481 -0.661539359202422 0.245674179373511 1.1944734903128 -0.0759868577670259 -0.781591817049893 -0.79205157352335 0.914061925415985 -0.0447299727938669 -0.446565935475781 0.258248667103891 0.0429751957934408 -0.394495466951193 0.784720590869408 0.245567221537295 -1.19450845729772 0.0759842866651937 0.78155633584461 0.791970326705454 -0.913914858391187 0.0447862799239905 0.446485202878252 -0.258651044540619 -0.0430471866447403 0.394646390628739 -0.784801066356753 -0.245501144220209
-3.59954256497676e-06 -5.65642403067777e-06 -1.28555091606313e-06 0.29352546979158 -0.880800866564684 -1.3791624197792 0.472997633640588 1.01275881144582 -0.742193538125307 -0.293309754347864 0.880698793821948 1.37904312065419 -0.473059597194742 -1.0126503109485 0.742331606293692 1.61370604221125 -4.29260980328545 -1.45638160665436 0.939304488983434 -0.50658367976347 1.03520195933845 -1.61362582383409 4.29232492520245 1.45649756334699 -0.939350511706229 0.506531743506461 -1.03527343596938 0.2949724859027 0.465445793339267 1.19732561357518 0.459659528666067 -1.10615048595524 -0.318607082384338 -0.294916692992943 -0.465395399743357 -1.19731944293079 -0.45969500987135 1.10618108206704 0.318666731946843 0.0486277631713704 -0.00516791468257378 0.495883011048344 0.385462157774201 -0.828868466208482 -0.155440332134308 -0.048632134044485 0.00517819908990228 -0.495914121380513 -0.385735465898956 0.828904718744314 0.155427476625147 -1.3436161656195 0.81513903953511 0.579756209465051 -0.665097507027902 1.87085556328191 -0.341780423197292 0.157027216185096 -2.32172860854687 -1.20827053696436 1.02009725029507 0.442202261446296 0.0268045079304659 1.34363930553599 -0.815019483299917 -0.579874994369695 0.665069739128115 -1.87081056899985 0.341746741763291 -0.157027987515646 2.32181062669531 1.208288277567 -1.02001857457901 -0.442240827973778 -0.0267533430040066
-1.28555091606313e-06 -1.79977128248838e-05 -7.19908512995352e-06 0.218697664730476 -0.913217061353948 -1.32786765267736 0.520250885772504 0.940521905700946 -0.682379939323088 -0.218658326872445 0.913399866694213 1.3278977345688 -0.520266312383497 -0.940330872834819 0.68238328175547 1.70109419394266 -4.17658291957654 -1.48791822750686 0.831893110403795 -0.414629251178207 1.13640155589167 -1.70082757068267 4.17623993459213 1.4878992013533 -0.831999039799278 0.414592998642375 -1.13631516687011 0.207127449375725 0.500801014632835 1.12816014607897 0.470244754908931 -1.12526919917893 -0.535144250245278 -0.206982439232393 -0.500865035068455 -1.12815757497714 -0.470150652581875 1.12519849387854 0.534848316424401 0.0488820451425676 -0.00589707916216479 0.459337883826868 0.346212745645694 -0.816648019200385 -0.0926905350398005 -0.0488493921492996 0.00584822822735439 -0.459256122788606 -0.346699455222516 0.816693013482447 0.0928509717941252 -1.30885229774732 0.73038601007145 0.650822749655937 -0.663073021445285 1.85166383076619 -0.316187675560307 0.157338319506783 -2.32845101139714 -1.23948525586747 0.958257366138953 0.440322786007012 0.0301451405409475 1.30884355600109 -0.730222230884744 -0.650972130672383 0.663051424189895 -1.85161035184808 0.316121855353405 -0.157355802999242 2.3284762081951 1.23952099418294 -0.958178176202523 -0.440403004384174 -0.0300088721438448
2.77678997869636e-05 3.34243238176414e-06 -1.97974841073722e-05 -0.688536185549931 1.01730657636648 0.186386885116329 -0.702054524762884 -0.7973056201173 -0.0543402372219885 0.687997025495734 -1.01728266511944 -0.186539351454974 0.702075093577541 0.797335702008735 0.0547130469876468 -2.25703865800984 1.05632973153376 -0.249055692503124 -0.222493639475428 -1.68252518229068 -0.270253912888638 2.25680468774311 -1.05629784987104 0.249214843706533 0.222273810268781 1.68271647226699 0.270304563594731 1.04758130043977 -0.595129084429517 2.10380201725585 0.512732212684817 0.0940922997586758 -0.0179828004342575 -1.04757127314262 0.595133969522998 -2.104014133157 -0.512578975015622 -0.094121610319562 0.0175696243698348 1.48188539416795 -0.499735292923419 -0.100305881556375 -0.200503005505252 1.00101144717483 0.867369430593656 -1.48192036115287 0.499710353235647 0.100341619871842 0.200778884731839 -1.00108780889924 -0.867429337266345 0.527588296181026 0.599639311263433 -1.32921053916428 0.0493489572352818 0.903779832079129 0.581857570992448 0.0826115587476824 0.4392462656699 0.369911362562952 0.262047727171041 -0.6079455128423 0.544335425074763 -0.527530960610169 -0.599637768602333 1.32925244812415 -0.0492913645542421 -0.903739722890548 -0.581853714339699 -0.0825220844039244 -0.439246779890267 -0.369921132749914 -0.261711941271765 0.607749337772509 -0.544132050919842
-8.74174622922928e-06 -1.38839498934818e-05 -1.4398170259907e-05 -0.186109463228642 0.0155435961261193 0.743365189230207 1.20813015480433 -0.128850768317007 -0.280750436118294 0.186153686180155 -0.0154479511379642 -0.743311710312098 -1.20814069632184 0.128963125467071 0.280899560024557 1.67881585367747 1.50126661688871 1.42085797819079 -2.11176189141792 0.316987802450465 1.75486133256627 -1.67857622698671 -1.50104524502096 -1.42077467449143 2.11115511138554 -0.317097331388513 -1.75508347576456 0.576695569844088 -0.680027638256876 -0.704929016611202 0.0320881221954853 0.560507141378471 -0.397141902067001 -0.576737221693768 0.680086516488831 0.704971696901615 -0.032040556811591 -0.560578103789038 0.397246031691202 -1.27915761424736 0.379084796789795 -0.0423966978812124 1.28488962867191 -0.446304454419453 1.61019905931223 1.2796088426189 -0.379041602279015 0.0424429777141906 -1.2852940629901 0.446286456706629 -1.61037338001645 -1.44946971359906 -1.45150525491955 0.479541859133899 0.524850586950178 0.0584478295089934 -0.741873178837024 -0.572985727010513 -0.00228339553711133 0.0572234708165349 0.73747993713647 -0.0956663283003035 0.634670830836336 1.44949722438866 1.45156079071912 -0.479605622459336 -0.524790166057123 -0.0585013084271016 0.741875749938856 0.573125337839997 0.00182496808044322 -0.0571792478650223 -0.737418230692499 0.0958028538075894 -0.634721995762796
-6.9419749467409e-06 9.25596659565453e-06 -2.82821201533888e-06 -0.232129100701504 -0.0156654663529621 0.788896060244781 1.2534404252817 -0.145444916651734 -0.266280275007087 0.23215763993184 0.0155993890358764 -0.788802986358458 -1.25354301224481 0.145428975820374 0.266280275007087 1.67391147693269 1.59093276484338 1.47099960612092 -2.20390683864895 0.351556266583402 1.79859448917982 -1.67384488539523 -1.59065200052331 -1.4709952352478 2.20339724626582 -0.351596632882167 -1.79851195681101 0.628764495707576 -0.731201049352234 -0.838382057207715 0.083479305616025 0.575997772806849 -0.546798026409574 -0.628736213587422 0.731261727355472 0.838331406501622 -0.0833648915844954 -0.575916011768587 0.546730920651755 -1.27393262110412 0.384885973853621 -0.0369207651991499 1.22943610435661 -0.452500809834878 1.55048187682872 1.27433165610846 -0.384790843085833 0.0370038117883275 -1.22964230672354 0.45254580411694 -1.55061711678509 -1.47872730978755 -1.46491560785555 0.44552386790322 0.521326120558699 0.095530317013384 -0.685916747003361 -0.568235873485843 0.00648483304098885 0.0489218972209656 0.732766850367999 -0.0209999884342576 0.603986273131009 1.47876124833174 1.4649914553596 -0.445577603931511 -0.521284982929385 -0.0955370018781475 0.685909033697864 0.568316606083371 -0.00687512629910561 -0.0488617334380938 -0.732734454484914 0.0208711762324681 -0.603992186665222
-1.07986276949303e-05 1.82548230080964e-05 1.28555091606313e-06 -0.267181446199248 0.0680398391141068 -1.15467411950241 0.544372448941146 -0.029111814714616 -0.402633775580422 0.267462724739682 -0.0685792562784869 1.15444580565971 -0.544340567278428 0.0292457691200698 0.402602665248254 -1.15656850733232 -1.22250467092738 1.40873060506902 0.0819950085283385 -0.285886212027966 1.81732959401015 1.15660218876632 1.22255249342146 -1.40883627735432 -0.0824930309532214 0.28599934050858 -1.81718047010389 0.187011148641169 -0.169423269448326 -1.62811372554794 0.209392075869462 -0.169313226289911 -0.254061884880457 -0.187116563816286 0.169508115808786 1.62802913629766 -0.209321884789445 0.169375704064432 0.253973696087615 1.29420061684677 0.271826141658984 -0.14567348760461 -0.874214217891143 0.584686297228153 0.138975510221737 -1.293991843378 -0.271796059767548 0.14565189034922 0.874365912899238 -0.584526374694195 -0.138910975565751 0.0643266538481501 0.703601813845458 1.79073128844663 0.74226578608679 0.896849427090633 -0.183486939359874 0.588424165071698 -0.359192696135 -0.260661389063159 0.952758550650585 -1.00346607809396 1.32024562129602 -0.0645138300615289 -0.703651436110818 -1.79025871992988 -0.74223698974627 -0.896884136965366 0.183430889339933 -0.58844036301324 0.359156443599167 0.260663960164991 -0.952747237802523 1.00347533406056 -1.32032069746952
-4.37087311461464e-06 5.39931384746514e-06 1.54266109927576e-05 0.0535131137625935 -0.645515995474428 -0.933749623475125 0.0590306982943364 -0.0813815436311932 -0.559168368654483 -0.0535444812049454 0.645334989905446 0.933894890728641 -0.0590335265063517 0.081613457016451 0.558674974212898 -0.0433300078462742 1.99644874557761 0.465032103054478 -0.861623275109037 -0.936736215363323 2.14351731303633 0.0435272113567983 -1.99661252476432 -0.465079411328189 0.86217091979928 0.936926219788717 -2.14343992287119 0.191243182256849 0.168933731659489 1.42992394036105 0.952182366730005 -0.393576040936025 -1.08521014708348 -0.191171191405549 -0.168978725941552 -1.42982418160996 -0.952230703444449 0.393620778107904 1.08523328699997 0.0112624544654459 -0.606160139730071 0.207939146224127 -0.41397721975358 -0.15307157601637 0.0702738694960413 -0.0116550617152115 0.606051896342939 -0.207826274853697 0.413592325809311 0.153098572585607 -0.0702165339251849 -0.76054811988449 -0.165513137782029 0.752014118683296 0.126186078378192 1.10919569896521 -0.159208024759105 -0.102968000393359 1.56190553937904 1.46577281320639 0.086652302387052 -0.627251916499736 0.393627720082851 0.760654306390157 0.165602612125787 -0.752139074232338 -0.126222073803842 -1.10925534852771 0.159138605009638 0.102963372410061 -1.56191196713362 -1.46562343218994 -0.0866697858795105 0.627226976811964 -0.393572698503643
-1.54266109927576e-06 7.71330549637878e-07 2.51967979548373e-05 -0.0297283649339599 -0.667446722771915 -0.873246712271714 0.121935532829321 -0.116974848954416 -0.488084859191505 0.0295013366421831 0.667367789945669 0.873390436864129 -0.12200032459549 0.117145313005886 0.488080231208207 0.105518533410828 2.04504848373901 0.596034112274425 -0.94911992733776 -0.892262838532303 2.20570352460924 -0.105305646179128 -2.04507368053697 -0.596089133853633 0.949644689221696 0.892480353747301 -2.20580431180106 0.119459047544617 0.188369718849265 1.21764785956649 0.9572335533894 -0.37876906548481 -1.24860469695584 -0.119407882618157 -0.1884013434018 -1.21755967077365 -0.957196786633201 0.378738983593374 1.2485884990143 0.0054044560511294 -0.60041218447417 0.185501911865711 -0.409126064816724 -0.149278429483434 0.0676266630496841 -0.00575643989194748 0.600303169756488 -0.185387497834181 0.408764053678761 0.149291799212961 -0.0675405311383079 -0.730935197422792 -0.226263646091874 0.709914897284061 0.119711786854715 1.09709737929414 -0.119669877894851 -0.105904712906013 1.52982564470941 1.41764332957008 0.0649748286200291 -0.589948571347966 0.421003526840415 0.731116202991774 0.226313011247051 -0.710112357904768 -0.119717957499112 -1.09716139972976 0.119649051970011 0.105951506959358 -1.52991717593464 -1.41759139331307 -0.0650144235882438 0.589927745423126 -0.421117940871945
1.07986276949303e-05 4.37087311461464e-06 -4.29374005965085e-05 -0.0266695250842793 -0.00139302297264601 0.00770996306399701 0.0476042075320009 0.00500927769953159 -0.0210588666662133 0.0266661826518975 0.00134622891930131 -0.00763334422939965 -0.04763454653362 -0.00498356668121033 0.0216314510442279 0.0561186683592702 -0.009990530389093 0.211569284900906 -0.0961471243429111 -0.0211843364356211 0.188034447170355 -0.0561932303124019 0.0100242118230939 -0.211682670491703 0.0959820596052886 0.0212576128378367 -0.187782479190807 -0.0112616831348962 -0.00251119515943772 -0.302090324214759 0.0216083111277387 -0.00238803938167887 -0.283838072308494 0.0111835216391996 0.00252122245658301 0.302055357229842 -0.0215664021678751 0.00241246484908407 0.283604359151954 -0.00784931678329825 -0.00698722633898632 -0.0449657428318729 -0.0315906139909689 -0.00115185362079256 -0.0201656658897327 0.00788531220894802 0.00699956762778053 0.0448479863679615 0.0317903886033251 0.00115648160409039 0.0201276135826172 -0.0276097770242878 -0.0252795874338318 0.0401043034876886 0.0281221976194306 0.0166160027002992 0.0411849375877313 0.0321308024858986 -0.0273225849496393 -0.0357601698321281 -0.0262378370866653 0.0218571937850885 -0.0575307174854739 0.0275745529291877 0.0252644179330223 -0.0401600963974457 -0.0281211691786977 -0.0166365715149562 -0.0413258339681318 -0.0321529139616549 0.0273038159062648 0.0356830367771643 0.0263576504320423 -0.0219440970270144 0.0574841805423125
8.48463604601665e-06 1.13128480613555e-05 3.11103321687277e-05 0.850008836802773 0.63213572442986 0.500839066939951 0.508723350708166 0.592646428500416 0.546469953815795 -0.850676294838393 -0.632210029272808 -0.50088380411183 -0.509206717852606 -0.592851602426619 -0.546639132316349 1.06278679667496 -1.38566859296539 0.523958671724613 2.43557751189378 0.903880105050582 -1.36987457152082 -1.06390805418395 1.38649443087387 -0.524105224529044 -2.43543121619954 -0.903963922970309 1.36994476260084 -0.230792899079348 -0.101604287981599 -0.993312796958895 -0.584012925658319 -0.068071463666642 0.174224802119822 0.2307874997655 0.101771923821054 0.993422068786761 0.584008040564838 0.068133170110613 -0.174263368647304 1.45784790602922 0.586782516551885 -0.445043071860612 1.45560667656216 -0.987725021347135 -0.173387137142915 -1.45770623831827 -0.586711811251502 0.445010933087711 -1.45336956085803 0.987406718940318 0.173332372673891 -0.345740948459499 -1.54507150724337 -0.418705476022861 -0.502740396744808 0.00987945878994515 1.27699866003893 -0.661980046056448 -0.865357286299834 0.293626771203765 0.293526498232313 -0.0532282356795939 0.0672150296463607 0.345449899732102 1.54483548009518 0.419037405269388 0.502821129342337 -0.0100288398063917 -1.27700920155644 0.661946364622448 0.865202763079723 -0.293706989580928 -0.293533440207259 0.0533133391502372 -0.0671808339919934
2.03117044737974e-05 3.41956543672792e-05 -3.85665274818939e-06 -0.203193406462389 1.11817912876666 -0.30513322323308 -0.966853588004484 -1.35142537321422 0.522470775094362 0.203220917251992 -1.11814647577339 0.30525406501919 0.966818363909384 1.35074094590651 -0.522520654469905 -2.00932585199363 2.60915465346209 -0.880860516127189 0.413811640795591 -1.86263549361442 -0.0948158078142361 2.00943152427893 -2.6087777299335 0.881117369200218 -0.413908057114296 1.86263909315698 0.0947782697274871 0.306648373542752 -0.241621865775897 1.61648951705471 0.117862393306866 0.280620338365588 -0.600399071854826 -0.306437800302701 0.241804414005978 -1.61637613146391 -0.117637936116922 -0.280769719382035 0.600444580357255 -0.186129003602567 -0.629405985614691 -0.0743621785193053 -0.846253742576953 1.85100614291753 -0.264490016801378 0.186005847824808 0.629555880851504 0.0743842899950616 0.846034684700856 -1.85099560140002 0.264364804142153 0.555565740767308 0.0208930305980412 -0.437457035904924 0.0587453059909704 -0.87693264385825 0.49277429182312 0.0721060366616145 -0.0634542789965096 0.323620216736618 -0.234632582555445 -0.585453256904676 0.340483045212801 -0.555622047897431 -0.02096656411044 0.437336451228997 -0.058729108049428 0.876986122776358 -0.492710528497683 -0.0720828967451254 0.0634540218863264 -0.323900723946502 0.234534109355275 0.585517534450479 -0.340488187416465
5.14220366425252e-06 3.08532219855151e-06 -7.9704156795914e-06 -0.261628380462221 1.09109359940594 -0.250155866977091 -0.922826811561703 -1.3705227462927 0.557493552921036 0.261774161936103 -1.0911002842707 0.250405778075173 0.922650691086203 1.37033916962189 -0.557503065997815 -1.86257558694173 2.59796213296648 -0.706413827919254 0.315484736319404 -1.86347367281169 -0.000418318268086942 1.86261929567288 -2.59775130261625 0.705893951128799 -0.315667798769851 1.86346493106546 0.000210316129867928 0.252192179628135 -0.191614706471591 1.3389616999728 0.138177440213045 0.318329146276285 -0.798678588495655 -0.251987519922298 0.191626276429836 -1.33862745673463 -0.13803937204466 -0.318376197439813 0.798631023111761 -0.192251311285226 -0.621736131739275 -0.0888534226655353 -0.835214202640352 1.85266938869273 -0.272389984290769 0.192094988293832 0.621750529909535 0.088874762810742 0.835045795470348 -1.85263776414019 0.272369415476112 0.52598161464613 -0.0142333626324678 -0.463528265592867 0.0471884603657461 -0.858959870721138 0.541007133753076 0.0650820435664288 -0.0768126956755048 0.26289593366546 -0.280737066388767 -0.569452518872805 0.350552251317957 -0.526107855746088 0.0140904093706015 0.463497926591248 -0.0472167424858995 0.859070170989736 -0.540945170198922 -0.0649869127986401 0.0768970278155986 -0.262844254518634 0.280942497425154 0.569375642928024 -0.350427295768916
7.71330549637878e-07 7.19908512995352e-06 3.54812052833424e-05 -0.77950511080294 0.187887637255741 0.216113450279006 0.0202893358878579 0.5407785628002 0.605184920805146 0.779550105085002 -0.187877352848412 -0.216089281921784 -0.0203726395872188 -0.540989136040251 -0.605784244642214 1.38891795146083 -0.81097899677073 0.357709170377864 -2.70495982126133 -2.22030095526114 -2.50490084504249 -1.38867549655806 0.810614928751301 -0.357829240833424 2.70494722286235 2.22037937386702 2.50520783460124 0.518650889102372 0.191529345890765 -0.249837564570274 -0.452555831414085 -0.111234092783645 0.740187050255515 -0.518576841369606 -0.191512376618673 0.249849391638701 0.452656618605905 0.111305312304395 -0.740204019527608 -1.34591858731017 -1.27900514790872 0.807700841934769 1.54679620235236 -0.480595496664704 0.320576289277563 1.34574709481797 1.27888662011426 -0.807715754325395 -1.54706385405309 0.480753876537564 -0.320433078905514 0.163402263177853 1.01551786082187 -0.382563240458478 -0.143690653871674 1.04397018791655 0.803477035844952 0.602309143405913 1.29199846812755 -0.608833571415116 -1.38454656412585 0.109972710224804 -0.920522847209935 -0.163439029934052 -1.01550294843124 0.382790268750255 0.143737962145385 -1.04388894109865 -0.803601477173627 -0.602262349352568 -1.29159094848716 0.608930759064371 1.38456070518593 -0.110126462114365 0.920552929101371
1.49123906263323e-05 1.15699582445682e-05 -2.31399164891363e-05 0.779664262006348 -0.431906027049363 -0.104228354511467 1.85402718757028 1.25487047212073 0.754229122911673 -0.779471943589305 0.432458042612721 0.104464124549473 -1.8544326503292 -1.25542068791281 -0.754900437600041 -0.47802130951038 -1.54535330000417 0.830175100159568 -0.101651082034944 1.35393965369586 -1.06605826664616 0.479214043650303 1.54525739790584 -0.83157583643771 0.101443337006908 -1.35298886023834 1.06686713528255 -0.560513569133051 -0.0844653231686454 -1.08574236516273 -0.345735806255835 0.725043003354109 1.21306667032201 0.560360845684223 0.0842881742524119 1.08584778033785 0.345317745097931 -0.724700789700253 -1.21303864531204 -0.936213510360852 0.232082820868526 0.0570681762658744 -2.06118831838 -1.22385861315218 -0.301515682955278 0.936497874223485 -0.232004402262646 -0.0573103740584607 2.06120940141503 1.22434429428826 0.301520053828393 0.540077680440762 1.41282817005888 -0.617127174595006 -0.0809141173181126 -0.913192892996726 -1.00208359663883 -0.118651464459146 0.614850206812475 -0.59791281638316 -0.155495610823698 0.910710237067625 -0.110051385940867 -0.540364358295044 -1.41283151249126 0.618050714373106 0.0806729479662592 0.911904770978831 1.00166065038744 0.118288681990633 -0.615165681007277 0.598032115508171 0.155865078156975 -0.91070020977048 0.110586689342315
4.88509348103989e-05 3.13674423519404e-05 -1.59408313591828e-05 0.722450561376776 -0.438326068324182 -0.080139444336093 1.90248731490219 1.23692443844267 0.787563972385556 -0.722532579525221 0.438871141912593 0.0804567183021774 -1.9030064203621 -1.23772070868008 -0.788160982230976 -0.368971110622943 -1.5369293419614 0.935590275276745 -0.178024376407338 1.38619309773915 -0.895305480440441 0.370187241789539 1.53684706670277 -0.937030606523102 0.17791407613874 -1.38523716207796 0.895887835005417 -0.569353531452268 -0.0409005737250981 -1.27765326256539 -0.330240803954343 0.722099091756324 0.935862554960767 0.569424750973018 0.0408728058253111 1.27771291212789 0.329790089803171 -0.721787731324453 -0.935704946418457 -0.930257810076915 0.238791596879093 0.0298954865530481 -2.06041235984707 -1.21294351454425 -0.313429397514802 0.930601823502053 -0.238589251164904 -0.0302071040951018 2.06048486491873 1.21346184867361 0.313372576164312 0.520748136866837 1.36007096023493 -0.638436209469485 -0.0883782830469584 -0.910330228216837 -0.952184680721654 -0.113279661401284 0.582361249841361 -0.659715162452528 -0.180593421357999 0.94379388989251 -0.103763756410402 -0.521229190019628 -1.36028050503425 0.63944176739603 0.0881219441942954 0.909073216531111 0.951906230393235 0.112967529638864 -0.582548168944557 0.659873285215204 0.181052363035033 -0.943799032096174 0.104183103119222
6.17064439710302e-06 -0.000106443615850027 -0.000275365006220722 -0.343718776868532 -0.226669108850801 1.1322199158719 0.167240403992851 0.808137157915681 -0.212237257156893 0.343933206761331 0.225955628092386 -1.13232790214885 -0.167103878485565 -0.806525591287304 0.213337174520676 1.7833020897027 0.352241465221664 -1.26034254815005 -0.438818948545401 -1.80638569906171 0.0760483071008137 -1.78492162674675 -0.354486294231293 1.26164224012619 0.443396795357502 1.80770981650525 -0.0773346293474265 -0.404747735506797 0.503920532485754 1.22381413309048 -0.469750332026613 -0.359547508187834 -0.00799818357937837 0.404824097231211 -0.503933902215281 -1.22424916352048 0.470162479650303 0.359140759877991 0.00823215384610185 -1.19792442319188 -0.29212010553014 0.0581449537131689 0.732310994013163 -0.442611066637604 0.102594162186968 1.19401069198302 0.291985894014502 -0.0569154528170461 -0.73116711080805 0.442963307588605 -0.102279202212532 -0.685207380007877 -0.690372209368252 -0.530232674415368 -0.276141478974024 0.7484210038729 0.608965211828921 -0.361878211998656 1.01987947796989 -0.276258206997203 0.416925759334663 -1.15062206301498 0.88229159140695 0.686011363550783 0.691581912780268 0.529199091478853 0.275350093830096 -0.749833824329653 -0.60983990067221 0.361481490985959 -1.01973292516546 0.276227610885401 -0.417575990988007 1.15100978517126 -0.882426317142954