10.536840 0.000000 0.000000 0.000000 6.402924 0.000000 0.000000 0.000000 5.067607