-0.118493 6.258172 -0.049873 5.289270 0.073108 2.652653 10.629470 3.115922 0.106359 3.070840 4.951102 4.994193 2.312970 1.677672 2.467583 7.486470 1.586282 0.162602 8.174740 4.741962 2.556713 1.202290 4.727242 2.248943 4.061430 1.686892 4.827473 9.328780 1.570882 2.855413 6.429390 4.790162 0.281212 1.376960 4.801612 3.895213 3.887080 1.413682 1.232833 9.254840 1.648912 1.270003 6.547360 4.683252 3.713673 4.956830 4.921462 0.699637 0.292476 1.574902 3.177203 5.530330 1.566622 4.392843 10.271870 4.781502 1.846183 1.997120 5.904102 1.464873 3.415340 0.471218 4.028333 8.668610 2.828122 3.534833 7.110430 3.583402 1.016489 8.641090 0.323673 3.476803 7.237650 5.989072 0.820283 1.795140 3.430472 1.718263 3.337430 2.957932 4.343953