0.0965284187446154 0.168786921744875 0.112947732154757 0.02461598605096 -0.190953419080368 -0.319651206838364 -0.0572800350568416 -0.110084296044318 -0.37048266139005 0.549059310470929 0.0152489478561576 -0.0678310656453382 0.226653682239808 -0.894658076999111 0.366457601471856 -0.628552894026792 0.460723964824567 -0.371665882453194 -0.216882466836995 -0.38588381847467 0.247418929076792 1.46522696828743 1.86873517560095 2.6524412096874 0.464507598280724 -0.782858341812399 -1.22833695832337 -0.126898273585691 0.999828740332053 -1.63907561820921 -0.281347703073897 -1.2354951629342 -2.79664145594221 -0.82478915604163 0.177191339413729 -2.70386736009286 -0.292753367911392 0.325041264719234 2.24746593166847 -0.547229457297005 -0.439156019995593 0.461544660529382 0.0668329639141068 0.558305763989805 2.34380434598769 -0.557896701688313 0.112293386738481 -0.184964294472613 1.50862202501005 -0.369350348143182 0.922838124409765 1.73846901572536 0.57872056964707 0.442576870983237 -1.77186942829596 0.32573006290006 -0.173515178014155 -0.93210617518403 -0.882535331860636 1.01642186022605 -1.21290854755933 -0.176468345578535 -0.458213540995679 0.00788968308206264 -0.296774314066654 0.112065330005971 0.403486352947955 -0.569333733968161 -0.339084365816124 -0.279892716547097 -0.304979985563885 0.0753723644291477 0.738430216373623 1.44952704916991 0.826561673644698 0.748754475780527 -0.860981528091738 -0.705135218978138 -0.30866977380317 0.459379278566365 -0.46945156999372