-0.138705799369002 0.228331085115127 1.66873746317784 0.228331085115127 -1.90987216054242 0.815163313214752 1.66873746317784 0.815163313214752 -9.48961061221466