10.108298917 -0.034380682 -0.120290818 -0.020545549 6.039428139 0.047378585 -0.057183307 0.037689087 5.008150080
9.976346416 -0.117128065 -0.184555946 -0.069994551 6.085927452 0.042050997 -0.087733374 0.033451055 4.974945423
10.083016668 -0.131360609 -0.130204886 -0.078499776 5.994875113 0.012033010 -0.061896212 0.009572113 5.032795667
10.000150061 -0.119106400 -0.049698669 -0.071176784 6.127729323 0.013942549 -0.023625529 0.011091127 5.026362376
9.966523228 -0.083888352 0.007556963 -0.050130834 6.219921826 -0.000536575 0.003592395 -0.000426839 4.983044211
10.251673824 -0.014399729 -0.023572288 -0.008605133 6.089597273 0.033559972 -0.011205688 0.026696549 4.946663507
10.198466986 -0.020302676 -0.067457560 -0.012132674 6.095940493 0.030237034 -0.032067671 0.024053192 4.956812142
9.964944463 -0.092544301 -0.085552582 -0.055303541 6.134296284 0.031363347 -0.040669601 0.024949160 5.013089510
10.143232826 -0.122740666 -0.093881857 -0.073348585 6.025089577 0.018911039 -0.044629134 0.015043501 5.042558426
9.954165185 -0.100400564 -0.119930011 -0.059998365 6.168405914 0.035352180 -0.057011788 0.028122228 5.022789770
10.273876046 -0.047556536 -0.127160896 -0.028419307 6.072592122 0.094531800 -0.060449174 0.075198894 4.939518030
10.238393883 -0.016926979 -0.024749431 -0.010115392 6.082038019 0.035506591 -0.011765273 0.028245060 4.949482020
10.137789981 -0.025255210 -0.117756524 -0.015092259 6.030843820 0.043915981 -0.055978566 0.034934628 4.998710889
10.035641266 -0.070166896 -0.066881395 -0.041931030 6.071772239 0.036886465 -0.031793776 0.029342733 5.010069520
10.402273508 -0.000197741 -0.001134165 -0.000118168 6.215003740 0.000823333 -0.000539154 0.000654952 4.945606973
9.983143291 -0.083139889 -0.131569812 -0.049683560 6.126893877 0.044592619 -0.062545064 0.035472884 5.012640306
10.096601683 -0.019514380 -0.158982336 -0.011661597 6.064284268 0.009572836 -0.075576306 0.007615074 5.001049054
9.989048514 -0.075714693 -0.008925850 -0.045246337 6.217562954 0.004409680 -0.004243130 0.003507846 5.002829140
10.017314455 -0.130363171 -0.172381813 -0.077903717 6.000314842 0.018955630 -0.081946090 0.015078973 5.004937543
9.997971478 -0.075569234 -0.131916908 -0.045159413 6.110545744 0.047792282 -0.062710065 0.038018177 5.010009799
10.338802134 -0.002746963 -0.015661601 -0.001641558 6.157852280 0.017105341 -0.007445141 0.013607090 4.936603132
10.013087612 -0.027106880 -0.142832134 -0.016198798 6.128505399 0.050644715 -0.067898896 0.040287253 5.026960923
9.943540323 -0.101602342 0.008385248 -0.060716535 6.200026441 -0.009258554 0.003986141 -0.007365067 4.977373380
10.014694564 -0.076431166 -0.073545896 -0.045674494 6.085782848 0.034794338 -0.034961917 0.027678472 5.010419863
10.265644779 -0.077355353 -0.013447074 -0.046226779 6.135447215 0.065263939 -0.006392409 0.051916667 4.939975983
9.934917094 -0.109445428 -0.100051742 -0.065403485 6.202713795 0.028531028 -0.047562146 0.022696084 5.031803508
10.043615792 -0.114836271 -0.093383230 -0.068624998 6.087784264 0.030673422 -0.044392099 0.024400333 5.033229626
9.980421213 -0.078748669 -0.001458617 -0.047059411 6.219398491 0.002774040 -0.000693391 0.002206715 4.995315570
9.985859874 -0.123488930 -0.185009843 -0.073795740 6.049792140 0.033350764 -0.087949145 0.026530126 4.984630203
10.239456036 -0.059829355 -0.131686384 -0.035753419 6.066820827 0.090846236 -0.062600480 0.072267073 4.958069704
9.990134249 -0.118479728 -0.039337840 -0.070802292 6.138790380 0.009389366 -0.018700245 0.007469126 5.023463288
10.139323544 -0.089083567 -0.132373699 -0.053235442 6.058091966 0.063990492 -0.062927213 0.050903656 5.008312313
9.940188193 -0.108031186 -0.106447230 -0.064558348 6.195291260 0.029766039 -0.050602404 0.023678521 5.031772668
10.031583445 -0.061371227 -0.129847047 -0.036674827 6.078268169 0.051041333 -0.061726104 0.040602758 5.010777643
10.007079782 -0.029619599 -0.147716970 -0.017700374 6.138166799 0.051003199 -0.070221028 0.040572422 5.017030787
10.396839193 -0.000335015 -0.002755065 -0.000200202 6.210060529 0.002163538 -0.001309690 0.001721068 4.943864393
9.927560847 -0.104029691 -0.085248561 -0.062167095 6.192627793 0.032278360 -0.040525077 0.025677041 5.016662327
10.217121247 -0.021325844 -0.026721779 -0.012744109 6.071602115 0.038179353 -0.012702879 0.030371210 4.955032368
9.965014612 -0.113145271 -0.014942408 -0.067614474 6.166578130 -0.001182629 -0.007103254 -0.000940767 5.007551117
9.943439826 -0.097877996 0.011265332 -0.058490904 6.207703681 -0.009242771 0.005355263 -0.007352512 4.973396423
9.989180588 -0.124826947 -0.184227901 -0.074595325 6.040295977 0.030823056 -0.087577429 0.024519365 4.987149245
10.189798952 -0.014158661 -0.116388485 -0.008461073 6.025397148 0.036713698 -0.055328234 0.029205299 4.974135941
9.953870173 -0.108920231 -0.003771438 -0.065089633 6.180040621 -0.005280289 -0.001792849 -0.004200406 4.994242004
10.403293220 -0.000159887 -0.000837440 -0.000095547 6.215937088 0.000594549 -0.000398099 0.000472956 4.945940402
10.122995387 -0.093724144 -0.129430062 -0.056008604 6.058267164 0.058891565 -0.061527879 0.046847522 5.015189869
10.002186790 -0.119136708 -0.051872458 -0.071194896 6.125508631 0.014858084 -0.024658895 0.011819425 5.026858170
10.239494925 -0.008588700 -0.119793666 -0.005132521 6.028623373 0.038340993 -0.056946973 0.030499792 4.941029545
10.025288461 -0.117635315 -0.076727142 -0.070297678 6.102301995 0.024333644 -0.036474203 0.019357117 5.031594183
9.934227554 -0.109527855 -0.099140270 -0.065452742 6.203450351 0.028460247 -0.047128855 0.022639780 5.031488738
10.006871042 -0.069392543 -0.028396071 -0.041468284 6.209417877 0.007521171 -0.013498796 0.005983000 5.015818692
10.167332020 -0.018210652 -0.116695980 -0.010882502 6.025835665 0.039558099 -0.055474409 0.031467986 4.986333895
9.969066415 -0.108901436 -0.180865701 -0.065078400 6.117499412 0.047839319 -0.085979122 0.038055595 4.963002407
10.144216261 -0.040405727 -0.034708993 -0.024146055 6.049597328 0.041504658 -0.016499805 0.033016449 4.979193780
9.947653181 -0.105623654 0.002876775 -0.063119631 6.189582747 -0.007609170 0.001367548 -0.006053002 4.985162511
10.156414470 -0.084496488 -0.134071245 -0.050494250 6.058957040 0.068942676 -0.063734184 0.054843058 5.000015578
9.972661707 -0.089952788 -0.085000442 -0.053754879 6.126172784 0.031551190 -0.040407127 0.025098587 5.013006064
10.213408026 -0.022147948 -0.027068565 -0.013235390 6.070001920 0.038567660 -0.012867732 0.030680103 4.956152455
10.106464632 -0.017048969 -0.152124399 -0.010188292 6.062084884 0.008991866 -0.072316211 0.007152920 4.997964439
10.120155598 -0.126712363 -0.107847658 -0.075722031 6.010875411 0.015038199 -0.051268134 0.011962704 5.041229771
10.405487507 -0.000054113 -0.000217798 -0.000032338 6.217952234 0.000143208 -0.000103536 0.000113920 4.946648920
9.982029699 -0.043013167 -0.166659353 -0.025704235 6.168944635 0.050015916 -0.079225772 0.039787051 4.973369282
9.951001240 -0.091058513 0.012523510 -0.054415650 6.216370467 -0.005886951 0.005953370 -0.004682998 4.973036467
10.072306581 -0.108542977 -0.111298666 -0.064864189 6.071332753 0.040605884 -0.052908658 0.032301485 5.029967328
10.048291201 -0.132668003 -0.153163251 -0.079281062 5.989659615 0.013395389 -0.072810056 0.010655868 5.019885521
10.244897353 -0.008421294 -0.120627598 -0.005032480 6.028984853 0.039373054 -0.057343404 0.031320784 4.937468105
10.019372487 -0.024799424 -0.137954907 -0.014819886 6.118153769 0.050001165 -0.065580382 0.039775317 5.036519079
10.064767440 -0.039578673 -0.149064873 -0.023651816 6.112085823 0.014062993 -0.070861787 0.011186939 5.020286691
10.273417875 -0.010633894 -0.021805436 -0.006354708 6.103853643 0.030016838 -0.010365770 0.023878028 4.942949928
10.121395800 -0.030114689 -0.118922471 -0.017996235 6.035342055 0.045991536 -0.056532828 0.036585706 5.004311779
9.946836819 -0.105064285 0.003814174 -0.062785358 6.191133757 -0.007928208 0.001813165 -0.006306793 4.983845970
10.046614494 -0.055858744 -0.128484539 -0.033380622 6.067114628 0.051103716 -0.061078401 0.040652383 5.012607565
9.973305119 -0.115512213 -0.022950359 -0.069028934 6.157373177 0.002074099 -0.010910038 0.001649921 5.014781952
10.000181378 -0.071797628 -0.020462687 -0.042905539 6.213222482 0.006350219 -0.009727460 0.005051522 5.011428640
10.366137608 -0.001078458 -0.010873183 -0.000644475 6.182427285 0.010478735 -0.005168845 0.008335706 4.937475427
10.042678188 -0.132491485 -0.156930487 -0.079175576 5.990181144 0.014070333 -0.074600908 0.011192779 5.017456058
10.166972236 -0.081714714 -0.134558279 -0.048831890 6.059715523 0.071911488 -0.063965708 0.057204712 4.994526191
10.098323425 -0.101153353 -0.122266966 -0.060448224 6.061963099 0.050260080 -0.058122719 0.039981280 5.023449643
9.970295162 -0.090443241 -0.128907640 -0.054047969 6.142727454 0.040997391 -0.061279533 0.032612925 5.016001602
10.264452505 -0.058292034 -0.016247282 -0.034834732 6.136664460 0.065020252 -0.007723560 0.051722818 4.900056117
10.155721961 -0.037075911 -0.032977662 -0.022156191 6.051859520 0.041420374 -0.015676772 0.032949402 4.975672682
10.256062561 -0.013601460 -0.023198934 -0.008128095 6.092285436 0.032877638 -0.011028205 0.026153760 4.945831633
9.945419985 -0.103932850 0.005537243 -0.062109224 6.194188178 -0.008492142 0.002632270 -0.006755395 4.981412592
10.124018359 -0.126099627 -0.105550885 -0.075355866 6.013033534 0.015580125 -0.050176304 0.012393799 5.041684230
10.247266304 -0.015220034 -0.023955608 -0.009095339 6.086993747 0.034226513 -0.011387909 0.027226774 4.947547070
9.970690421 -0.090612556 -0.085196255 -0.054149150 6.128253499 0.031485431 -0.040500212 0.025046276 5.013089426
10.124670865 -0.029095430 -0.118642478 -0.017387136 6.034378839 0.045606878 -0.056399726 0.036279716 5.003256837
10.200727268 -0.020747730 -0.065481063 -0.012398635 6.097180808 0.031164338 -0.031128092 0.024790851 4.954512660
9.932785696 -0.102279695 -0.085765718 -0.061121315 6.177166660 0.032559578 -0.040770920 0.025900747 5.012201063
10.246121177 -0.094585558 -0.026522232 -0.056523376 6.111776648 0.053872789 -0.012608019 0.042855146 4.993911613
9.979527402 -0.119738069 -0.185299597 -0.071554263 6.072734976 0.039084907 -0.088086887 0.031091567 4.978812198
10.202162297 -0.012290185 -0.116525665 -0.007344491 6.026075130 0.035848461 -0.055393445 0.028517013 4.966334312
10.362611654 -0.001234111 -0.011616435 -0.000737493 6.179250361 0.011387589 -0.005522169 0.009058688 4.937143066
10.039881888 -0.019284579 -0.121694106 -0.011524270 6.083424779 0.045716596 -0.057850396 0.036366995 5.058927295
10.251591851 -0.091971780 -0.023102555 -0.054961409 6.117452557 0.056572380 -0.010982389 0.045002638 4.985592112
9.948755432 -0.092467464 0.012665843 -0.055257625 6.215076051 -0.006831289 0.006021031 -0.005434207 4.972364609
10.064086268 -0.110576866 -0.106971559 -0.066079621 6.075388201 0.037657933 -0.050851658 0.029956427 5.031485620
9.968221344 -0.114132171 -0.018059080 -0.068204235 6.162988885 0.000047890 -0.008584844 0.000038096 5.010621964
10.095181834 -0.038858758 -0.122006259 -0.023221602 6.043867209 0.048544346 -0.057998786 0.038616435 5.011196235
10.086779004 -0.023205242 -0.164029680 -0.013867219 6.069270781 0.010847885 -0.077975690 0.008629360 5.004434360
10.308044447 -0.017979249 -0.125668135 -0.010744218 6.056902883 0.074266735 -0.059739552 0.059078282 4.903199658
10.093071834 -0.020660944 -0.161068788 -0.012346772 6.065638633 0.009957834 -0.076568155 0.007921335 5.002214933
10.399822368 -0.000270085 -0.001860269 -0.000161400 6.212768144 0.001407011 -0.000884326 0.001119260 4.944809492
9.926330628 -0.104970452 -0.085048306 -0.062729284 6.198198330 0.031824136 -0.040429880 0.025315712 5.018500713
9.963475492 -0.082225096 -0.176528937 -0.049136889 6.166375863 0.052017663 -0.083917530 0.041379417 4.945218650
10.015031433 -0.067934386 -0.131040006 -0.040596904 6.093110566 0.050088368 -0.062293207 0.039844686 5.009345820
10.216580916 -0.104908125 -0.044858639 -0.062692038 6.085034420 0.041291601 -0.021324697 0.032846965 5.020787359
9.978715950 -0.119119563 -0.185171149 -0.071184650 6.076041529 0.039854860 -0.088025826 0.031704055 4.977900079
10.268665489 -0.049511355 -0.127957919 -0.029587487 6.071852378 0.094368137 -0.060828059 0.075068702 4.942672302
9.982962701 -0.121998951 -0.185394641 -0.072905344 6.059543223 0.035861847 -0.088132069 0.028527662 4.982200812
9.925869641 -0.105755534 -0.085165722 -0.063198441 6.201542727 0.031364433 -0.040485697 0.024950024 5.019743055
10.017192474 -0.075661052 -0.072716791 -0.045214282 6.083894209 0.035043168 -0.034567781 0.027876412 5.010446404
10.072214189 -0.046860214 -0.125331140 -0.028003192 6.052983375 0.050126853 -0.059579353 0.039875300 5.013844289
10.185911622 -0.113381755 -0.065619833 -0.067755794 6.058544018 0.030208499 -0.031194060 0.024030493 5.035218260
10.112978572 -0.015864853 -0.146981374 -0.009480677 6.061548041 0.009021821 -0.069871343 0.007176749 4.996067638
10.177063035 -0.016341040 -0.116505075 -0.009765241 6.025310982 0.038189493 -0.055383658 0.030379276 4.981384156
9.991693157 -0.125647359 -0.183482622 -0.075085596 6.034176441 0.029156050 -0.087223142 0.023193282 4.988948658
9.976860366 -0.116343870 -0.026358795 -0.069525924 6.153462417 0.003548095 -0.012530325 0.002822466 5.017206002
9.930045960 -0.103028721 -0.085627550 -0.061568925 6.184343139 0.032557375 -0.040705239 0.025898995 5.014113019
9.964705336 -0.084611638 0.008436827 -0.050563062 6.219776684 -0.001061135 0.004010661 -0.000844120 4.981562816
9.947761702 -0.093165753 0.012654804 -0.055674915 6.214348523 -0.007262811 0.006015784 -0.005777477 4.972182357
10.283665979 -0.010968611 -0.125893822 -0.006554731 6.037820154 0.051991746 -0.059846838 0.041358799 4.912509353
10.088504168 -0.056183261 -0.049447486 -0.033574550 6.049863964 0.040746253 -0.023506123 0.032413147 4.996259247
9.944826028 -0.103359584 0.006323170 -0.061766645 6.195686309 -0.008732540 0.003005880 -0.006946629 4.980298606
10.236287044 -0.060912974 -0.131991056 -0.036400979 6.066328134 0.090224421 -0.062745313 0.071772426 4.959591243
10.056148353 -0.112366988 -0.102247056 -0.067149380 6.079786507 0.034898766 -0.048605745 0.027761543 5.032563393
10.121903820 -0.046926534 -0.039297148 -0.028042824 6.047079100 0.041449808 -0.018680901 0.032972816 4.985645626
10.024438106 -0.131165508 -0.168411389 -0.078383186 5.995923135 0.017247815 -0.080058647 0.013720426 5.008750946
10.049731660 -0.066244198 -0.062550109 -0.039586865 6.064226108 0.038208758 -0.029734789 0.030394601 5.008197274
10.266351718 -0.073968568 -0.013093983 -0.044202871 6.136696721 0.065905443 -0.006224558 0.052426976 4.931171194
10.091898013 -0.039997063 -0.122472802 -0.023901842 6.045044305 0.048805003 -0.058220569 0.038823785 5.011800584
9.963660629 -0.093044121 -0.176884488 -0.055602229 6.152909844 0.051788994 -0.084086551 0.041197513 4.949008962
9.984688885 -0.077242573 -0.004984770 -0.046159383 6.218645751 0.003608471 -0.002369638 0.002870495 4.999097126
9.953570082 -0.089637271 0.012139139 -0.053566330 6.217459218 -0.004859929 0.005770649 -0.003866014 4.974141960
10.404904107 -0.000086432 -0.000379225 -0.000051651 6.217415634 0.000256334 -0.000180274 0.000203911 4.946463021
10.248710840 -0.056627877 -0.130681443 -0.033840248 6.068378773 0.092416197 -0.062122756 0.073515957 4.953517185
9.961223689 -0.086053721 0.009915052 -0.051424837 6.219344847 -0.002137664 0.004713373 -0.001700486 4.978893555
10.304139598 -0.032242930 -0.123631897 -0.019268050 6.070393810 0.091234984 -0.058771574 0.072576317 4.917357517
9.986858684 -0.076481450 -0.006904367 -0.045704544 6.218147700 0.004012430 -0.003282167 0.003191839 5.000974850
10.007404283 -0.078704965 -0.076003719 -0.047033294 6.091683441 0.034081830 -0.036130305 0.027111680 5.010400257
9.956434438 -0.088207855 0.011482161 -0.052712125 6.218352860 -0.003782219 0.005458338 -0.003008709 4.975700685
10.090095415 -0.130675599 -0.125811964 -0.078090421 5.997230971 0.012285116 -0.059807925 0.009772660 5.034910842
9.949529804 -0.103242021 -0.115985670 -0.061696391 6.177378637 0.033463662 -0.055136745 0.026619935 5.025822450
10.046863529 -0.018169487 -0.114880633 -0.010857903 6.070770450 0.043246943 -0.054611438 0.034402416 5.061873639
10.088613101 -0.041139329 -0.122948088 -0.024584448 6.046255281 0.049054103 -0.058446508 0.039021941 5.012333685
10.111573907 -0.033289478 -0.119912333 -0.019893457 6.038374537 0.047053844 -0.057003384 0.037430759 5.007254156
9.963091372 -0.093168450 -0.085607126 -0.055676527 6.136240875 0.031347484 -0.040695530 0.024936541 5.013004566
10.004990960 -0.072299564 -0.131630288 -0.043205491 6.103174528 0.048916151 -0.062573813 0.038912201 5.009409320
9.982067500 -0.121464528 -0.185435294 -0.072585978 6.062828772 0.036685197 -0.088151394 0.029182627 4.981382051
10.075484945 -0.045718682 -0.124865219 -0.027321024 6.051531478 0.049936087 -0.059357865 0.039723548 5.013699787
10.206108802 -0.070717434 -0.134043539 -0.042260026 6.062800781 0.082831376 -0.063721014 0.065891349 4.974107497
10.307056915 -0.029485887 -0.123728942 -0.017620469 6.068631911 0.089660281 -0.058817707 0.071323660 4.914265579
10.135591702 -0.124137886 -0.098584614 -0.074183550 6.020035410 0.017458609 -0.046864709 0.013888110 5.042496704
10.100378193 -0.018457518 -0.156511903 -0.011030027 6.063207510 0.009262342 -0.074401923 0.007368080 4.999839661
10.150763796 -0.121283811 -0.089143014 -0.072477983 6.030392596 0.020510808 -0.042376404 0.016316098 5.042230346
10.107631225 -0.051000441 -0.043204580 -0.030477350 6.047156280 0.041269542 -0.020538399 0.032829417 4.989899481
9.946091326 -0.104500881 0.004701004 -0.062448673 6.192669700 -0.008223256 0.002234742 -0.006541500 4.982595390
9.937831761 -0.108822607 -0.103701818 -0.065031293 6.198984744 0.029079255 -0.049297303 0.023132193 5.032289565
10.202127221 -0.024760735 -0.028116747 -0.014796766 6.065535651 0.039572640 -0.013366012 0.031479553 4.959809752
10.355169982 -0.001621485 -0.013054769 -0.000968983 6.172544994 0.013251897 -0.006205917 0.010541722 4.936679110
10.072949867 -0.032324367 -0.162162788 -0.019316716 6.089134533 0.013132575 -0.077088215 0.010446803 5.011993990
10.311091377 -0.005426137 -0.018795869 -0.003242605 6.133564021 0.023002814 -0.008935095 0.018298458 4.938386645
10.058577924 -0.017601097 -0.101859958 -0.010518238 6.049925775 0.038307655 -0.048421728 0.030473273 5.058976308
10.266432802 -0.066814958 -0.013785763 -0.039927946 6.137452360 0.066169239 -0.006553414 0.052636822 4.915047235
10.108593273 -0.016628589 -0.150490113 -0.009937077 6.061840011 0.008965294 -0.071539312 0.007131782 4.997331255
9.974240664 -0.080972206 0.003034348 -0.048388174 6.219984557 0.001435940 0.001442455 0.001142273 4.989754936
9.971682833 -0.051307955 -0.172112623 -0.030661117 6.176391119 0.049378089 -0.081818123 0.039279668 4.955637640
9.980354064 -0.120334705 -0.185387100 -0.071910807 6.069428323 0.038298729 -0.088128484 0.030466172 4.979693371
9.948463120 -0.103872167 -0.114998946 -0.062072960 6.179504765 0.033018322 -0.054667681 0.026265672 5.026581577
10.277699044 -0.009951157 -0.021478408 -0.005946711 6.106931684 0.029274878 -0.010210309 0.023287808 4.942324275
10.174114747 -0.016289485 -0.089206758 -0.009734432 6.082231084 0.021621761 -0.042406706 0.017199847 4.976067626
9.928000442 -0.108765692 -0.089901266 -0.064997281 6.207196878 0.029166431 -0.042736859 0.023201540 5.025411564
9.936343333 -0.109193903 -0.101876786 -0.065253176 6.201011770 0.028751840 -0.048429727 0.022871738 5.032209475
10.000399508 -0.080919521 -0.078355614 -0.048356690 6.097905228 0.033429114 -0.037248339 0.026592452 5.010584475
10.136572671 -0.013760461 -0.125613562 -0.008223113 6.064515543 0.011736529 -0.059713609 0.009336266 4.990099440
10.302643042 -0.006423588 -0.019544927 -0.003838672 6.126438128 0.024677327 -0.009291180 0.019630513 4.939219400
10.265291641 -0.078448247 -0.013680688 -0.046879882 6.134868682 0.064968911 -0.006503464 0.051681976 4.942987209
10.052877476 -0.053632907 -0.127810366 -0.032050485 6.063133854 0.050966694 -0.060757916 0.040543383 5.013232554
10.175149566 -0.031653798 -0.030697404 -0.018915991 6.056760362 0.041012841 -0.014592794 0.032625215 4.969225843
10.308488886 -0.027717637 -0.123891958 -0.016563781 6.067350894 0.088389159 -0.058895201 0.070312498 4.912379633
10.186794838 -0.028574651 -0.029547735 -0.017075923 6.060259229 0.040541146 -0.014046269 0.032249987 4.965143723
10.306187811 -0.030393009 -0.123674668 -0.018162556 6.069244279 0.090227603 -0.058791906 0.071774957 4.915259557
9.963469803 -0.112636913 -0.013428287 -0.067310684 6.168331612 -0.001763798 -0.006383478 -0.001403080 5.005946322
9.991362585 -0.078829273 -0.131985682 -0.047107579 6.117688776 0.046500753 -0.062742759 0.036990782 5.010981202
10.186592907 -0.018180855 -0.077900316 -0.010864696 6.089345120 0.025771944 -0.037031901 0.020501267 4.967425127
9.971820308 -0.112497300 -0.182517594 -0.067227252 6.105250269 0.045826787 -0.086764391 0.036454650 4.968036168
10.052080506 -0.017699879 -0.109175569 -0.010577269 6.061149684 0.041078451 -0.051899390 0.032677406 5.061772883
9.938600013 -0.108590584 -0.104615020 -0.064892639 6.197842641 0.029282568 -0.049731417 0.023293926 5.032201943
9.928900522 -0.109104592 -0.091366309 -0.065199805 6.207081966 0.028873788 -0.043433304 0.022968746 5.026625566
10.167362824 -0.033789161 -0.031538546 -0.020192062 6.054650235 0.041224889 -0.014992652 0.032793896 4.971881440
10.131226047 -0.027125263 -0.118155083 -0.016209784 6.032540136 0.044791177 -0.056168031 0.035630835 5.001047956
10.021764231 -0.063749785 -0.049115062 -0.038096229 6.197217690 0.010298109 -0.023348097 0.008192020 5.023477053
10.281593544 -0.010663881 -0.125736448 -0.006372628 6.036854711 0.050976187 -0.059772026 0.040550935 4.913816787
10.126199523 -0.092789756 -0.130119945 -0.055450223 6.058119116 0.059929838 -0.061855833 0.047673455 5.013932570
10.063208112 -0.132583601 -0.143077561 -0.079230624 5.990381947 0.012242311 -0.068015566 0.009738609 5.025887166
10.257563022 -0.053517163 -0.129558173 -0.031981317 6.069963189 0.093536016 -0.061588780 0.074406760 4.948920797
10.214099085 -0.010730597 -0.117039298 -0.006412497 6.026961695 0.035745175 -0.055637614 0.028434851 4.958307510
10.256130578 -0.089297742 -0.020154228 -0.053363431 6.122559176 0.058998565 -0.009580826 0.046932639 4.976793710
10.005039129 -0.079449787 -0.076804091 -0.047478392 6.093724494 0.033857083 -0.036510783 0.026932897 5.010433926
9.988173914 -0.118259845 -0.037375757 -0.070670891 6.140964789 0.008502508 -0.017767519 0.006763642 5.022758460
10.046050923 -0.114390609 -0.095258592 -0.068358675 6.086120140 0.031488266 -0.045283600 0.025048531 5.033212724
9.932260721 -0.109610140 -0.096427777 -0.065501915 6.205237054 0.028400174 -0.045839402 0.022591992 5.030174299
10.298597929 -0.006938385 -0.019877467 -0.004146309 6.123108553 0.025456585 -0.009449261 0.020250403 4.939660835
10.258634783 -0.087464316 -0.018458825 -0.052267794 6.125590649 0.060442436 -0.008774873 0.048081220 4.970734787
10.215160216 -0.024082552 -0.052735907 -0.014391490 6.105333197 0.037879662 -0.025069358 0.030132809 4.937568347
10.104133314 -0.051975235 -0.044268988 -0.031059877 6.047407741 0.041203257 -0.021044392 0.032776688 4.990997214
10.205107763 -0.021658546 -0.061643359 -0.012942929 6.099590959 0.033048360 -0.029303742 0.026289567 4.949789976
10.205187122 -0.011870474 -0.116614464 -0.007093676 6.026291122 0.035747709 -0.055435658 0.028436867 4.964334459
10.058760864 -0.111797142 -0.103868942 -0.066808845 6.078285342 0.035797611 -0.049376750 0.028476563 5.032257632
10.264881293 -0.059495338 -0.015824753 -0.035553814 6.136838253 0.065267174 -0.007522700 0.051919241 4.901873690
10.219908198 -0.010077501 -0.117464723 -0.006022213 6.027387425 0.035995750 -0.055839851 0.028634180 4.954320564
10.029423366 -0.060605675 -0.061915959 -0.036217341 6.188573878 0.011789869 -0.029433330 0.009378697 5.026425743
10.034507742 -0.060273287 -0.129607123 -0.036018709 6.075917840 0.051104334 -0.061612050 0.040652875 5.011135719
10.050793348 -0.017783222 -0.110618800 -0.010627074 6.063508069 0.041630079 -0.052585467 0.033116220 5.061990590
9.973293721 -0.114140212 -0.183287209 -0.068209040 6.098907419 0.044666995 -0.087130248 0.035532049 4.970467790
10.213711020 -0.105767404 -0.046726625 -0.063205535 6.082553206 0.040174356 -0.022212692 0.031958210 5.022542149
10.027482450 -0.117357058 -0.078942100 -0.070131395 6.100367405 0.025131755 -0.037527140 0.019992005 5.031935189
10.101101197 -0.129404682 -0.119152516 -0.077330934 6.001565466 0.012986505 -0.056642186 0.010330607 5.037757975
10.116301347 -0.127302187 -0.110131852 -0.076074504 6.008812251 0.014539644 -0.052353983 0.011566109 5.040689055
9.975572578 -0.116417488 -0.184281249 -0.069569918 6.089200646 0.042740503 -0.087602790 0.033999549 4.973882332
10.269111501 -0.011341013 -0.022139837 -0.006777275 6.100845256 0.030749251 -0.010524736 0.024460654 4.943610454
9.932898402 -0.109609476 -0.097326129 -0.065501518 6.204709268 0.028395564 -0.046266457 0.022588325 5.030666505
10.398396286 -0.000303493 -0.002287414 -0.000181365 6.211472167 0.001763508 -0.001087381 0.001402849 4.944353067
10.181247491 -0.077888289 -0.134715092 -0.046545256 6.060804067 0.075907613 -0.064040253 0.060383580 4.986948837
9.963758163 -0.075314163 -0.176435367 -0.045006985 6.172222056 0.051540409 -0.083873050 0.040999767 4.943944122
10.263221026 -0.051495720 -0.128764763 -0.030773323 6.070960181 0.094041416 -0.061211613 0.074808800 4.945812296
10.260754547 -0.051334828 -0.019072926 -0.030677176 6.135267595 0.063040132 -0.009066802 0.050147656 4.891995397
9.938225565 -0.100931435 -0.085638920 -0.060315608 6.166338032 0.032277593 -0.040710644 0.025676431 5.010458080
10.012231036 -0.077195448 -0.074371641 -0.046131222 6.087711151 0.034550873 -0.035354456 0.027484798 5.010398711
10.011264611 -0.067776878 -0.034036415 -0.040502779 6.206383212 0.008313284 -0.016180078 0.006613116 5.018370954
9.989271380 -0.084488924 -0.081759582 -0.050489729 6.108769393 0.032502953 -0.038866502 0.025855703 5.011436334
10.309520706 -0.026024108 -0.124111320 -0.015551745 6.066013925 0.086926454 -0.058999480 0.069148934 4.910621290
10.291271641 -0.012275422 -0.126280003 -0.007335669 6.042065807 0.056377017 -0.060030419 0.044847229 4.907924453
10.019725204 -0.074885655 -0.071885980 -0.044750913 6.082045522 0.035296861 -0.034172833 0.028078222 5.010470334
10.002750038 -0.128189145 -0.179343772 -0.076604541 6.014848035 0.023650999 -0.085255634 0.018814081 4.996301939
10.261640388 -0.084612619 -0.016337102 -0.050563648 6.129504243 0.062321116 -0.007766258 0.049575687 4.961479680
10.260546714 -0.008646166 -0.123146268 -0.005166861 6.030720230 0.043230390 -0.058540718 0.034389248 4.927345762
10.179039468 -0.030609156 -0.030302254 -0.018291723 6.057883349 0.040877565 -0.014404949 0.032517605 4.967872173
10.204830026 -0.108335208 -0.052631548 -0.064740028 6.074874138 0.036813426 -0.025019748 0.029284631 5.027384080
9.975563875 -0.087366688 -0.130380433 -0.052209452 6.135921907 0.042559203 -0.061979663 0.033855327 5.014509326
9.944519550 -0.106057429 -0.111118532 -0.063378851 6.187340961 0.031382784 -0.052823027 0.024964622 5.029390865
10.043531215 -0.056966505 -0.128792104 -0.034042609 6.069215444 0.051139800 -0.061224610 0.040681087 5.012252877
10.134133579 -0.013831431 -0.127966074 -0.008265524 6.063857438 0.011286795 -0.060831936 0.008978508 4.990686069
9.946857955 -0.093859015 0.012592952 -0.056089202 6.213566079 -0.007662498 0.005986381 -0.006095424 4.972097094
9.997942393 -0.072591440 -0.017976127 -0.043379913 6.214287897 0.005963524 -0.008545410 0.004743911 5.009823687
10.147650292 -0.022654501 -0.117295760 -0.013538102 6.028641717 0.042508309 -0.055759530 0.033814841 4.994952036
10.105022469 -0.035485160 -0.120691570 -0.021205574 6.040502747 0.047689463 -0.057373815 0.037936386 5.008996817
9.926573307 -0.104722585 -0.085070469 -0.062581162 6.196916834 0.031956007 -0.040440416 0.025420614 5.018063731
10.290357371 -0.008058982 -0.020521353 -0.004815966 6.116514496 0.027001951 -0.009755348 0.021479723 4.940636489
10.307372724 -0.017475389 -0.125772709 -0.010443116 6.056003096 0.072985180 -0.059789264 0.058058820 4.902938765
10.250213270 -0.008376312 -0.121485719 -0.005005600 6.029422687 0.040538837 -0.057751334 0.032248151 4.934006215
10.281200550 -0.044660207 -0.126038651 -0.026688490 6.073327245 0.094506495 -0.059915686 0.075178764 4.934821433
10.191442465 -0.019007730 -0.073613234 -0.011358828 6.092061798 0.027521970 -0.034993928 0.021893391 4.963382174
10.081457000 -0.026044738 -0.165278069 -0.015564073 6.074312494 0.011745586 -0.078569144 0.009343470 5.006637339
10.057267267 -0.045584997 -0.129538275 -0.027241135 6.134550054 0.014642173 -0.061579321 0.011647670 5.027138572
10.114847975 -0.032213493 -0.119557584 -0.019250459 6.037341764 0.046714716 -0.056834745 0.037160987 5.006313359
10.190654071 -0.027587665 -0.029183190 -0.016486111 6.061511609 0.040337429 -0.013872973 0.032087933 4.963783313
10.283497832 -0.043700036 -0.125696386 -0.026114701 6.073457109 0.094432938 -0.059752981 0.075120250 4.933282408
9.970783029 -0.052317994 -0.172548732 -0.031264706 6.176888857 0.049371572 -0.082025439 0.039274483 4.954088169
10.032949945 -0.059076757 -0.068479472 -0.035303674 6.183935036 0.012459849 -0.032553463 0.009911658 5.027582664
10.013428261 -0.066968049 -0.036948886 -0.040019431 6.204722880 0.008711861 -0.017564595 0.006930179 5.019534127
9.952948497 -0.101157498 -0.118951139 -0.060450701 6.170704727 0.034866355 -0.056546457 0.027735760 5.023534623
9.968388509 -0.083163166 0.006579168 -0.049697470 6.220017685 -0.000023586 0.003127575 -0.000018762 4.984613520
9.954384980 -0.096078003 -0.085597893 -0.057415246 6.145477656 0.031438900 -0.040691141 0.025009261 5.012063545
10.248073428 -0.039317838 -0.026278251 -0.023495944 6.128987433 0.056746166 -0.012492037 0.045140883 4.893106332
10.255434375 -0.008452864 -0.122335622 -0.005051346 6.029985636 0.041827036 -0.058155357 0.033272897 4.930634313
10.154476981 -0.120535912 -0.086764734 -0.072031046 6.033119184 0.021361837 -0.041245828 0.016993081 5.041921975