5.0217063590 -0.0039984682 2.4653811278 2.7139661627 4.5934226638 4.8615034186 2.1311482002 1.6088234599 2.3130336335 7.3369039040 1.4959313682 0.0725534632 7.9014866175 4.5871711333 2.6136740026 1.0033338807 4.6293491611 2.0960790664 3.9339312168 1.5709519020 4.6371167747 9.0420821975 1.5741396967 2.8251403505 6.0827634096 4.4594678714 0.2961388243 1.2369457538 4.6033833471 3.6144518960 3.7717186075 1.5496754185 1.1490226100 8.8225962432 1.5197924916 1.3071279137 6.2516899013 4.5527132654 3.7888056376 4.5773564959 4.5123407194 0.6514068228 0.4440164265 1.6438843460 3.2728203751 5.4409417488 1.4508600530 4.3073029082 9.5906990282 4.6344704044 1.6953946838 1.7574758175 5.8392590767 1.4220856868 3.2236928637 0.3483195275 3.9200600222 8.2848298443 2.7757342716 3.5254383057 6.7910552392 3.2561107699 1.0090089183 8.2884456724 0.3594122530 3.5296047649 6.7868579966 5.6763563336 1.0672796284 1.6977475110 3.4227196396 1.3351813110 3.2244747283 2.7636492949 3.9035061084
4.9050305638 0.0262598876 2.3883550807 2.5706762895 4.5896477062 4.7949417937 2.0858701701 1.6728866864 2.3331359092 7.3008336154 1.4735166388 -0.0277211925 7.7029023777 4.4736904201 2.5218074316 0.8913018446 4.6271822801 2.0745518160 3.8358666194 1.5738893696 4.5872489941 8.9347168949 1.4653487132 2.7230968495 5.9682921257 4.4774996082 0.3022708731 1.0518358383 4.5633512732 3.6089718240 3.7036067885 1.5569187649 1.1379789352 8.7834599560 1.4557118364 1.1899860518 6.0981269900 4.5463106562 3.7527073843 4.4519389470 4.5551279989 0.6753332521 0.4394650987 1.5477903324 3.3245132622 5.3487731775 1.4617125891 4.2223129153 9.3690669621 4.5059410548 1.5013153358 1.7033219897 5.8142992442 1.4400260736 3.1281813437 0.3637083755 3.8574907737 8.1965930172 2.6944587678 3.3969156760 6.6943275587 3.2688398643 0.9758496921 8.1600064864 0.2664007368 3.3863451560 6.6454655035 5.7016485416 1.0559263034 1.6195456277 3.3935353788 1.3781434797 3.1524941613 2.7934971162 3.8527070642
5.1204808763 0.0959354376 2.4918002960 2.6228612531 4.4814715178 4.9040300054 2.1235151069 1.5513457426 2.3344349116 7.3079830961 1.4789057609 0.0368748529 7.8104871200 4.3517492027 2.5494694304 0.9591202472 4.5321608854 2.0849319151 3.9039796824 1.5635369089 4.6690545099 8.9660917521 1.3695086835 2.7861139416 6.0197574931 4.4345066361 0.2784565448 1.2223749779 4.4893983728 3.5916753148 3.7779965077 1.5518374431 1.1615572810 8.7547223117 1.4251194419 1.2667798044 6.1384380006 4.4310885791 3.7877768027 4.5315887561 4.5196821122 0.6790245707 0.3989373965 1.5146731461 3.1926650835 5.4100234289 1.4987301500 4.3203490135 9.5356131114 4.4061126094 1.6982599336 1.6531628607 5.7511287648 1.3728895900 3.2353857136 0.3293796348 3.9433388910 8.1924126044 2.5482440806 3.5183312138 6.7517733942 3.2442159003 1.0312204570 8.2676292583 0.1392592372 3.4667347946 6.7570613421 5.6448618611 0.9931921363 1.6868556557 3.3378102883 1.3341151206 3.2160288773 2.7533454760 3.9104078413
4.9650203833 -0.0286948528 2.5016705510 2.6501806728 4.6166095532 4.9499362308 2.1440481651 1.6451608390 2.3984053304 7.2437293474 1.5237345097 0.0615850924 7.7680588938 4.4463526223 2.5563844714 1.0143809018 4.6408817217 2.2065799606 3.9063236397 1.5931910736 4.6882970980 8.8945359941 1.4099010103 2.8046709596 6.0053354862 4.5377819186 0.2971581991 1.1470676783 4.6542664091 3.7388825033 3.7770866833 1.5670749327 1.1936125363 8.7275844181 1.4451326493 1.2792696736 6.1702868839 4.5166379229 3.8013071146 4.5016228268 4.5890552972 0.6679782621 0.3894725233 1.5528521164 3.2390067915 5.4110348812 1.5439773591 4.3014611470 9.5191183016 4.5064207468 1.7488655418 1.7852129406 5.8318716066 1.5386537847 3.2218344724 0.3674214063 3.9468370243 8.1306390879 2.6268313856 3.4698594162 6.7388465832 3.3464435954 1.0119494164 8.1363744107 0.1986187468 3.4439914416 6.6922610361 5.7689029568 0.9954217827 1.7831331430 3.4299382317 1.5321615776 3.1487847047 2.7948935513 3.9925117397
4.9041667826 -0.1400584323 2.4858670567 2.6133032191 4.6451242295 4.9330373208 2.2132311297 1.7221021660 2.4749084444 7.2884925836 1.4833935333 0.0236525468 7.7396988877 4.5855981751 2.5443113506 0.9966155906 4.7780168853 2.1703227732 3.9262125188 1.5326439850 4.7195123786 8.9314491524 1.5769887728 2.7975611895 5.9945828092 4.5736077870 0.3003327729 1.1511493085 4.7148976970 3.7018564894 3.7695173857 1.5637538969 1.2656380135 8.7323082612 1.5786392292 1.2788780337 6.1970580453 4.6605408535 3.7557937653 4.4827670910 4.6092642084 0.6615868593 0.4622050221 1.6127856677 3.1406935120 5.4188614817 1.4922005511 4.3044591102 9.4651722675 4.6866187400 1.7846538874 1.7321329379 5.9890551384 1.5283935963 3.2364079004 0.3023707871 4.0186766176 8.2634388137 2.8111358604 3.5138104607 6.7280491998 3.3786376156 0.9727375616 8.1761596097 0.3703513112 3.4713274345 6.6905022285 5.8117284509 1.0217469207 1.7380952330 3.5614204531 1.4701944182 3.1756872643 2.7281991718 4.0144038988
5.3234367276 0.3288841071 2.4297224937 2.8016546183 4.6345406981 4.9189242524 2.1897099818 1.5510315330 2.4831081116 7.4637273696 1.5483223128 -0.0002290715 8.0162661885 4.5655089310 2.5398008881 1.0914495917 4.5542553254 2.1948729246 4.0071548101 1.6416798855 4.7035003493 9.1401062751 1.5154808895 2.7197032021 6.1713668341 4.5934744225 0.2716346067 1.2951346882 4.6576607028 3.7176409472 3.8255435100 1.5784844146 1.2829365968 8.9502915018 1.5733246427 1.2005062503 6.3601090447 4.6022948610 3.6887056828 4.6822528662 4.6980893954 0.6668341866 0.3804729207 1.4836421064 3.1089928848 5.5113286193 1.6357167289 4.3434875633 9.8275799183 4.4952387273 1.8776495854 1.8142965913 5.7437625271 1.4421014744 3.2910064450 0.4559762365 3.9391432707 8.4100320815 2.7165288157 3.4419602934 6.8973958968 3.4094341898 1.0051435505 8.3560210975 0.3300113041 3.3833492602 6.9503946422 5.8001033270 0.9642021107 1.8341799358 3.3412910623 1.5295067975 3.2776337014 2.8570050107 4.0332764682
5.0625511641 0.0336928581 2.4275920086 2.7725935230 4.6280851620 4.9146830286 2.1317120206 1.5865241015 2.4045812616 7.3833154899 1.5833233529 0.0043805644 8.0230215619 4.5863123380 2.5194816922 1.0466457204 4.5989386201 2.1954771385 3.9661577187 1.6517643515 4.6213395711 9.0990096347 1.5044414011 2.7503771879 6.1966836063 4.5959248141 0.2799140274 1.2123497881 4.6080703821 3.7250227569 3.7792275802 1.6033312508 1.1827897565 8.9263788835 1.5099394769 1.2277944107 6.3675766142 4.6300229301 3.7164291189 4.6811769019 4.6609016233 0.6384892048 0.3930729071 1.4843143505 3.2099571043 5.4819160832 1.5739907851 4.2448549723 9.7607233283 4.5540009071 1.7012016371 1.8054367834 5.8212688299 1.5316873571 3.2702922883 0.4203830909 3.8808448503 8.3615068856 2.7200813934 3.4536241855 6.9362799158 3.3961482207 0.9798170542 8.3351619824 0.3033573938 3.4276791711 6.8777585283 5.8148961543 1.0224724632 1.8234861103 3.4093044154 1.4957842651 3.2667879464 2.8611322450 3.8923253738
4.8574067451 -0.1501039361 2.5004631953 2.5609240143 4.6663813172 4.9703316917 2.1492600406 1.6370358727 2.3853787882 7.2985080704 1.5473828229 0.0151357655 7.7240512193 4.4904565979 2.5009553521 0.9877525860 4.6751006155 2.2055064635 3.9003700551 1.6241872757 4.6739570900 8.8941605681 1.4637270235 2.7658587560 5.9934147105 4.5454616944 0.2910450085 1.0994401991 4.6502381146 3.7370814801 3.7756158407 1.5657211846 1.2079733973 8.7484682591 1.5108223415 1.2326252555 6.1319393354 4.5458618582 3.7736387203 4.4859534472 4.5890801487 0.6452550110 0.4323624656 1.5762463381 3.1961962297 5.3955857443 1.5050073356 4.2852114859 9.4620549845 4.6311645227 1.7320397875 1.7768042757 5.8624184210 1.5275981528 3.1494224749 0.4057328534 3.9749041729 8.1527862703 2.6890808509 3.4496424363 6.7302307399 3.3513481721 1.0207981463 8.1551400189 0.2523498857 3.4496920290 6.6620364318 5.7856717743 1.0130763261 1.7337301504 3.4634164815 1.5034384791 3.1667948963 2.8199992221 3.9724266647
5.1921168088 0.1027241510 2.5061126022 2.6717998895 4.5240879470 4.9425984671 2.1579152091 1.5281386179 2.3451472622 7.3360182916 1.5051358736 0.0789310217 7.8584509716 4.3661907804 2.5958261422 0.9779380408 4.5662663900 2.1105075408 3.9532441937 1.5816139277 4.6935100584 9.0348021578 1.3851168829 2.8233412644 6.0579889609 4.4696940219 0.2895374554 1.2686715425 4.5226122476 3.6164098855 3.7856725192 1.5505092871 1.1839955857 8.7822827204 1.4572838725 1.3074682685 6.2162860471 4.4474442303 3.8062397734 4.5501517728 4.5687866474 0.6754882846 0.4074425171 1.5455546436 3.1923729589 5.4725748387 1.5470714024 4.3422983539 9.5979459252 4.4240879751 1.7496068892 1.6685943115 5.7883836278 1.3766405403 3.2948876402 0.3384053789 3.9589022364 8.2766376174 2.5799047302 3.5530756285 6.7767745792 3.2801059219 1.0292842209 8.3432605617 0.1459575248 3.4924628105 6.7687874449 5.6834220677 0.9951411250 1.7022378513 3.3743282532 1.3597224205 3.2347885912 2.7653306289 3.9710694350
4.7447882268 -0.1820446468 2.3651822590 2.5823357945 4.6152123124 4.9083309276 2.1555820880 1.7781441840 2.3749128467 7.2330833806 1.4697456432 0.0181508247 7.7190458789 4.6077020750 2.6337641517 0.9508834622 4.7422628474 2.1322666562 3.8937088286 1.5635183926 4.6260975354 8.8864587646 1.5334526902 2.8198798104 5.9886716587 4.5183598356 0.2818443963 1.1574828497 4.6051495796 3.6508943537 3.7481168321 1.5738501254 1.1231576058 8.6490004660 1.4829730848 1.3065835576 6.1125707312 4.6578411241 3.7771969596 4.4778267681 4.5342557428 0.6420481794 0.4503276223 1.6051663855 3.2034382628 5.3906310069 1.4917857330 4.2243328304 9.3975573464 4.6700270816 1.7141356190 1.6969881901 5.9267908890 1.4527794425 3.1711925573 0.3313588340 3.9473368213 8.1764451619 2.7501966680 3.5249701532 6.7232579743 3.3024655438 0.9179903608 8.1914848926 0.3345333485 3.5725305867 6.6729641688 5.7137452808 1.0601175338 1.6669883607 3.5098588640 1.4144359993 3.1743047443 2.7728777691 3.9036783791
5.2152664532 0.2374926810 2.3712431649 2.7056210447 4.6878055000 4.9105446429 2.1612284252 1.5263157933 2.3225408731 7.4553132312 1.5896674819 0.0212657109 7.9975787475 4.4787144502 2.5880440570 0.9750266640 4.5614426265 2.1360934794 4.0068631743 1.7122746228 4.5902090427 9.1897743797 1.4672680101 2.7501657085 6.1923388232 4.6000784579 0.3202875132 1.2496255078 4.6156699399 3.6482692133 3.8141078276 1.5600665663 1.1661630200 8.9519408345 1.5470311396 1.2321770661 6.3718302281 4.6504009219 3.7344946632 4.6903544825 4.6868157316 0.6819439363 0.4238539414 1.5282624163 3.2041405381 5.5216073472 1.6260654936 4.2618229064 9.7451603350 4.4847398540 1.7039366432 1.6921473172 5.7889383110 1.4095429365 3.3007250138 0.5096017014 3.8197029635 8.4428460641 2.6879536067 3.4794981495 6.9188971387 3.3955756274 1.0519173564 8.4326416216 0.2621442048 3.4189563249 6.9055971100 5.8224263598 1.0348028081 1.7412813998 3.3619122244 1.4444730583 3.3273912288 2.9462651284 3.9415201689
5.3088919118 0.3100131938 2.4356186125 2.7969146267 4.6330192163 4.9236965084 2.1894924308 1.5481268825 2.4853825452 7.4509529634 1.5452649699 0.0001891127 8.0038201237 4.5566557683 2.5397648635 1.0845476102 4.5505350565 2.1972359152 4.0007420231 1.6433702727 4.7095329810 9.1301540247 1.5118309726 2.7199862531 6.1673473357 4.5865044065 0.2735214470 1.2836937301 4.6546843446 3.7198395645 3.8270402724 1.5709602939 1.2794092594 8.9427098706 1.5693815304 1.1998063429 6.3423228113 4.6007778839 3.6933200347 4.6729741231 4.6949445002 0.6693353334 0.3828996601 1.4840145524 3.1171544114 5.5073145050 1.6352969325 4.3423978437 9.8110011739 4.4874882918 1.8719794635 1.8117208023 5.7420200164 1.4481288727 3.2869304082 0.4553557359 3.9403008256 8.4012496003 2.7146214269 3.4445102086 6.8886994192 3.4006231805 1.0034898545 8.3407084447 0.3233264752 3.3805774194 6.9419296354 5.7943395793 0.9668248894 1.8273657653 3.3370527487 1.5250982898 3.2744275278 2.8586879940 4.0377089516
5.0673647270 0.0229260784 2.4831730416 2.7294687081 4.5852650614 4.8414749640 2.1325440867 1.5833531525 2.3054442859 7.3607150323 1.5049013261 0.0774049789 7.9342186591 4.5833399508 2.5942991538 1.0034030163 4.6210590287 2.0913334112 3.9345937044 1.5834389943 4.6275193450 9.0789119917 1.5756338101 2.8192780189 6.1014654108 4.4669553922 0.3100281200 1.2429638556 4.5965140982 3.6064991570 3.7649764151 1.5611798129 1.1452691433 8.8645433581 1.5275917784 1.2956307606 6.2749385109 4.5394172644 3.7888759256 4.5918442756 4.5272257820 0.6445401378 0.4482009852 1.6274108555 3.2668808208 5.4476625430 1.4710190495 4.3102860844 9.6312252971 4.6287352036 1.6854598781 1.7459940532 5.8242660839 1.4069579290 3.2368770530 0.3463963225 3.9026841344 8.3184336659 2.7675739774 3.5201455763 6.7908003872 3.2618229639 1.0173873709 8.3302987932 0.3599927828 3.5191252652 6.8240734479 5.6761136905 1.0657395475 1.7118293873 3.4096422242 1.3570056599 3.2400332348 2.7797126142 3.8985230838
5.0109470108 -0.0327387356 2.5304189158 2.6415966849 4.6609796374 4.9874557103 2.1557358379 1.5518753309 2.4405128521 7.3033014579 1.5475517888 0.0142791362 7.7935581198 4.4530067485 2.4996020732 0.9937493082 4.6001847054 2.2140032695 3.9379026994 1.6288128221 4.7079678894 8.9538691399 1.4633337149 2.7444569466 6.0374354803 4.5462254600 0.2812352900 1.1559659179 4.5840774072 3.7421100621 3.8011770222 1.5414720352 1.2378848858 8.8103776409 1.5245863728 1.2137620803 6.2018726017 4.5426940732 3.7687249786 4.5595647305 4.6034402243 0.7237878061 0.4060079171 1.5315816489 3.2246931350 5.4267677785 1.5610888252 4.2930065673 9.5464635027 4.5765443726 1.7207102180 1.7537158747 5.8121842842 1.5365889195 3.2111696527 0.4045084058 3.9660687379 8.2069703337 2.6873322968 3.4254591056 6.7855836632 3.3335425426 0.9673281021 8.1752571813 0.2697827269 3.4107036011 6.7951689715 5.7322323545 1.0043465554 1.7545687493 3.3980189707 1.5324543185 3.2114841320 2.8432546370 4.0564724715
5.4780410154 0.5026764639 2.3994674920 2.8753987274 4.6734720027 4.9085133373 2.1945279506 1.5821925442 2.4334956624 7.5609512855 1.6154026762 0.0212728086 8.1571986123 4.6477365252 2.5256338561 1.1160625384 4.6719801603 2.1900001477 4.0554790594 1.6202213728 4.6705070633 9.2658028771 1.5583728325 2.7545759064 6.3043453473 4.6688584723 0.2844207228 1.3865871693 4.6939450372 3.7095570712 3.8105555514 1.5730000452 1.2615341093 9.0606446097 1.5720254350 1.2299184100 6.5193695184 4.7056384084 3.6951720259 4.8010213949 4.7365359694 0.6128904902 0.3716117930 1.5327775074 3.0752571018 5.5790376676 1.5880786543 4.3935413808 9.9917700670 4.6660833842 1.9172898348 1.8395272804 5.8728671513 1.4678828665 3.3905820421 0.4072368937 3.9281875753 8.5194434938 2.7708926382 3.4464328947 7.0326150569 3.4486685900 0.9783792083 8.5066568180 0.3707817686 3.4356929582 7.0353779126 5.8985196212 0.9781735467 1.8413844593 3.4487315383 1.5205951277 3.3265306882 2.8267025928 3.9763353599
4.7998666172 -0.1346659786 2.3584170333 2.6013241911 4.6126067513 4.8914839721 2.1347188876 1.7446842716 2.3539833303 7.2582569446 1.4694708588 0.0356590805 7.7572671327 4.6033614631 2.6338254954 0.9665747317 4.7142364908 2.1109848379 3.8953719607 1.5472814499 4.6169667153 8.8906554158 1.5549901472 2.8136432705 6.0143806785 4.4936841234 0.2893836433 1.2077876214 4.5869895585 3.6250214980 3.7829202397 1.5445067401 1.1439777021 8.6633707052 1.4925389147 1.2977601373 6.1304284992 4.6296389257 3.7687003384 4.4993770189 4.4996783439 0.6459005198 0.4274383349 1.6288349314 3.1963519951 5.3943099494 1.4783555845 4.2188027774 9.4332891988 4.6572133124 1.7076688898 1.7257875934 5.9147955320 1.4420050944 3.1783846877 0.3318486597 3.9295110791 8.1795778440 2.7724004514 3.5176066278 6.7513367435 3.2711831369 0.9064715079 8.1892837670 0.3536638459 3.5665433645 6.7053201550 5.7059074978 1.0606731562 1.6575128930 3.4768772046 1.3854688719 3.2016950621 2.7725698412 3.9099278836
4.9128485502 -0.0379504809 2.4168814266 2.6719980434 4.5828494270 4.9553492357 2.1239643047 1.6104853026 2.4085945881 7.3528151798 1.5350878572 -0.0710592283 7.8656376719 4.5935564642 2.4175784751 1.0358448668 4.6110759766 2.1916431831 3.9066235093 1.5907469966 4.6735934583 8.9775031167 1.5270882674 2.6553392385 6.1273843476 4.5172787861 0.1718977579 1.2269060285 4.5472692490 3.7086914871 3.8000160468 1.5961556434 1.2083248488 8.8166281161 1.4695076419 1.1254512045 6.2362012795 4.5845876550 3.6496805433 4.6387957329 4.5751205139 0.5831727967 0.3772858897 1.5690425489 3.1755634177 5.4066271399 1.4833565648 4.2789567119 9.6405054986 4.6583898505 1.7050279601 1.8390654213 5.7996593635 1.5252076350 3.1500825895 0.3811224604 3.9675849923 8.2240158823 2.7481693840 3.2982304421 6.8369836459 3.3045666800 0.8657510272 8.2301391097 0.3436642853 3.3772294790 6.8386302436 5.7211540947 0.9361220437 1.7132488780 3.3918108443 1.4417139064 3.2224838706 2.8097987863 3.9410431406
4.9001643863 -0.1357345740 2.5016898080 2.6217168857 4.6514529896 4.9573434789 2.2269892635 1.7199417718 2.4784480605 7.3098234284 1.4817731344 0.0028785168 7.7452519693 4.6015177562 2.5499417603 0.9910340827 4.7812185800 2.1818606602 3.9266318852 1.5348710808 4.7436033215 8.9606048217 1.5962283610 2.7967155023 6.0068556119 4.5791455327 0.2815343085 1.1634815325 4.7180487151 3.7084560974 3.7843217742 1.5636793101 1.2840178106 8.7456163953 1.5856647855 1.2732644734 6.1784557392 4.6701637258 3.7491307520 4.5096301876 4.6048190647 0.6678573441 0.4676933502 1.6375104363 3.1728154981 5.4224706842 1.4721275666 4.3345534926 9.4914968690 4.7175807080 1.7786565183 1.7693882643 5.9787010378 1.5332794067 3.2264215011 0.3116647269 4.0259276620 8.2725613851 2.8226587281 3.5017112464 6.7424294104 3.3695351830 0.9412073649 8.1937534283 0.3881905546 3.4648958018 6.7054742743 5.7992525137 1.0152170223 1.7218986619 3.5529383780 1.4768730388 3.1696677800 2.7418123852 4.0379542314
5.0124954358 0.0816591335 2.4503700352 2.5791580078 4.4869907724 4.8369166749 2.0897894050 1.6076652360 2.3263176795 7.2856767363 1.4614457525 -0.0114298847 7.7499007279 4.3797069296 2.5059655516 0.9377053648 4.5335957183 2.0667286055 3.8589519584 1.5475201786 4.6165066433 8.9155053523 1.3745668802 2.7382013598 5.9929644485 4.4338152467 0.2898774609 1.1420190200 4.4973824369 3.5860897256 3.7409376642 1.5645447212 1.1391123360 8.7571106432 1.4315393299 1.2058445153 6.0856439657 4.4537768287 3.7683933211 4.4896313646 4.4878041908 0.6944133289 0.4035342982 1.5194875956 3.2319941331 5.3705820900 1.4676911964 4.2766500006 9.4425279451 4.4012309138 1.5986964814 1.6774266092 5.7456784722 1.3872852878 3.1371133995 0.3382848501 3.8940070521 8.1583560142 2.5786806301 3.4433269840 6.7168671069 3.2313564614 1.0014253688 8.1763806894 0.1740977751 3.4361291025 6.7225717392 5.6398711332 1.0036417504 1.6492724223 3.3205130081 1.3405645859 3.1862889622 2.7519625723 3.8725980888
4.8288931120 -0.1137745823 2.3660947549 2.6146885260 4.6122130197 4.8876988055 2.1302181162 1.7266652742 2.3452771596 7.2690296218 1.4720718003 0.0436508960 7.7759789766 4.6013449340 2.6348374451 0.9755364012 4.7029819724 2.1049855187 3.9022705556 1.5483366581 4.6243943607 8.9019201139 1.5607013508 2.8147662933 6.0255362250 4.4825136148 0.2895599960 1.2196778065 4.5905723391 3.6183418929 3.7921074192 1.5363676440 1.1480347054 8.6765464767 1.4987067165 1.3027204927 6.1411666683 4.6198511691 3.7731499399 4.5185375564 4.4955297232 0.6484866919 0.4242505094 1.6401762209 3.2033900863 5.3953577914 1.4689263148 4.2276937900 9.4532041881 4.6513721014 1.7081987679 1.7363532213 5.9015988659 1.4448749188 3.1799224110 0.3298140158 3.9201124073 8.1891215216 2.7807615258 3.5136238776 6.7616230329 3.2567778142 0.9164088167 8.1906325752 0.3541302232 3.5614443820 6.7075013285 5.7060216544 1.0597596069 1.6575981219 3.4665710561 1.3670986473 3.2080143867 2.7679473982 3.9077923807
5.4138668417 0.4361486673 2.4024964617 2.8297339152 4.6557724713 4.8965140273 2.1907975882 1.5716307553 2.4596596512 7.5360650402 1.5805742666 0.0028689848 8.0980660586 4.6206306460 2.5305946433 1.1104741349 4.6103006675 2.1857868352 4.0355570249 1.6522833626 4.6902830191 9.2134836018 1.5529517937 2.7253628848 6.2443941817 4.6362589032 0.2743681946 1.3713578490 4.6771579655 3.6973174287 3.8192927532 1.5981721599 1.2673388174 9.0118190812 1.5845298592 1.2010120009 6.4494467496 4.6452962895 3.6807377003 4.7285549346 4.7358756996 0.6447505980 0.3774381205 1.4907293734 3.0685605385 5.5606580835 1.6115230688 4.3481753193 9.9341945585 4.5771619937 1.8998142892 1.8285413774 5.7980694179 1.4331010856 3.3347610263 0.4254997409 3.9327092290 8.4570844331 2.7513100657 3.4386901271 6.9615830378 3.4377348582 0.9967567368 8.4407635756 0.3383837102 3.4139678486 6.9905600722 5.8711489726 0.9446312486 1.8661476521 3.3773766688 1.5520086562 3.2985352646 2.8453180500 3.9968881888
4.8651715571 -0.1792678621 2.4201389662 2.5728008113 4.6797505151 4.9793824373 2.1828435322 1.6612804022 2.3531330606 7.3028645185 1.5338769743 0.0277226533 7.7944365307 4.6221308925 2.5658259670 0.9734329169 4.7264824635 2.1413873324 3.9022596406 1.6299717360 4.6169160079 8.9655779049 1.5927813257 2.8334565089 6.0520561206 4.5358977469 0.2532851323 1.1778746263 4.7321109664 3.6646437234 3.7685894773 1.5767847331 1.1147154618 8.7081533846 1.5769721719 1.3195966261 6.1919481066 4.5928680781 3.7533734857 4.5488970415 4.5916572239 0.6039820797 0.4716152844 1.5944876926 3.2334287480 5.4026121104 1.5433291550 4.2579081812 9.4873738220 4.7232446883 1.6743130469 1.7509437823 5.9131969275 1.4477157008 3.1976455218 0.3953425493 3.9082100787 8.2417174468 2.8022299708 3.5479575659 6.7790570137 3.3292168350 0.9381309989 8.2271869286 0.3767040329 3.5192481773 6.7413481686 5.7497958648 0.9991648262 1.6848074576 3.4985729333 1.4355350938 3.1769766464 2.8341016223 3.9251485897
4.9175246923 -0.1209043849 2.4656659880 2.6047912605 4.6254628315 4.9064157767 2.1734655188 1.7065641748 2.4543634651 7.2437399383 1.4946434176 0.0552384998 7.7415480519 4.5312224579 2.5244310752 0.9990705395 4.7500575597 2.1717474063 3.9352416918 1.5364065665 4.6747535371 8.8765401340 1.5130874638 2.7908188805 5.9861228122 4.5707327105 0.3171948350 1.1254442308 4.6656054381 3.7010234648 3.7600052488 1.5624528880 1.2331767191 8.7202841378 1.5384859225 1.2640312719 6.2000604350 4.5868747963 3.7685349863 4.4787231629 4.6054153636 0.6395237757 0.4326920829 1.5682497524 3.1337140416 5.4331914206 1.5358368730 4.2692744760 9.4549067758 4.6014424760 1.7766193116 1.7088491865 5.9589485060 1.4873014230 3.2277837222 0.2893115979 4.0076695797 8.1939050056 2.7313458964 3.5141968924 6.7114538770 3.3821443791 1.0416296762 8.1246697126 0.3258932052 3.4970814021 6.6621116272 5.8052871872 1.0407583411 1.7718512296 3.5337737292 1.5077909875 3.1686611283 2.7398699333 3.9782240823
4.9681980566 -0.0690398733 2.5261580364 2.6160194840 4.6650454548 4.9843591876 2.1501093704 1.5687399042 2.4243127583 7.3026503366 1.5492745062 0.0161195929 7.7720041833 4.4570776002 2.4927967510 0.9928932417 4.6150966406 2.2099886358 3.9250553472 1.6210346445 4.7007395272 8.9310650461 1.4558297034 2.7482976341 6.0257091340 4.5457017728 0.2850234291 1.1316540067 4.5941637758 3.7399427059 3.8039670241 1.5522160511 1.2201559841 8.7892210141 1.5270973644 1.2204386955 6.1806665510 4.5361131083 3.7758145263 4.5407182881 4.5923347809 0.7059992612 0.4072814912 1.5454512939 3.2199703115 5.4169491566 1.5474507001 4.2864629197 9.5247342285 4.5996122234 1.7208419771 1.7555317387 5.8219772417 1.5302367253 3.1947702796 0.4035521201 3.9645312329 8.1919362383 2.6851098638 3.4144934136 6.7708642604 3.3376117008 0.9763613703 8.1708141882 0.2702704330 3.4167829028 6.7639751263 5.7453961164 1.0028249373 1.7544981056 3.4193675655 1.5253929374 3.2022360077 2.8417740883 4.0380826334
5.2331124652 0.1340710371 2.4743791289 2.7584817647 4.6770240109 4.8694854191 2.2112207007 1.5574111533 2.3592487888 7.4306054396 1.5947466674 0.1379091052 8.0145071498 4.4682226759 2.6426729566 1.0298861999 4.6378734816 2.1653174963 4.0290632573 1.6530509536 4.6280015104 9.1874656428 1.4902377971 2.8338931027 6.1541665011 4.6096229098 0.3426388458 1.2701195259 4.7339464577 3.6816207496 3.8497812273 1.4689528532 1.2124001832 8.9394413126 1.5715455906 1.3164277048 6.3601327443 4.6406319199 3.7543745736 4.6482218108 4.6526716232 0.6744801698 0.4417797486 1.5851442173 3.1023117921 5.5410005222 1.6402325537 4.2732632881 9.7856804491 4.5208617033 1.8872142367 1.7319505576 5.8430715676 1.4301957327 3.3605944715 0.4455024855 3.8351205456 8.4611359105 2.6930468384 3.5974545883 6.8843699082 3.4225424718 1.0966900597 8.4617211377 0.2756232554 3.4911604413 6.8745194575 5.8522649068 1.0256433124 1.7978178903 3.4320149114 1.4804888998 3.2496864118 2.8584162260 3.9840886440
4.7154184499 -0.2121091336 2.4030803483 2.5741062127 4.6290332775 4.9306481978 2.1820053032 1.7874774854 2.3858588786 7.2288391738 1.4855136639 0.0105735502 7.6963692355 4.6076814439 2.6235811912 0.9434464985 4.7573046527 2.1627024348 3.8720037174 1.5737165880 4.6363052568 8.9029050850 1.5023940202 2.8304465335 5.9818992675 4.5357433083 0.2929190495 1.1117741811 4.6632674978 3.6922920018 3.7211031038 1.6142922105 1.1370653484 8.6449782791 1.4867126923 1.3120690689 6.1060582879 4.6694684403 3.7863689261 4.4530100323 4.5797360029 0.6222170722 0.4803946034 1.6033384130 3.2313718029 5.3784547493 1.5062140202 4.2618736532 9.3743933214 4.6627607218 1.7285810269 1.7139315076 5.9478556300 1.4886304167 3.1761586783 0.3502112379 3.9631711768 8.1920267890 2.7335571703 3.5236884025 6.6849960280 3.3160776098 0.9482151918 8.1819643068 0.2991858953 3.5580578029 6.6146849808 5.7732348684 1.0536331706 1.6737279753 3.5341937546 1.4338842607 3.1646814632 2.7801600614 3.9004663885
5.0137550720 0.0243135383 2.4988721525 2.6700918159 4.6241822694 4.9554132156 2.1323179176 1.5923138355 2.3760730305 7.2709747676 1.5397644359 0.0454236086 7.7943429287 4.4228926005 2.5660457910 1.0104362370 4.5973016963 2.2162772928 3.8896873252 1.6233993921 4.6684927110 8.9337983832 1.3768320524 2.7716366484 6.0186592588 4.5241919284 0.2633587098 1.1918577653 4.6308132766 3.7412768152 3.7496730738 1.5619606180 1.1641800855 8.7538971909 1.4367349813 1.2396427482 6.1326854351 4.5240590290 3.7631383981 4.5258597071 4.5851311037 0.6820089052 0.3882344658 1.5483192629 3.2263550533 5.3944047898 1.5575889211 4.3076493663 9.5615802097 4.4729011277 1.7672579865 1.8069097707 5.7989110367 1.5484804945 3.1882562091 0.4099571486 3.9457721221 8.1526794630 2.5756247271 3.4815294575 6.7696221697 3.3228698395 0.9711549488 8.1969441929 0.1569918274 3.4322319040 6.7179869061 5.7503395526 0.9623587130 1.7353213275 3.3873922445 1.4991534269 3.1603047270 2.8254481039 4.0030651482
4.9016056368 -0.1379849809 2.4965475705 2.6187979318 4.6497286527 4.9487993298 2.2228991717 1.7214129158 2.4777872073 7.3021888462 1.4821249536 0.0109756296 7.7428147204 4.5964406235 2.5494225415 0.9938123391 4.7813757159 2.1775998485 3.9266729076 1.5338884885 4.7363944158 8.9501416221 1.5899565899 2.7986261493 6.0015937234 4.5766451612 0.2893894593 1.1591371479 4.7187511030 3.7059134671 3.7784397510 1.5638830662 1.2800484056 8.7402905430 1.5837206683 1.2779904221 6.1861696970 4.6686739110 3.7519047634 4.5006721963 4.6067562515 0.6668886155 0.4665083768 1.6287071323 3.1608704591 5.4209603307 1.4789437359 4.3234939677 9.4806682072 4.7069364058 1.7813102620 1.7543598540 5.9831928022 1.5335686839 3.2311605218 0.3075121330 4.0219145363 8.2714850642 2.8202079242 3.5073038538 6.7359800883 3.3746353990 0.9527694093 8.1887330985 0.3822690098 3.4661468804 6.6998625821 5.8047246883 1.0183961020 1.7275335655 3.5576543031 1.4733168873 3.1712725744 2.7372013117 4.0282493001
4.9385278358 0.0515406342 2.4092244353 2.5718645177 4.5461360856 4.8035357967 2.0840183403 1.6526463854 2.3289017191 7.2903707856 1.4660308905 -0.0269480191 7.7130043434 4.4351549313 2.5100522171 0.9065640650 4.5927627040 2.0686569343 3.8421590279 1.5569756131 4.6001960225 8.9186197346 1.4256505721 2.7187942647 5.9668304880 4.4585504216 0.2982490140 1.0777481117 4.5331230396 3.6023754237 3.7089834374 1.5628457757 1.1280879646 8.7725078898 1.4474830483 1.1940344362 6.0923245050 4.5074768106 3.7616673555 4.4698788604 4.5247702737 0.6921303983 0.4201499758 1.5388264406 3.2989847226 5.3485371147 1.4586502369 4.2366141927 9.3979103104 4.4484225134 1.5231377619 1.7000754048 5.7770382914 1.4176150766 3.1183479355 0.3616019009 3.8656182976 8.1825460033 2.6521218307 3.4003123294 6.7032340670 3.2472009969 0.9806487052 8.1555517029 0.2260990197 3.4045156817 6.6725262078 5.6799839448 1.0392256753 1.6215330169 3.3592296121 1.3638649663 3.1614197861 2.7737202967 3.8576345787
5.1896858197 0.2140760776 2.3809322590 2.7054591658 4.6894988534 4.9319147994 2.1525894878 1.5238544879 2.3334263851 7.4235191859 1.5847788679 0.0192007152 7.9632002656 4.4591148132 2.5914899375 0.9811513389 4.5521762925 2.1576109265 3.9792420328 1.7126728386 4.6014369363 9.1549816486 1.4426773884 2.7441346344 6.1609076145 4.5827800010 0.3044395240 1.2522877679 4.5925972401 3.6684395703 3.8053146336 1.5667332039 1.1705161075 8.9055406892 1.5388302513 1.2258423978 6.3178439322 4.6267372544 3.7362972084 4.6540720799 4.6623278574 0.6863569702 0.4203583209 1.5214713148 3.2004925755 5.4982467219 1.6160176308 4.2832002149 9.7105584332 4.5036764360 1.7456506948 1.6773241270 5.7714231454 1.4286690324 3.2606462426 0.4937005248 3.8502829421 8.4016078578 2.6535485867 3.4631360598 6.9023686354 3.3961722609 1.0109102114 8.4315857305 0.2351100933 3.4229109963 6.8718057703 5.8142975258 0.9972499949 1.7335168026 3.3565908785 1.4479970793 3.2992361569 2.9368335199 3.9470088715