-28927.8614046138
-28927.8363999499
-28927.8378703163
-28927.8675761525
-28927.797449595
-28927.7696322279
-28927.8541719677
-28927.857310255
-28927.841682085
-28927.7919190201
-28927.8135686582
-28927.7896947628
-28927.8640228918
-28927.8615123708
-28927.6260918434
-28927.8115893031
-28927.8515373629
-28927.8001285544
-28927.8516806308
-28927.8262050741
-28927.677225545
-28927.8334328221
-28927.8105786728
-28927.8665904206
-28927.7990878556
-28927.7793605648
-28927.8602588791
-28927.8009619026
-28927.8616050255
-28927.8262849395
-28927.8704438227
-28927.821662408
-28927.781105766
-28927.8503597909
-28927.8349023722
-28927.6149304198
-28927.8160050282
-28927.8122954382
-28927.8624253123
-28927.7985139678
-28927.8632613816
-28927.8588632079
-28927.8484611175
-28927.6309973731
-28927.8212085224
-28927.8670370953
-28927.8399938916
-28927.86620606
-28927.7795749904
-28927.8002810741
-28927.8596882566
-28927.8168065391
-28927.8479647821
-28927.8301192936
-28927.8256241114
-28927.8584338125
-28927.8154452903
-28927.8548009586
-28927.8450960235
-28927.6448335384
-28927.8151511354
-28927.796846455
-28927.8466511533
-28927.835880757
-28927.8365828103
-28927.8328703631
-28927.825912824
-28927.739795505
-28927.8629960708
-28927.8270981513
-28927.851848797
-28927.8666130061
-28927.7990892161
-28927.6405610812
-28927.8371788754
-28927.8282611652
-28927.8256234311
-28927.799751949
-28927.7935650359
-28927.8463863866
-28927.7627171385
-28927.8212960069
-28927.8451118061
-28927.7765796988
-28927.8579849609
-28927.8633921323
-28927.8550130712
-28927.8327441024
-28927.8181400323
-28927.8465757778
-28927.8566077935
-28927.6429809883
-28927.8183654785
-28927.8164873497
-28927.7964570603
-28927.8533409325
-28927.8641363632
-28927.8600810528
-28927.846995105
-28927.7978289215
-28927.8500378804
-28927.6183040854
-28927.810583843
-28927.8075289586
-28927.8419559674
-28927.8152296402
-28927.84386226
-28927.817038516
-28927.8567359591
-28927.8069047297
-28927.8664655204
-28927.8558283238
-28927.8202132665
-28927.8540930548
-28927.8592100168
-28927.8629994722
-28927.8682624232
-28927.824761647
-28927.7970151655
-28927.7962038585
-28927.815255627
-28927.8600000989
-28927.8185098348
-28927.8269781492
-28927.8572946085
-28927.8541578178
-28927.8466884328
-28927.8594909742
-28927.7967331197
-28927.8596806375
-28927.8129832055
-28927.8008123761
-28927.7969102657
-28927.6408104734
-28927.8241014992
-28927.7965629125
-28927.7862880353
-28927.8005131871
-28927.8660294582
-28927.7967089015
-28927.8395772855
-28927.788852979
-28927.8132868844
-28927.859212738
-28927.8617654366
-28927.8572950167
-28927.8330102296
-28927.8544624491
-28927.8566012628
-28927.8301503146
-28927.7836870365
-28927.8437720543
-28927.8531349424
-28927.838719311
-28927.8575913485
-28927.8241570104
-28927.7797588032
-28927.8249740318
-28927.6504049303
-28927.8254983949
-28927.7187378503
-28927.8278407496
-28927.7946007007
-28927.8548876268
-28927.7998788901
-28927.7978289215
-28927.8493012686
-28927.7879862969
-28927.7359699946
-28927.8458418871
-28927.7892694491
-28927.7793215164
-28927.8648495732
-28927.8434106873
-28927.7239500522
-28927.8001256972
-28927.8522824102
-28927.8424079483
-28927.7823153114
-28927.8365658032
-28927.7845195684
-28927.8614500568
-28927.8197600612
-28927.84895514
-28927.8249013774
-28927.8181374472
-28927.7801281975
-28927.7866238236
-28927.8446391446
-28927.8639642513
-28927.8015313005
-28927.8159704697
-28927.8210648464
-28927.835100471
-28927.8217143817
-28927.8520735629
-28927.8137985942
-28927.8656546216
-28927.8706794732
-28927.8597254002
-28927.7809756956
-28927.725665457
-28927.8115528399
-28927.8592403575
-28927.8580249617
-28927.8564084702
-28927.8556387966
-28927.8562725494
-28927.7934327887
-28927.8494635844
-28927.7994029632
-28927.8509173518
-28927.8163723817
-28927.8285308299
-28927.8149070494
-28927.8656260497
-28927.8423279469
-28927.8448703052
-28927.8342385508
-28927.744462255
-28927.7803888824
-28927.6159952007
-28927.8300639185
-28927.8012234039
-28927.8197015567
-28927.7991045905
-28927.8440781822
-28927.8665379027
-28927.8013659914
-28927.8629802882
-28927.7817091781
-28927.811373653
-28927.8661479637
-28927.8593033518
-28927.8077529081
-28927.824926684
-28927.8408071034
-28927.8148953485
-28927.8041691707
-28927.784559433
-28927.8517002229
-28927.8437483804
-28927.7959788205
-28927.799009895
-28927.8629549816
-28927.8610720909
-28927.8118448179
-28927.7287574849
-28927.7990485351
-28927.8327242381
-28927.8070831003
-28927.8511142261
-28927.8411528239
-28927.8204795298
-28927.8621579606
-28927.8339718794
-28927.8047523104
-28927.7952857469
-28927.799273165
-28927.8017847744
-28927.7912347902
-28927.7979989926
-28927.8575238643
-28927.828968933
-28927.8286945063
-28927.8369717969
-28927.7964001885
-28927.7816932594
-28927.6369991129
-28927.8332315941
-28927.7985440363
-28927.8043461807
-28927.8616006717
-28927.8302855551
-28927.8064254014
-28927.8005591743
-28927.8220913953
-28927.8641585405
-28927.8602173817
-28927.8081095131
-28927.7940645006
-28927.8015737503
-28927.8126374851
-28927.8594327419
-28927.8607704528
-28927.8702008252
-28927.8493441265
-28927.7957667079
-28927.7959295679
-28927.8131568141
-28927.8270429122
-28927.6163522138
-28927.7938096661
-28927.6491970176
-28927.8376074545
-28927.7894924462
-28927.7943687237
-28927.8216651292
-28927.8010802721
-28927.8325368878
-28927.8614693769
-28927.858592999
-28927.8614760436
-28927.8302705888
-28927.7944368882
-28927.8580680917
-28927.8145384714
-28927.8005646166
-28927.8164863973
-28927.8363468878
-28927.8184654802
-28927.8533394359
-28927.7958654851
-28927.8209902872
-28927.8433588496
-28927.6477427059
-28927.8311293797
-28927.8608500461
-28927.8218123427
-28927.8663101435
-28927.8234772704
-28927.7499282028
-28927.8176634251
-28927.8336713298
-28927.8291981888
-28927.8461220282
-28927.8322517126
-28927.8308048841
-28927.8217407768
-28927.8259620766
-28927.8146918075
-28927.8020360714
-28927.8587021166
-28927.80315269
-28927.8347133892
-28927.7891978832
-28927.7929872025
-28927.8237370029
-28927.796102224
-28927.8273148898
-28927.8632740349
-28927.8232706
-28927.8135248479
-28927.8166200051
-28927.8202121781
-28927.819515567
-28927.6184918439
-28927.8103306412
-28927.8221256816
-28927.8507314982
-28927.8632133536
-28927.8428444187
-28927.7911022709
-28927.8303461004
-28927.646196828
-28927.8569999093
-28927.8543291134
-28927.8024355343
-28927.8282248381
-28927.8404198856
-28927.8105200323
-28927.8385503284
-28927.8220154756
-28927.7966035935
-28927.8108801748
-28927.8597281213
-28927.8575555655
-28927.8228744024
-28927.860928823
-28927.7997236492
-28927.6277267025
-28927.8127131327
-28927.785684079
-28927.8159953681
-28927.8267356958
-28927.8624945652
-28927.863305328
-28927.8667957304
-28927.8234153645
-28927.7975578963
-28927.7881370479
-28927.8302412006
-28927.7794857371
-28927.8575716202
-28927.8640779948
-28927.8468389117
-28927.8476072247
-28927.8462512822
-28927.8072625592
-28927.8592263436
-28927.8700346998
-28927.792543249
-28927.8425984279
-28927.8487238433
-28927.8138274383
-28927.8093662702
-28927.7799193502
-28927.8532156241
-28927.8355842891
-28927.8200714953
-28927.8696771424
-28927.8029903742
-28927.7818321735
-28927.8186509257
-28927.8246474953
-28927.8473472201
-28927.7306007831
-28927.8388559121
-28927.8147833737
-28927.8017662707
-28927.8066561539
-28927.8092666766
-28927.8161559152
-28927.8492884792
-28927.8523411868
-28927.8598440417
-28927.857441822
-28927.8070039152
-28927.86054351
-28927.8291764197
-28927.8402994753
-28927.7995946673
-28927.7967185616
-28927.8302025604
-28927.85866715
-28927.8544371425
-28927.7980770892
-28927.8479649182
-28927.8604791551
-28927.8210777718
-28927.8532295019
-28927.7968282234
-28927.8449509869
-28927.7991187405
-28927.8608680056
-28927.8515332812
-28927.7974026554
-28927.8327989333
-28927.8330936324
-28927.8615718277
-28927.8662710952
-28927.8248721252
-28927.7969927161
-28927.8302716773
-28927.7992697636
-28927.8207732765
-28927.8439309687
-28927.8156150892
-28927.8657773449
-28927.829816159
-28927.8663704167
-28927.8511057906
-28927.7931155041
-28927.844458325
-28927.8307052905
-28927.8301074567
-28927.8322393315
-28927.7935952405
-28927.8546561941
-28927.8335008506
-28927.8674494836
-28927.8616609449
-28927.7816717625
-28927.8449029588
-28927.8455841954
-28927.7934563265
-28927.818570244
-28927.8016806909
-28927.858351362
-28927.8416856225
-28927.8271222334
-28927.8016396018
-28927.8623352427
-28927.82401728
-28927.8461417564
-28927.7998458283
-28927.8430052379
-28927.8550600108
-28927.8350497218
-28927.849577464
-28927.8267498458
-28927.8007648923
-28927.8590930079
-28927.8251702257
-28927.8236125109
-28927.8481615203
-28927.8267327026
-28927.8252174375
-28927.8030756818
-28927.8225616078
-28927.8390721064
-28927.8166669447
-28927.8124951696
-28927.8012677584
-28927.6492507601
-28927.7965322997
-28927.8243010946
-28927.8147259577
-28927.861055764
-28927.7968831904
-28927.7999333128
-28927.8091251775
-28927.8318991893
-28927.861115493
-28927.7930801293
-28927.7962699821
-28927.7854420338
-28927.8166806865
-28927.8383850194
-28927.8552411025
-28927.8186077957
-28927.8604577942
-28927.6620484034
-28927.6243292269
-28927.8322325286
-28927.8534994387
-28927.8077907319
-28927.8523475814
-28927.857784141
-28927.6556976778
-28927.8429351686
-28927.8620326522
-28927.8507728595
-28927.8228395719
-28927.8574216856
-28927.8415152793
-28927.8241410917
-28927.8246597404
-28927.8154614811
-28927.6212437297
-28927.8188181396
-28927.8073060974
-28927.8050747651
-28927.8248393355
-28927.8287437589
-28927.8595098861
-28927.8465239401
-28927.8229052874
-28927.8081341394
-28927.8302066421
-28927.7953989462
-28927.7938898036
-28927.8020800178
-28927.8186079318
-28927.8383516854
-28927.8391672102
-28927.8187487506
-28927.8589738221
-28927.8705559336
-28927.8171619196
-28927.8330781219
-28927.8649533846
-28927.8070018743
-28927.8057698795
-28927.6360535178
-28927.8433625231
-28927.8032970463
-28927.826669028
-28927.7822908211
-28927.8247308982
-28927.8257133647
-28927.8595294783
-28927.8520708418
-28927.8089717054
-28927.7941714413
-28927.8453645997
-28927.8350201974
-28927.8233482885
-28927.8352328543
-28927.8229851527
-28927.8326718562
-28927.8136240333
-28927.8574476724
-28927.8282232054
-28927.7833313839
-28927.8260622144
-28927.8353199307
-28927.8707187936
-28927.8623712977
-28927.8177148546
-28927.8580823776
-28927.6332183651
-28927.8611650177
-28927.7560741628
-28927.782470008
-28927.8141768323
-28927.7969221026
-28927.8459209361
-28927.8084269338
-28927.860857121
-28927.838453456
-28927.857006168
-28927.8605360269
-28927.8617167282
-28927.8569829022
-28927.8338758232
-28927.8186427623
-28927.8297738453
-28927.8364467535
-28927.8596519295
-28927.8119812829
-28927.7985784587
-28927.866610421
-28927.8586595308
-28927.8310677459
-28927.8347052258
-28927.8531828344
-28927.803775014
-28927.8557539007
-28927.8120550257
-28927.7928063829
-28927.8097385218
-28927.8471657203
-28927.8135904273
-28927.8519581867
-28927.7842422845
-28927.8218709832
-28927.7141361356
-28927.7871088663
-28927.7973863286
-28927.794704512
-28927.8176660102
-28927.7843561641
-28927.8238601343
-28927.8132640269
-28927.7966844113
-28927.8439266148
-28927.8294569689
-28927.8640703757
-28927.8512912361
-28927.8175672329
-28927.8309176752
-28927.7271920148
-28927.8330223386
-28927.8394926582
-28927.7896927219
-28927.8436727328
-28927.8624137475
-28927.779277298
-28927.8183735058
-28927.8056471563
-28927.862362454
-28927.8644643963
-28927.8587121848
-28927.8300727622
-28927.8252822005
-28927.8172771597
-28927.825568192
-28927.8478412425
-28927.818065201
-28927.8004153622
-28927.8411809876
-28927.8346977427
-28927.7955309213
-28927.8520294805
-28927.8351955747
-28927.7952804407
-28927.8009311537
-28927.857645227
-28927.8108273848
-28927.8254271011
-28927.7978098736
-28927.8485441122
-28927.8350939402
-28927.8366492061
-28927.8174596119
-28927.8617395858
-28927.8616465229
-28927.6307185926
-28927.869489656
-28927.8192297116
-28927.7904905593
-28927.7907169579
-28927.8294402339
-28927.8526341172
-28927.8126676897
-28927.8284366786
-28927.8320631378
-28927.8008405399
-28927.8604316713
-28927.8179034294
-28927.8439668877
-28927.7879009893
-28927.7965948859
-28927.7830315146
-28927.8590082445
-28927.833209961
-28927.7862366058
-28927.8091421846
-28927.8243488505
-28927.8154059699
-28927.7833655342
-28927.8668798135
-28927.8649008667
-28927.8568517434
-28927.8442813151
-28927.7975659236
-28927.7986233575
-28927.8611017512
-28927.8615711474
-28927.8365096117
-28927.8222048667
-28927.8003934571
-28927.84584869
-28927.798564853
-28927.8453141226
-28927.8449964298
-28927.8535559023
-28927.8086268013
-28927.8444225421
-28927.795429559
-28927.8200920399
-28927.8564767708
-28927.7997228329
-28927.7901238861
-28927.8171952535
-28927.8229987584
-28927.8044516247
-28927.8010089783
-28927.8573467183
-28927.805933692
-28927.8422620953
-28927.8147152092
-28927.850764696
-28927.848395266
-28927.8387327807
-28927.7952269703
-28927.7218536883
-28927.8459867877
-28927.7907203593
-28927.8009734674
-28927.8486454746
-28927.825881667
-28927.8559299583
-28927.7951341796
-28927.8331208438
-28927.8548032715
-28927.6936337289
-28927.8020753918
-28927.812993954
-28927.8573502557
-28927.8093538891
-28927.8500151589
-28927.8585444267
-28927.8557434243
-28927.8549649071
-28927.859282263
-28927.7991848641
-28927.8164310222
-28927.802492134
-28927.8071599724
-28927.7894255063
-28927.869018083
-28927.8109286111
-28927.8431521793
-28927.8135406305
-28927.8007628514
-28927.8649645413
-28927.8536650199
-28927.8121850961
-28927.802556897
-28927.8443871673
-28927.8148779332
-28927.838085014
-28927.8435523225
-28927.8633759415
-28927.6693094853
-28927.8398342969
-28927.861694687
-28927.8625361986
-28927.790216949
-28927.8000963089
-28927.8245081731
-28927.8536663805
-28927.7837737047
-28927.8295184666
-28927.8600603721
-28927.7997617451
-28927.8212885238
-28927.8579546203
-28927.8595787309
-28927.8457764438
-28927.8001930453
-28927.8601490812
-28927.8599543838
-28927.8205633408
-28927.8177139022
-28927.8311145495
-28927.8621627226
-28927.8216882588
-28927.8000496414
-28927.8138017236
-28927.8035989565
-28927.8265774617
-28927.7853938697
-28927.8156590356
-28927.8368298896
-28927.8508781675
-28927.804665234
-28927.8630336225
-28927.8664483773
-28927.7938062647
-28927.8352883655
-28927.8053742262
-28927.8344367856
-28927.834835024
-28927.8538576764
-28927.862369529
-28927.7961276667
-28927.8666312377
-28927.8184381328
-28927.8050931328
-28927.8188495687
-28927.8189313389
-28927.8626266764
-28927.8331269663
-28927.8448772441
-28927.8230446096
-28927.8506754428
-28927.8574222298
-28927.846083252
-28927.8638130921
-28927.820559123
-28927.8545536072
-28927.8522002319
-28927.8008684315
-28927.8038268517
-28927.8106635723
-28927.852995212
-28927.8508804804
-28927.6217472761
-28927.8590497418
-28927.8343309334
-28927.8077261049
-28927.8603436425
-28927.8345167871
-28927.845843928
-28927.8492876629
-28927.8405019279
-28927.793163124
-28927.838690603
-28927.822420925
-28927.8169518478
-28927.8622244924
-28927.7993626904
-28927.8591777713
-28927.8595983231
-28927.8625751109
-28927.8454456896
-28927.8005672017
-28927.82124104
-28927.8176783914
-28927.8122278179
-28927.8244919823
-28927.8256525473
-28927.7891316235
-28927.7966807378
-28927.8575299868
-28927.8573480788
-28927.8444545154
-28927.821006614
-28927.8101895503
-28927.8640984034
-28927.8089815015
-28927.8637416623
-28927.8290996836
-28927.8478841004
-28927.8472500755
-28927.8293297557
-28927.8287705621
-28927.8468711572
-28927.7853829851
-28927.8656406077
-28927.8287387248
-28927.8561944528
-28927.8049743551
-28927.8603278599
-28927.8479885921
-28927.7818870044
-28927.8157933237
-28927.8607543981
-28927.7830983185
-28927.8456074612
-28927.8438723282
-28927.8096732145
-28927.8637272403
-28927.8229384852
-28927.8115441322
-28927.8412303763
-28927.855615667
-28927.7913320709
-28927.8131466098
-28927.8591399475
-28927.8632303607
-28927.7947736289
-28927.8080714172
-28927.8491501094
-28927.7805811308
-28927.8138534252
-28927.8459149496
-28927.8144919399
-28927.8276308139
-28927.8464876129
-28927.8023764857
-28927.8210120563
-28927.8331747223
-28927.8299533043
-28927.8164062598
-28927.819829178
-28927.8613065168
-28927.7329444984
-28927.7082850108
-28927.835990963
-28927.8281056523
-28927.8682017419
-28927.7991096246
-28927.8178839733
-28927.7962027701
-28927.7871979835
-28927.8545391852
-28927.8356704131
-28927.6352622111
-28927.8307478763
-28927.8149097705
-28927.8307403932
-28927.8096294042
-28927.8663378991
-28927.8607553505
-28927.7948643788
-28927.7981713766
-28927.8666270199
-28927.7898653781
-28927.8077289621
-28927.8599425469
-28927.7914305761
-28927.7013586287
-28927.8172472272
-28927.8587017084
-28927.819285767
-28927.8328615194
-28927.8147968434
-28927.8136006315
-28927.7993484044
-28927.8620451694
-28927.7823368083
-28927.8060015844
-28927.8033382715
-28927.8457031091
-28927.8518139665
-28927.8158699237
-28927.8371386026
-28927.8214202268
-28927.8581018338
-28927.8217903015
-28927.7943332129
-28927.7958442603
-28927.7957765039
-28927.8530963023
-28927.8603467718
-28927.7936507517
-28927.8404192053
-28927.7922391619
-28927.8144454085
-28927.8152786207
-28927.863449004
-28927.8418258971
-28927.8156964512
-28927.8580427851
-28927.8414305159
-28927.8688594407
-28927.8090594621
-28927.8496328391
-28927.8668301528
-28927.8652517573
-28927.8058991336
-28927.794500971
-28927.7918598354
-28927.818371601
-28927.8252873707
-28927.8557777107
-28927.8289224015
-28927.8274142114
-28927.815621756
-28927.7829350503
-28927.6150927356
-28927.8019051847
-28927.7873623402
-28927.8445938376
-28927.6854606579
-28927.8458639283
-28927.850072983
-28927.830708964
-28927.800070186
-28927.8274701307
-28927.8354683687
-28927.8513955917
-28927.8462467923
-28927.8056085161
-28927.6386681222
-28927.8028339088