-0.0732908003858583 0.0373090015758009 -0.116104530984242 -0.494381487578382 -0.26946895549929 -0.0418068871209226 0.00751713042658754 0.199317984670825 0.186358860106359 0.263855983089576 0.071700316792505 -0.00243071967209216 -0.0048547544794208 -0.180054261303802 -0.133862102898005 -0.175201563705847 0.030427447522115 0.0160917550367286 -0.255777838243218 0.0593484864807872 -0.104663642051646 -0.154940509938142 -0.135658017527745 0.273030188646968 0.532233505861128 0.040447031361911 0.562708261656954 0.0423992689830445 -0.127457231123995 -0.0148596830387737 0.0271269241002145 -0.0156176438588845 0.229908182938913 0.003506725788837 0.0653111287396712 -0.139178627266475 -0.0718622962079289 0.0695753011282526 -0.103271133299367 -0.0352405501518554 0.0984132934977472 0.0751921301907156 -0.153151023062982 -0.145350300104311 -0.240263038457619 0.0931116815199028 0.224898133908832 -0.156295480603673 0.200906668492895 -0.105917568415174 0.0308753334612714 -0.119841370387054 -0.0677559894718401 -0.0256477692161923 0.0414510466273563 0.0756027351533062 -0.154388494374785 0.1639054278064 -0.112130378882324 -0.112729702719393 -0.121842201832814 0.0765260178212228 -0.184603311775383 0.192261852802737 0.149445551102522 -0.026017493659652 -0.0482829784156822 -0.115301575882068 -0.0999166167389914 -0.00126215388939078 -0.0175194878841083 0.28001227278229 0.141652798559531 0.0939094944184116 0.00186224905700905
0.0816260554154284 -0.103133579351348 0.0622474037965096 -0.342625287259328 0.0589620498754186 0.292492915295798 0.0212560701767374 -0.29065637725711 -0.0981862652059704 -0.09493536404943 -0.0217337808971465 0.0648884395984697 0.186289440356891 0.131509287611426 -0.070728183189778 -0.0552673765426532 -0.0940156809240784 -0.0889251564066516 0.311306952952382 0.0650735589303828 0.0658623729724791 -0.136251684940783 -0.124383478883688 -0.0325056691330226 -0.239212743359195 0.303015920874324 -0.178716259910363 0.102972628376657 0.0638021490743963 -0.0874591141419732 0.154087418350243 0.058933510645082 -0.360251732979653 -0.0109004433274825 0.1126422852571 0.0739479740141497 -0.135695812724677 -0.000682113316063096 0.051121989058716 0.340251131827543 -0.148499128518116 -0.271643079208536 0.0453663204973182 0.0654887918762711 -0.320358259842199 -0.222106174429326 0.20728634346895 0.182908184337462 0.270236172285997 0.179609717797027 0.379301797784426 -0.254544480694347 0.0719597409673665 -0.00778015414401406 -0.0311681819599506 0.00785754430916106 0.0467922535734154 -0.0908367706188375 -0.109784762680875 0.123943820470394 -0.0161256935809127 -0.124938065548878 0.117519151212277 -0.124709494596002 -0.0745341852318745 0.170819377743171 0.120094881027701 -0.121604889133709 -0.204448104156466 0.0315857288974879 0.0605972706406509 -0.00686998409544136 0.0893067079185392 -0.172771615364304 0.0960262825568012
-0.117535606264003 -0.0993365761656637 -0.106610994579299 0.122686551674485 0.1889695569067 -0.249372452248842 0.0928854245586757 0.0576600439076299 0.107154268396427 -0.042531680727399 -0.0507304102496832 0.00512034929867944 -0.234881979433161 -0.0563891482720099 0.103328983090589 0.153543116092382 0.016677452034087 0.0547909513731602 -0.00944597102104866 -0.215424137877813 -0.188636856329623 0.233722926727239 -0.115354026359444 -0.0331168200385191 0.314323369621832 0.000994759298849649 0.195976066509427 -0.0754050174224157 0.0430122196598234 0.190564925593534 -0.190824092658212 -0.0158030203009808 0.1275521047816 0.11965136596166 0.127122730775635 -0.0138579817649773 0.158669121815092 -0.0416006847539861 -0.0601905223308086 -0.319238802104491 -0.0529137899255248 0.0317880746116762 0.0105991101927573 0.140794564767967 0.162565883751862 0.380531555790732 0.0441625306195167 -0.0463495098379233 -0.350691090816892 -0.164606053055654 -0.204166825616032 0.1805198878456 0.0126346515132516 0.0136150126418414 -0.187624099317948 -0.0404341758527504 -0.106153595563363 0.271191593726815 0.154333987015944 -0.138043742917775 -0.123207714015857 0.0571998166796793 -0.246974128459834 -0.0416096836103985 0.10104815865531 0.0566755690161088 -0.14958541904219 -0.0308403664763545 -0.0441131654643399 -0.101682963697662 -0.024550680064424 0.163344927606997 -0.094059903875591 -0.0366276595902875 0.225109735589616
0.130999952338482 -0.0369511042007689 -0.0724094266778054 -0.194670460999073 0.0600588819170037 -0.0408632927485323 -0.0841439354396296 -0.289708926231971 0.306759959362266 0.228827805949054 -0.109427636636393 -0.0901202045382239 0.0488177675967645 0.11010846440154 0.0596883861429943 -0.390746286259587 0.0439409016415874 0.0832466209002176 -0.0978746476639167 0.0296923695083101 -0.21357834387253 0.173784372375979 0.0611433726697946 -0.0901369167001327 0.0157292296783988 0.0425031414970624 -0.215173198338998 0.0816962464954454 -0.161884798876532 0.00411196316011953 -0.130520698956973 -0.0704001105959987 -0.0195416594750756 0.0337151154348548 0.125522734105503 -0.351626457663419 -0.104080001935753 0.0748005513816828 -0.276800966593965 -0.0389822746481487 -0.00503421738730321 0.0557535718991083 0.131406700648324 -0.0155340830493404 -0.236535712131585 -0.140166444590378 0.0401369564809566 -0.0100537794941633 0.158829301459233 -0.0266630973296989 0.216767795695282 -0.0274971627640407 0.284924877052934 -0.232651805703975 -0.0188502901924169 0.154031111220119 0.279403950088809 0.0811444880422711 0.0181982587677897 0.290836097275176 0.0469871430922906 -0.108510010392507 0.123574353137118 0.107803471609039 -0.00179437196864092 0.240981661419698 -0.0203366441615691 0.0306264508039216 0.15172226177487 -0.223141557137123 0.0449068645999172 -0.0953341419435928 0.231268552918291 -0.294686836489151 0.131979027916155
0.00948505176889698 0.143571354746663 0.0472419392838543 0.248696509577176 0.154405977867243 -0.0706376804052872 -0.169979912994982 -0.195508383086163 -0.251331117624556 -0.237108553619783 0.157596715240912 0.177793491462813 0.102096396872268 0.021814256384492 -0.101308611270905 -0.341153074350253 -0.0966484892001757 0.175187165535587 0.177826915786631 0.0434752750997893 -0.334629417671599 -0.0192596096040914 -0.0602967088364754 0.0363720920681741 -0.0491928913540717 0.462241686236071 -0.0054350521629317 0.0386459745285066 -0.137288867419863 -0.0712056368000039 0.0387876422394567 0.0137291695631878 0.090324607133878 -0.0214239631263753 -0.0474152315473396 -0.230424717296987 -0.174408378790636 -0.158411240301329 -0.0383374423086514 0.191530117221314 0.0163447514570098 -0.0504956686524101 -0.00319228003476796 0.06311257956302 0.127148441793957 0.17070804903384 0.0563621517027726 0.0955526855993235 0.287990401767378 0.00784443168981721 0.0750805443712014 0.309838596696054 0.0612403032088657 -0.263534081140193 -0.152261936049433 0.00566053779360917 0.0509461256933986 -0.250903543389873 -0.235571806054721 -0.0650470765815119 0.105488708629575 -0.189470664653781 0.144562257392765 -0.148768837100306 -0.0207336222844494 0.190666741226086 -0.080754966114704 -0.120482603183986 0.0363980601966786 0.0176087051176831 -0.186244446074829 0.195937242871762 -0.050294865599321 0.240672357869293 0.039174850175375
-0.0904385069450411 -0.214844097304486 0.111318167813555 -0.156089278236736 0.0559744295464879 0.0435634638926313 -0.00601303585479368 0.00491363271137649 -0.327931954509093 -0.220394334829496 0.306876944495628 0.17964597033286 0.0525592349828746 -0.334430671499976 -0.296312801287788 -0.326538931536447 0.313663624891709 0.0921369768153437 -0.0389120835681316 0.501663619297513 0.117306006870394 0.206733556575043 0.338207620091369 0.020204746637581 0.604147481215883 -0.150789980250541 0.260972492384846 0.106909756612192 -0.118557876352456 -0.103688423126721 -0.0279507051272278 -0.22791197947645 -0.076678741270051 0.0923773748366476 -0.106657017302094 -0.0863748804993656 -0.147255486561917 0.163515391658467 0.100926545538651 -0.0509497252359636 0.0621036792040937 0.01454806549672 0.129385300387906 0.0196645581426513 0.0512482301586734 0.198957001973594 -0.23315317056124 -0.115391564446193 -0.0462327818147447 0.193158653121783 -0.165467372169417 -0.00638147474733737 0.198938747150586 0.248221369958599 0.0857555020680064 -0.342872370145396 -0.0648925533614011 -0.134242883079343 0.174623065793618 0.0946250320582923 0.0948674869610618 -0.333743930200615 -0.109412724245767 -0.161445140463238 -0.330351361333124 0.119226619938992 -0.112897852779214 0.15272267749775 -0.0348055197218596 -0.0411057476513018 -0.0331718416177266 0.0217312097953144 -0.0048444700720923 -0.0595415762283799 -0.0947183630547985
-0.00465575119761423 0.0604540602686015 0.0650897568719251 -0.331272330009392 0.0417773194498531 -0.167011833039975 0.25326741441433 -0.0351958129799763 -0.0658382046152571 0.27669812252068 -0.00285238037256087 0.270774818119827 -0.281367243447821 -0.211767516852163 0.0168314610338313 0.261509081337211 0.305476979548035 -0.11282714747883 0.227249149424128 -0.106477297284028 -0.373503448932615 0.000264823488709005 0.0256817077603763 0.0736648957024326 -0.149327537528427 -0.114758044954757 0.0388570619889241 0.0529415578253118 -0.0433667746024736 -0.0665591415689853 0.130142232767284 -0.142787682908231 -0.01255289047499 -0.185513738934139 0.124689182891528 -0.181795925684884 -0.0429759671239904 -0.0306166806169595 -0.12764492155774 0.0437570678605904 -0.167216749855995 -0.0324172232299975 0.0861581366149173 0.237713533880882 -0.15578948776311 -0.158677349340955 0.0855714111768261 0.223449832246795 -0.045314127130126 0.0375851379125713 0.335909826383998 0.031335560689222 -0.0798856765852621 -0.17472642408727 -0.111634413338907 0.166772720569587 0.160184015014581 0.0509957479587586 0.0410386418934833 -0.0960350243030304 -0.153279578154589 -0.0338207877201552 -0.0604754004138082 0.0204330604802738 0.0492857081302115 0.0588985436601651 0.120724543866389 0.0874506295059272 -0.023850569035536 -0.193372311684033 0.000222914528845347 0.0686003393135103 0.101913848642187 -0.294974285673983 0.33876632051949
0.0540098506365602 0.152141351373506 -0.0569969567451245 0.446860326635559 -0.0845892502769539 -0.142748087940016 0.32066164985839 0.0255636941862818 0.197078040754676 -0.448796623425333 -0.246043646706788 -0.183976220038527 -0.0730344615331953 0.233433163550758 0.40120424296176 -0.129525682547941 -0.00329949498116763 -0.0737384292148315 -0.209391304538912 -0.331751069170534 0.324548127387832 -0.0282831485941217 -0.097514693407419 0.0650002825281672 -0.126883361195064 0.156322991393277 -0.223484799231712 0.167034715846281 -0.0321104907814248 -0.0746465423819385 -0.0854253725927614 0.102277145331067 -0.434434191480893 -0.00303595704337469 -0.0568786860608467 0.117796830210147 0.211848249449692 0.015618158079251 0.067828494543506 -0.0929399319175168 -0.0359776850471259 0.0963034473343043 -0.100088109231194 -0.0341522027463163 0.109783220019776 0.017098341404006 0.184635707658468 0.0194629837590126 0.0948695438425275 -0.162071717979728 -0.130767010512491 -0.128555091606313 0.00172109556642532 0.0986202671952333 0.0778671045368598 -0.018877029651471 0.00969382523766563 0.12185145779941 -0.143664171522803 0.0418793921925886 -0.136467657494681 0.139437280110787 -0.294345651276028 0.112815063300219 0.33251828595724 -0.142492777528086 0.122637700739674 -0.244184740082161 0.0262825742585443 -0.222493382365244 0.0492229732455076 0.0943216420421014 0.0373660800364741 0.0982230319621698 0.0878265245937841
-0.213328432774447 -0.0315479337005556 -0.00930687441193063 -0.0575934523701778 0.0313178200865803 -0.324694937302446 -0.148844941714537 0.321833043853107 0.213927499501332 0.161808951372484 -0.0279334787449525 -0.134126669276531 0.0939069233165795 0.00165501824933967 -0.0280347801571383 -0.296860960198397 -0.129913147594042 -0.0381284117296996 0.0438236593980424 -0.304796408893072 -0.0360057100570961 0.138658493365836 0.0283988481765674 -0.0445394541481064 -0.277924280984421 0.000633005271069485 -0.0373766215539858 -0.177716872628216 0.196212607877983 -0.019642446666895 0.132968902121524 -0.0658443752596542 -0.188719645808617 0.17177325652289 0.0234931858808705 -0.0272032858246287 -0.0748272908407369 0.109945713655566 0.0541281213208381 0.285996769406748 -0.171169304702523 -0.0637201309259515 0.113781026258549 -0.00381885755125713 -0.0230609836628901 -0.230618321264946 -0.0612451883023468 0.0577348629709448 0.278064920254638 -0.0177128347418842 0.0576435888559043 -0.0123222626406483 -0.184001931056849 0.206158401095197 -0.0818561690294037 0.106046637727147 -0.066850190296382 0.0837171325354967 -0.0816682214854753 0.0183059879345557 0.0355028025387322 -0.0969135697990679 0.121121521989269 -0.115185876299623 0.17452716369528 0.0769247957153855 0.149558936693319 0.209320856348712 0.107088705299708 0.0533866155524528 -0.111069542266389 0.0838225477106139 -0.0558697857019204 0.0842516646063957 0.0445548807590991
0.161531786594981 0.115849220572311 0.191639646159363 0.0179702020352801 0.235576434038019 -0.00305164076455066 -0.0816638506123606 -0.449579009712849 -0.204434220206573 0.230343470479092 0.187592474765413 0.135188534333199 0.0882492137349856 -0.0790369558704773 -0.277550185667846 -0.00305626874784848 -0.166181367148198 0.0757143209728205 -0.347388253403342 -0.20691173393201 -0.269448900905 0.104025237466729 -0.129868667532346 -0.00857565305087392 0.15569744231752 -0.179317126408531 0.172667485740103 0.0225891864766949 0.210988472997029 0.105130039923994 0.0146606797569671 0.0310568532506195 0.365636391546675 -0.0598123132513028 0.0440640574193462 -0.118847639528937 -0.0254665065370274 -0.0639610431676217 -0.101821803196597 -0.11252941388667 0.0606484355671102 -0.0962011174813857 0.051920059067408 0.134125383725614 0.104037064535157 -0.118625753440825 -0.0331834115759711 0.130456935631537 -0.108045412291442 -0.1116482972888 -0.00211421703655742 0.268642603370445 0.20033562677598 0.0341496316444842 0.110522926016879 0.178009464016712 0.0136708055515985 -0.00203862664269291 0.0843365109668559 -0.0666617285320871 -0.089677717912915 -0.176084994295365 0.0483223162737138 -0.172961619789698 -0.192190890392171 -0.0826128442985984 -0.167148101437078 0.387090950784853 -0.0341079797948037 -0.020975048746486 -0.0760699043562035 -0.114239453715217 0.0832365936030723 -0.00563996897895216 0.00305369764601636
-0.0249466297465714 -0.175995262841424 0.177168713717607 0.207034375489402 -0.183582327237846 -0.282460475946841 -0.128275098616794 0.131026691797536 0.0394391594437175 0.121054159121268 -0.121345207848664 0.246682822622255 0.179276760109767 0.23122767239916 -0.248217513305851 0.331726900813312 0.246315669280627 0.0148427137666817 -0.223662719478495 0.0737430571981293 -0.0517562798807016 -0.138051970443638 0.0945090753656634 0.0811231478970645 0.142260349922462 -0.0301775364240323 0.188895766284118 -0.110750211418839 0.0939010097823656 0.0526744203449539 0.0175187165535587 -0.089636580283601 0.153636961309254 0.0797131556523265 -0.0381597791720515 0.0506759028908421 -0.269584912191919 -0.108410765861787 0.24948275251744 -0.177036044863069 -0.074840660570264 -0.0683195749934422 -0.0673207019316611 -0.0084183016187478 -0.182420446319908 0.0874200333941249 0.0810835529288498 -0.0224678304702185 -0.0804466910050321 0.0715938731766549 0.14911002231343 0.0637574119025173 -0.1243940204012 0.158083424817733 -0.140436410282752 -0.183250912211684 -0.0684712700015376 0.0427448250692823 -0.121321553711809 -0.0629706547418867 -0.127557761205631 0.0127598641724762 -0.24328356889 0.177091580662643 0.136667689217221 -0.129353161615005 0.130213452288034 -0.152896741091785 -0.0326007999008113 0.00856125488061401 0.101274929836904 -0.0449958247233088 -0.100303310454543 0.138326307009126 -0.124498407135584
-0.0950922012611897 -0.193213931811174 0.112584692576061 -0.205418952208277 0.0580433951907999 0.0308781616732867 -0.025801006885387 0.0173875903601202 -0.343022779602575 -0.180963145801459 0.297009055663928 0.162442985084287 0.0352564909832145 -0.318762119824815 -0.260273924017057 -0.18911122461765 0.275855829560475 0.0385140770045185 0.146163025393446 0.415681603158097 -0.207365276295197 0.139782579086842 0.287535573853275 0.0560369073210086 0.30287631004484 -0.0747190474536044 0.247788139299886 0.152452711805377 -0.141031620356889 -0.0800373715933576 -0.091560535784581 -0.191102028766265 0.182912555210577 0.0930432902111683 -0.0977054691633628 -0.0421820108782298 -0.0674001489782738 0.119294497027361 0.0577600597688996 0.124067233358337 0.0315031965286766 0.0219204428901588 0.0818078323149597 0.0085242310142314 0.0354194988393713 0.0759580614265061 -0.228911623868781 -0.101957557373333 -0.100697460365408 0.202847850376151 -0.183548388693661 -0.0262041556526644 0.152958961756123 0.241963308099204 0.0973486002290637 -0.268201659406235 -0.0342527328279524 -0.132362122089142 0.108140028838864 0.0696010121465739 0.11807553764875 -0.321696518345821 -0.068300034619518 -0.075361822911636 -0.189118937923146 0.0949664743815987 -0.106154366893913 0.097338058711552 -0.0247064888354509 -0.0481760205794658 0.0281669347913096 0.0951101989740146 -0.0225279942530903 -0.0758235928006858 -0.102251434312745
-0.10009813652834 0.0341817704173858 -0.166290124755697 -0.545363094477064 -0.259236484427794 0.0513862983270586 -0.0481323118483196 0.301721628212032 0.182427645405038 0.245663123635633 0.0933050283776787 -0.0565249024487462 -0.0750725739555218 -0.199423399845942 0.062569562856075 0.0915258259098473 -0.237688594193111 0.0486462751045617 0.0220328000402228 -0.185438405650457 -0.149459949272782 -0.177403969535246 -0.249762231286592 0.0924488514675807 0.335191717642285 0.0280615196161924 -0.064186271688116 0.0299211975713693 -0.0447577406936539 0.160275803349987 0.0433202376593121 -0.115708581302094 0.326876260096822 -0.0683987649298716 0.0910825679539888 -0.0261182808514714 0.024562764243035 0.163947336766264 -0.0540677004277831 0.01266653317597 0.175365600002736 0.204515724134651 -0.0494654281482771 -0.105942508102946 -0.214887806035632 0.0817494683033705 0.15274427475314 -0.1319553737793 -0.185544849266308 -0.119532323946832 0.00267240324431203 0.0554154720081837 0.139268872940783 -0.102474605951774 0.0829023503648959 0.407076382436153 -0.101372117486158 0.0817996047890969 0.122161018459998 -0.0902952965729917 0.124233069426509 -0.190391119109682 0.0620782252959557 0.0475227036039225 -0.00731787003459776 -0.00786911426740563 -0.0871318128787436 0.0180866729482754 -0.00789611083664295 0.0256433983430777 -0.0325972003582463 0.078173322765066 0.032460160630594 0.0207937860673211 -0.0986729747827919
0.00403791542735429 0.140428182756889 -0.169802506968565 -0.055149877188925 -0.383845191831977 -0.109700173430598 0.0674286882086104 0.383464411650639 -0.0444196408027293 0.212046224290766 -0.139043644420289 -0.0714614614323004 0.117209333441506 0.240326287562689 0.166754979966946 -0.0606944582899053 -0.0502969224807867 -0.0103695107991484 -0.364828294240838 -0.0347219589123155 0.421225670038711 -0.0351413056211353 -0.0294933662265035 0.100173726922204 0.476699763168667 -0.375746992391329 0.105577411642784 -0.0217746614162773 0.144241126773932 -0.0209845618232649 0.0133728148492551 -0.088740551295105 -0.352223724619022 0.0102826075572225 -0.0717435113032847 0.0484076768545403 -0.279089247224557 0.0974419312255699 0.0183005886207083 -0.182431244947603 0.101931332134646 -0.229722035166267 -0.0133504462633156 -0.0179010393959959 -0.135843908190208 0.1025262850986 -0.138434807506441 0.0333610747125711 0.105817295443721 -0.167333220768991 0.235962613533204 0.131327510711895 -0.0425429935754604 -0.0659824434280394 0.105805468375293 0.248125724970444 0.171173932685821 0.0379008692175564 -0.0462363813573097 0.165389724894087 -0.114130438997535 -0.00967042821099328 0.104318343075592 0.109666234886414 0.106051522820628 -0.0465487702299131 -0.245178985160644 0.206770580441426 -0.0520658405412896 -0.0282564091350676 -0.0234749310578624 -0.0780661078186664 -0.0940956421910575 -0.0495546453818519 -0.183455571917522
-0.146723782703033 -0.374874360429505 0.07175353860043 0.163556529287781 0.0547349013532199 0.0377825985332786 0.0329957211422259 0.00129223578082666 -0.0179807435527918 -0.0161382919798901 0.0287621448654468 0.143519418489654 -0.0585673857441873 -0.0297695025632739 0.0289416077733292 -0.199498733129623 0.102800107443721 0.192247454632477 -0.226845743546668 0.171849618247304 0.613872931006084 0.27636285084177 0.168508728526639 -0.250249712193963 0.286106812565163 0.0660822021791259 -0.366975935601213 -0.133554599118882 0.0917577392951051 0.0187731571374531 0.0703530594324708 0.0447657111093335 -0.414373940766277 -0.154882660146919 0.0307876588887959 -0.172707852038868 0.171183702872783 0.0173832194870056 -0.0221523562754166 -0.498589867057207 -0.0429762242341736 0.158391442817222 0.178110765428898 0.0900564412127872 0.0733486501770811 0.356074463832998 0.146351744267924 -0.0298864876966356 0.10219898383537 0.00581531812390317 0.0201003599031967 0.0790626668887985 0.0487475765167474 -0.030998232128847 -0.276290859990471 -0.346623350608285 -0.266450481948374 0.0112722246524079 0.119215821311298 0.0429291730706457 0.0043762724284621 0.237771640782288 -0.0433364356008545 -0.322625200327585 -0.37717086858596 0.192075447919908 0.175165311170014 -0.187019633277215 0.127743908978277 0.0442646033622521 -0.0850181100625526 -0.25935938309537 0.082632898892889 0.0167692403694939 0.152992128969757
0.140489632090677 0.0491201291722225 0.225409011842876 0.238898297605126 0.0156119874348539 0.0507836320576082 0.18656943334641 -0.327449358695203 -0.120197467990803 -0.221057679102185 0.128475387449517 -0.197358033744195 -0.0668309070326411 -0.0345540659626776 -0.174397837273124 -0.0196720143379644 0.00491388982155971 0.0619882367318313 0.134589467606313 0.366062680230442 0.463096063374887 0.191677698466478 -0.148742868971802 0.0439411587517706 0.00123464309978703 -0.0538375868138078 -0.161549012977256 -0.261740994722468 0.208384461061452 -0.0112539698293998 -0.168597174429664 0.0732537765194757 -0.262832427450206 0.130539982220714 0.0271549491101847 0.124816452432218 0.0154068135086502 0.0325519489660009 0.0715671337176008 0.161596578361151 0.197924190367629 0.02273445373021 0.0322837830449101 0.0173276836874317 0.189642928476534 0.00999721525385653 -0.093910008638778 0.14100770910985 0.177314495191488 -0.00625934741031138 -0.0183237285371974 -0.129260087728682 -0.253799375383397 0.138126789506953 -0.113591278943338 -0.068914270847213 -0.0937524000964687 0.112222681438097 -0.103750900901241 -0.121820604577425 -0.126463243155695 0.103713362814492 0.229983773332778 0.0421506434358779 -0.0319536535696651 -0.197723901534906 -0.309778175802999 -0.120592903452584 -0.112756185068264 0.0446525826287199 0.110634768946576 -0.136979306759275 -0.202632906262985 -0.0913653891555227 -0.154152981446962
0.0966423185557786 0.0198666467466564 0.0234569333450375 0.0401991771452941 -0.0594999243786994 -0.172168949094854 0.294274945975644 0.0923061553158977 -0.0259686427248416 -0.124017611092977 -0.0218242836816373 -0.233555290887784 -0.0174145869293576 -0.308550988898526 0.210689453853953 0.223011973604784 -0.0513947829631046 -0.158666807823443 -0.103185258498174 0.106299119927062 0.0172479795306358 0.0433366927110377 0.194873578043811 -0.0201199002771208 0.117132457496726 0.0625402522951888 0.214902204205892 -0.121796693330386 0.106616136782963 0.111080340894084 -0.0565575554420142 -0.068752291431789 -0.360075612504153 0.259561214589192 0.120429124265878 0.194333389548881 -0.0376540434416723 -0.0107783159904565 0.069252884958504 -0.366752763962184 0.066686925330042 0.00019977461235621 0.0353014852652767 -0.0800867367485344 0.0697023135587597 -0.179524100106017 -0.0275740387088213 -0.0560029687768245 -0.324705735930141 -0.0183262996390295 -0.256787509932694 -0.0872729663693273 -0.0845604539364341 -0.0119355689250965 0.213829283411345 0.201792670184246 0.070849024975888 0.00338022757869639 0.0852520803292761 0.197209681168481 0.0795257223287645 0.158342591882412 -0.111928033168136 -0.0391689366411611 -0.107519107746406 0.0488653329806588 -0.098455459567794 -0.0730591441107837 -0.0981034757269759 0.0983166200688592 0.0601411571756317 0.103291187893657 0.0519933354696236 -0.363220327155026 0.174232258315135
0.0330615413491283 0.113949433428553 -0.0541810860185799 0.12399549961722 0.0887595774486627 -0.000205431036386888 -0.359275485613995 -0.126815226996513 -0.146608083120587 -0.17641589510116 0.233108433389361 0.295415743858559 0.216295484288721 -0.00110223135543253 -0.225183269102015 0.235000507227623 -0.0909211027589313 -0.0800250303045634 0.0222657418662134 0.192457770762345 -0.194285052834438 -0.112909422737458 -0.18568188899396 -0.212272738362176 0.232310363380669 -0.0173593082399669 0.0346373696620385 0.0352950575106964 -0.102721945948024 0.0953179440020504 0.062187497123821 0.0122955231815942 -0.486968743886179 0.105260651897066 -0.0580215408252269 -0.0357827955282508 -0.00075590393864512 -0.133770571672781 0.11341695823912 -0.285479720828307 0.0815134411551813 -0.086330657547853 -0.103196571346235 -0.0266327583280799 -0.0656641410212221 -0.0203297021866223 0.123340897090761 0.0526772485569692 -0.083548211145126 0.0277182775216036 0.12050934264304 0.0295388747289322 -0.0984042946413347 -0.110390257162341 -0.0392234440000021 0.155068036589016 0.259052650646797 -0.258248667103891 -0.0809650251343887 0.00542759596761853 0.088863964183047 -0.0157148315081389 0.0455658379994912 -0.112346094326039 -0.0510618252758443 0.252408409292217 0.0836263726408226 0.125931539296811 0.053535482348533 0.0587100818958703 -0.0612349038950182 0.147477886870396 0.225317994838018 -0.103735217180065 0.222454815837762
-0.0053149817073714 -0.178550938062558 -0.137807458659402 0.193685471887186 0.209898325820207 0.159739471507806 0.21531023806665 -0.344220655946163 -0.0113005067725613 0.102651497757824 0.0688497361912266 0.102103081737032 -0.214952854911984 -0.183984704674573 0.25994765119456 -0.304277560543348 0.290541191895031 -0.026273832512315 -0.0129907491170011 -0.0558440746835991 0.354839820733211 0.161662655678236 0.320851654283784 -0.196061427090254 -0.421175276442801 -0.206054014360812 -0.295418829180757 -0.047823265408098 -0.0711189906682612 0.0809447134299149 -0.0333572180598229 -0.148973753916327 -0.150551896220886 -0.0413916541750342 -0.077337714669625 0.258070746857108 0.121627771940015 -0.0315052534101423 -0.053898264817046 0.117580343435882 0.148745697183817 -0.179778639187398 -0.0293378145656599 -0.0289572914945052 0.147005318353651 -0.0950034982479813 -0.0429471707834706 -0.118467630678149 0.139426481483092 0.0594958106157681 -0.0900497563480236 -0.09498498631479 -0.131027720238269 0.0563639514740551 0.285758428266909 0.0598994736034119 0.0311267872204533 0.0980736509457233 0.0726153719345587 -0.0172919453719651 0.0179465478984245 -0.0620833674996199 -0.0357352301443564 0.154291563835714 0.0353572781750339 -0.154372810653609 -0.15370226729579 0.0907799492683475 0.0836885933051601 -0.0176007347020035 0.130285700249517 0.0108562203759699 -0.136102303924336 0.0752854611872218 -0.0776778714420153
0.122152533823952 0.0257608976968058 0.215796690533288 0.253931530017568 -0.0492057468632323 -0.0108161111873887 0.204014359277386 -0.267202529234271 -0.0189719033090765 -0.262668134043133 0.0704602743788705 -0.239147951593025 -0.0803189072439754 -0.02256398967874 -0.19927041928693 -0.194507196032733 -0.157595943910362 0.120741513138481 -0.117015729473547 0.164511950728599 0.0395553732465296 0.206286184856253 -0.168462962914027 0.209832505613305 0.183876975507807 -0.0221572413688977 0.107010029583645 -0.257718505906107 0.112650769893146 0.00920068790626382 -0.246311555517696 0.105299989755097 -0.104749002632473 0.153665243429408 -0.015618158079251 -0.0366556846002576 0.0961396681475979 0.0126932726350241 -0.162084573488888 -0.146018786580664 0.145916199617562 0.0819235318974054 -0.0250564157948032 -0.0507224398340036 0.16683134169136 0.216806619332947 -0.045599519433492 0.0726451967158114 0.242253328385867 0.0252579901784419 -0.0258444585063499 -0.100306395776742 -0.100475060056929 0.00236104281244154 0.0139453992272696 0.155012757899625 0.0869405229024334 0.10762349448079 -0.208459280124766 -0.0567213346287206 -0.208620488209641 0.357795816509606 0.145827753714537 0.170919907824807 0.160787709724764 -0.2148132440825 -0.186500784927492 -0.30504760554207 -0.0878576349259528 0.0517351968456781 0.133796025580919 -0.0116100674331493 -0.198307798760982 -0.0568336917787845 -0.0901232898604225
-0.147778705784755 -0.338970208894778 0.100376072636392 0.425609912882852 0.202404849530475 0.227412928610835 0.223956339307724 -0.129884608363705 -0.101872711012873 -0.496761813654565 0.117486241108826 0.0931528191492168 -0.0513461891384775 -0.156083621812706 -0.154515249695109 0.0993216637750374 0.0176413581109511 -0.102775167755949 0.19004196348088 -0.530053982838035 -0.619401571275705 -0.148555692758423 -0.382788211868789 0.149747398457614 -0.278388621975303 0.100813159947854 0.0877555621832174 -0.322397657815441 0.055230866896637 0.125204688808869 0.0582498546679197 -0.166273155483605 0.290300536763544 0.108698472156802 -0.0341966828080121 0.183529619650287 -0.0699959333879885 0.126022556301669 -0.0263381100581182 0.44767433747561 -0.0987753046357105 -0.121705933435712 -0.0983608430203718 0.15888663703009 0.179742386651565 -0.316339113458219 0.0895087965225443 0.120588018359103 -0.194569673807254 0.051732625743846 -0.121266275022418 0.00481155996864108 0.100036944304735 0.148814859823101 0.15946770604415 0.327685385843392 0.0299173409186211 0.253108263210921 -0.120391586179129 -0.0952418393878194 0.111629528245426 -0.0158652409653183 -0.0484403298478083 0.145086505056335 0.395840924539945 -0.287557428218848 0.126340344488119 -0.11937291563324 0.203598869221315 -0.290185865621831 0.28961276702345 -0.249392763953316 0.0606834025520272 0.059752149468431 -0.0116334644598217