-0.173617225896797 -0.385392083858824 -0.455983703179499 -0.385392083858824 0.553285664945836 -0.377760557445777 -0.455983703179499 -0.377760557445777 -1.37176687274502
0.261921837737504 0.638787791316646 0.653862429459812 0.638787791316646 -0.529496664778695 -0.587910887583462 0.653862429459812 -0.587910887583462 -1.10421724398689
3.01042803345343 0.926285548754901 0.174627603453793 0.926285548754901 3.2875544476301 1.04586749459826 0.174627603453793 1.04586749459826 -0.846564251525995
0.432473710141907 0.874557947175857 -0.649671617902065 0.874557947175857 -0.0653515828658882 -0.0691957936227052 -0.649671617902065 -0.0691957936227052 -0.624684247982755
2.41950752287497 0.0481973610134456 -1.97416390711073 0.0481973610134456 -1.67148447994629 -0.287256271640136 -1.97416390711073 -0.287256271640136 2.23057386770226
-1.11210327473779 -0.649529988884981 -0.200448423869549 -0.649529988884981 2.58462823470255 -0.385477738210671 -0.200448423869549 -0.385477738210671 1.2932778116968
-2.35406473358521 -0.178862761620445 -0.782764989027107 -0.178862761620445 -0.946241706637191 0.265409259178724 -0.782764989027107 0.265409259178724 -1.39820674944154
1.60442464758752 0.237125931228668 0.569867157307605 0.237125931228668 -1.25829728022954 0.300232025829845 0.569867157307605 0.300232025829845 -1.21813885639243
-1.54800724139989 0.430749841085186 0.209605949456631 0.430749841085186 1.90568344872955 0.932650325563907 0.209605949456631 0.932650325563907 -2.64603473809471
2.026401028233 0.815948752109016 0.223231262369448 0.815948752109016 -0.869832160267158 0.175121076513963 0.223231262369448 0.175121076513963 0.398352338883411
-3.53579412035819 -0.142277740569063 -0.15765911792788 -0.142277740569063 -1.64003936088393 -0.945954707567282 -0.15765911792788 -0.945954707567282 -0.0249947382080786
-1.1945484884459 -0.659790872040167 -0.148116318213099 -0.659790872040167 2.42949233640446 -0.496285845441292 -0.148116318213099 -0.496285845441292 1.50616983325787
0.0247931224836907 -0.778122613334291 -0.398597123007027 -0.778122613334291 1.28542804261596 -0.354732367843574 -0.398597123007027 -0.354732367843574 -0.953581633988102
1.47652603451346 -0.0952597441621587 0.110501303228104 -0.0952597441621587 1.03642601648429 0.0076207795329727 0.110501303228104 0.0076207795329727 -1.66895071772102
-7.64523813428498 0.0319299948182093 -0.917987351023516 0.0319299948182093 -4.15688620039562 1.05169420432477 -0.917987351023516 1.05169420432477 -1.25325229661471
2.01259821054555 0.0956558084860053 0.956558084860053 0.0956558084860053 -0.459147880732826 -0.212355894838932 0.956558084860053 -0.212355894838932 0.256357566742494
3.15461673999232 -0.674488012851173 1.89544506727582 -0.674488012851173 2.06741084958915 0.481504190477325 1.89544506727582 0.481504190477325 -0.384056913833104
0.816407876459259 0.166772155286215 -2.01096191897447 0.166772155286215 -3.0174124840157 -0.137683988666526 -2.01096191897447 -0.137683988666526 -0.934699754045993
2.74385816502859 0.210199804708073 1.32688626721971 0.210199804708073 3.93749277033515 0.514238807946535 1.32688626721971 0.514238807946535 -0.0506731672064104
2.33192515874714 -0.0267378806080753 0.441175030033243 -0.0267378806080753 -0.932006124052912 -0.498470488479119 0.441175030033243 -0.498470488479119 1.01221976587714
-6.0574559566061 -0.947458298912159 0.539443130850608 -0.947458298912159 -2.82472039427228 0.109850237555033 0.539443130850608 0.109850237555033 1.68894740240863
0.82384628015663 -0.358026654460592 -0.057746234590418 -0.358026654460592 -1.4455807392468 -0.442721131859871 -0.057746234590418 -0.442721131859871 -0.654457325358071
4.62101137626337 0.168524244140562 -0.944118776832922 0.168524244140562 -1.21988572179021 0.959439162663882 -0.944118776832922 0.959439162663882 1.74269388827172
1.69227241541334 0.0971913211554959 0.0438313801289491 0.0971913211554959 1.15676729296835 0.154362686541082 0.0438313801289491 0.154362686541082 0.0590770775651054
-3.39207897590363 0.537839654450661 -1.16887896021407 0.537839654450661 -2.75715635133552 -1.03684612085434 -1.16887896021407 -1.03684612085434 0.821321927193609
0.764286130257331 0.839747292485271 -0.0174141143602936 0.839747292485271 -2.52504658224258 0.644322231330864 -0.0174141143602936 0.644322231330864 -2.00649295462494
1.73793094272569 0.616437384104912 0.996669789253737 0.616437384104912 0.912173699220665 0.272691926924914 0.996669789253737 0.272691926924914 -1.57277949402468
1.42623554758839 0.141268921267235 -2.14806167954289 0.141268921267235 -2.47510890823005 -0.290278605343634 -2.14806167954289 -0.290278605343634 0.226417312168034
2.33131533521875 0.42080147871797 0.843481535465931 0.42080147871797 0.805909974866112 -0.0469644507497734 0.843481535465931 -0.0469644507497734 0.167193444669193
-2.30975232577804 -0.207531822948443 0.328592053001701 -0.207531822948443 0.440044328288828 -1.23942616483098 0.328592053001701 -1.23942616483098 -0.00576477285967897
0.784405146152036 0.867075296359236 -0.767102091457506 0.867075296359236 -0.745953913497525 0.273003751847032 -0.767102091457506 0.273003751847032 -1.40154743025695
1.57970241110886 -0.101730531942612 0.986594215443441 -0.101730531942612 1.26683303928535 -0.157394407911211 0.986594215443441 -0.157394407911211 -1.61617184708828
0.92425014494382 0.94745307745287 -0.0792766860725871 0.94745307745287 -3.02024838159466 0.597475512108034 -0.0792766860725871 0.597475512108034 -2.19267712210521
2.29538893144233 -0.00190646921216141 0.236402182308014 -0.00190646921216141 1.41841309384809 -0.709206546924043 0.236402182308014 -0.709206546924043 0.50140140279845
0.717247305060663 -0.303820574261621 0.0519187057282518 -0.303820574261621 -1.95175875237687 -0.40381215566418 0.0519187057282518 -0.40381215566418 -0.148064457076866
-7.15830927290235 0.0577765012285467 -0.780978913158286 0.0577765012285467 -3.82321054681314 1.09177664390495 -0.780978913158286 1.09177664390495 -0.767032861137603
2.13627896360825 -0.265591438718864 -0.159739778359897 -0.265591438718864 -2.11318405589357 -0.390688855506735 -0.159739778359897 -0.390688855506735 -0.440727822221883
-1.35824994482406 -0.700227725792065 -0.040287074634612 -0.700227725792065 1.83018424768666 -0.640756329902876 -0.040287074634612 -0.640756329902876 1.429231933466
1.99909255379143 0.243885450846793 -0.610673806057325 0.243885450846793 -1.02739146616563 0.56266485904024 -0.610673806057325 0.56266485904024 -1.24247154880217
5.12498209835319 0.191588115826287 -0.839155947319138 0.191588115826287 -1.78751712065926 1.13803340800815 -0.839155947319138 1.13803340800815 1.84690943656541
3.08425277478621 0.326634195260378 0.852252440506964 0.326634195260378 1.31404561311646 0.108878065086793 0.852252440506964 0.108878065086793 0.570671237696293
-1.3169373415563 -0.590811253086037 -0.322087425069485 -0.590811253086037 1.01962587226139 0.956733061449002 -0.322087425069485 0.956733061449002 -0.977697331719796
2.63246495307991 0.0287596316796786 -0.864706259169002 0.0287596316796786 -0.500417591226407 0.427559857637888 -0.864706259169002 0.427559857637888 0.690231160312285
-7.83529942924255 -0.00399250926330831 -0.930254658350836 -0.00399250926330831 -4.28595869416147 1.01609360751196 -0.930254658350836 1.01609360751196 -1.32950558468167
1.47000705217131 -0.0863581166419178 0.957615560095932 -0.0863581166419178 1.98815575202282 -0.259074349925753 0.957615560095932 -0.259074349925753 -1.56212237658936
0.401694704219716 0.85720496689949 -0.595815111522067 0.85720496689949 0.0749573849979374 -0.130694927688711 -0.595815111522067 -0.130694927688711 -0.501637884216966
-1.17439187713305 -0.885076536251003 -0.27028143687665 -0.885076536251003 0.0647152736183529 0.930757905863957 -0.27028143687665 0.930757905863957 0.679510372992705
1.03534569851089 0.570496609383554 0.474453409150632 0.570496609383554 0.952748546310582 -0.213215904517086 0.474453409150632 -0.213215904517086 -0.751057825821447
0.797170225691013 0.818453896765287 -0.0445022213371196 0.818453896765287 -2.43020826084445 0.632705494662527 -0.0445022213371196 0.632705494662527 -1.84393986670761
-0.83253089071664 0.0816969565656516 -1.38495793035105 0.0816969565656516 -3.30094607837883 0.0427936439153413 -1.38495793035105 0.0427936439153413 -2.05214974230387
-0.602431391813753 -0.747319954401871 -0.156327133318759 -0.747319954401871 1.95027630957427 0.280244982900702 -0.156327133318759 0.280244982900702 -1.36118991694627
1.32174839060041 0.73262625078994 -0.109516295221177 0.73262625078994 -1.67673224407595 -0.691085587085356 -0.109516295221177 -0.691085587085356 0.205815106536349
1.24148958059743 0.0438621510810152 -0.812403320022282 0.0438621510810152 2.08631275141872 -0.194519104794067 -0.812403320022282 -0.194519104794067 -0.785704619364272
3.47680127283255 0.0651301615847421 -1.0095175045635 0.0651301615847421 -0.549775187494734 0.559353152433667 -1.0095175045635 0.559353152433667 1.58802658687503
1.20559803465084 0.072950199548936 0.835087810625978 0.072950199548936 0.468417070787905 0.00767896837357221 0.835087810625978 0.00767896837357221 -1.12496886672833
1.22892124197697 0.114673832843885 0.867698668518731 0.114673832843885 -1.08366772037471 0.307708118131092 0.867698668518731 0.307708118131092 -1.10469125639609
-1.35386821617513 -0.703781353167527 -0.0306825658056688 -0.703781353167527 1.71822368511745 -0.653922183733315 -0.0306825658056688 -0.653922183733315 1.33085629182088
2.40947497128776 -0.739466148999495 1.65472270034512 -0.739466148999495 1.93369442580746 0.857933594058846 1.65472270034512 0.857933594058846 -0.168147341374562
0.365482426405407 0.6333753043989 0.260238795765107 0.6333753043989 2.93151349347164 1.09836079977332 0.260238795765107 1.09836079977332 -2.34788972355725
-8.50382194529648 -0.165801555428614 -0.926890623118996 -0.165801555428614 -4.71635508875851 0.86696235007251 -0.926890623118996 0.86696235007251 -1.44427138042033
1.06432492158607 -0.408914781363411 0.78534567822599 -0.408914781363411 -2.10763085908337 0.0802543028844077 0.78534567822599 0.0802543028844077 0.987892252172352
4.16810765036973 0.0537572612668597 -1.19801896537573 0.0537572612668597 -1.76055030648966 0.537572612668597 -1.19801896537573 0.537572612668597 2.76081934649087
1.33201382724858 0.717828777220415 0.771569969097879 0.717828777220415 1.34544912521794 0.474074085490488 0.771569969097879 0.474074085490488 -1.13432301427076
2.44291944969567 0.767182265452266 0.814306483231889 0.767182265452266 3.62856476903099 0.723827985095013 0.814306483231889 0.723827985095013 -0.196036745963233
-1.21038965094353 -0.900179724679703 -0.112284574537214 -0.900179724679703 0.432010142710978 0.846892129984075 -0.112284574537214 0.846892129984075 0.628032366055606
0.475849560717794 -0.435392715474581 -0.0423833616833663 -0.435392715474581 -0.799504322663501 -0.487408659358712 -0.0423833616833663 -0.487408659358712 -1.45644642875568
-0.381572428197549 0.19271334757452 2.39542691035128 0.19271334757452 0.770853390298079 -0.0674496716510819 2.39542691035128 -0.0674496716510819 -0.312195623070722
-1.43544342573895 -0.717721712869473 -0.154764789837083 -0.717721712869473 2.13381953987878 -0.222474385390807 -0.154764789837083 -0.222474385390807 0.870551942833593
-0.0419675361174762 -0.593268351478868 -0.516963740356184 -0.593268351478868 0.684833884826089 -0.417767745896695 -0.516963740356184 -0.417767745896695 -1.0034056362633
3.64311288132859 0.0785318759907846 -1.01516815305161 0.0785318759907846 -0.614847126659558 0.609100891830964 -1.01516815305161 0.609100891830964 1.65491563063507
1.65868669689678 0.0533830201300114 0.367961531610436 0.0533830201300114 2.22683455399476 -0.587213221430125 0.367961531610436 -0.587213221430125 -0.747362281820159
1.65086210575168 0.505444393262738 -0.611145692234033 0.505444393262738 -1.25880637865815 0.613067534033511 -0.611145692234033 0.613067534033511 -1.97757521166296
-0.153525082133067 0.137978238372757 -1.64796543859292 0.137978238372757 -3.37172174051736 0.0213769101704271 -1.64796543859292 0.0213769101704271 -1.86562125123727
-7.26012884933491 -0.649777581999779 0.235025933914814 -0.649777581999779 -4.02704100212021 0.468076859981603 0.235025933914814 0.468076859981603 1.53655610576239
2.27295797930295 0.67416649261844 0.964171073242014 0.67416649261844 3.75687752171449 0.670400199363588 0.964171073242014 0.670400199363588 -0.242925914937929
0.735303796538834 0.203504444995082 0.691147171681411 0.203504444995082 0.1305500213176 0.0595154508947881 0.691147171681411 0.0595154508947881 -0.62395230776794
1.05148413535008 0.316596500607232 0.721456268050419 0.316596500607232 2.1989066042175 -0.0249439667145092 0.721456268050419 -0.0249439667145092 -0.963220868514124
2.04722842601599 0.327786573828403 1.08495439056653 0.327786573828403 0.337370976571923 -0.0268363276818575 1.08495439056653 -0.0268363276818575 0.258778874075055
-2.89889013183883 -0.296630618141648 -0.315892346592404 -0.296630618141648 -0.550885433691631 -0.602892100508673 -0.315892346592404 -0.602892100508673 3.14158791031836
0.748164765630813 -0.164138188378189 -0.650827002755376 -0.164138188378189 1.71009089287043 -0.286287537868934 -0.650827002755376 -0.286287537868934 -0.893217118151073
-1.11867128675555 -0.653844079672642 -0.208304308568275 -0.653844079672642 2.57101521593992 -0.349102591211647 -0.208304308568275 -0.349102591211647 1.20353600506115
3.98543097471467 0.111078806599448 -1.00928501858464 0.111078806599448 -0.783297101709899 0.720097091058489 -1.00928501858464 0.720097091058489 1.72938210964313
0.0114907320210474 0.597518065094462 0.268117080491105 0.597518065094462 2.80948397914608 1.08012880997845 0.268117080491105 1.08012880997845 -2.44561079847958
-1.124829099491 -0.651014102102669 -0.188755568065271 -0.651014102102669 2.56168270945725 -0.421810912309126 -0.188755568065271 -0.421810912309126 1.37714521598641
1.30939870159414 0.139541759439959 0.808577592371269 0.139541759439959 -1.15838775644678 0.307756483148403 0.808577592371269 0.307756483148403 -1.18132612786157
-0.011445178990843 -0.639022493655401 -0.507402935260707 -0.639022493655401 0.776364641545517 -0.41774903316577 -0.507402935260707 -0.41774903316577 -0.955672445735391
-2.51359892462363 -0.180779111640873 -0.788504635880404 -0.180779111640873 -0.894279648010702 0.248090482996517 -0.788504635880404 0.248090482996517 -1.22122059459526
2.19926159616572 0.115144586186687 0.21685563731826 0.115144586186687 -0.249479936737821 -0.307052229831164 0.21685563731826 -0.307052229831164 0.821364714798365
-5.30437569495709 0.140513263442572 -1.03628531788897 0.140513263442572 -1.71933590406814 -0.636212831698312 -1.03628531788897 -0.636212831698312 -1.81496298613322
0.66633485106463 0.581631268302177 0.798095979806223 0.581631268302177 -0.103526601154109 -0.427282517490596 0.798095979806223 -0.427282517490596 -0.890328769925339
-1.49953401591915 -0.586857022748537 -0.483966505773144 -0.586857022748537 0.228645593278651 1.19276784493696 -0.483966505773144 1.19276784493696 -0.411562067901572
-7.1883214236701 -0.71034743687105 0.307817222644122 -0.71034743687105 -3.96216014788074 0.40450340155157 0.307817222644122 0.40450340155157 1.65550416537447
-1.55986928454374 -0.645928566529236 0.318143920827833 -0.645928566529236 0.663281871301664 -0.43768890926011 0.318143920827833 -0.43768890926011 -3.79458931023742
-5.66814747706497 0.239993851868844 -1.05558271431744 0.239993851868844 -2.11116542863487 -0.772663132846034 -1.05558271431744 -0.772663132846034 -1.48484001034301
4.49959639181373 0.0863461994164682 -1.0630176550383 0.0863461994164682 -1.84780866751242 0.731064488392764 -1.0630176550383 0.731064488392764 2.5692791337478
1.54915102715747 0.744821063862574 0.87343707231307 0.744821063862574 1.09611553470497 0.531740811056528 0.87343707231307 0.531740811056528 -1.3783028965292
1.87108227537557 0.34386419639859 -0.591676941289193 0.34386419639859 -1.15069638906567 0.597440028379673 -0.591676941289193 0.597440028379673 -1.6213485014548
-0.190794707669223 -0.175531131055685 -0.251849014123375 -0.175531131055685 0.843312607897967 -0.326258950114372 -0.251849014123375 -0.326258950114372 -1.85452455854485
3.11798458737066 -0.565863542527109 2.12772338794822 -0.565863542527109 2.67446991890346 0.0152936092574894 2.12772338794822 0.0152936092574894 -0.12999567868866
-4.45254732380127 -0.634168044402412 0.160452155812658 -0.634168044402412 -1.05822017047872 -0.517649216967029 0.160452155812658 -0.517649216967029 1.81845776587679
3.27340868828886 -0.645891498331368 1.97398200525533 -0.645891498331368 2.23768918504743 0.317212984387595 1.97398200525533 0.317212984387595 -0.368807867390397
-7.34033747080127 0.0677999114390772 -0.867440043411723 0.0677999114390772 -3.94635366876276 1.09078092815221 -0.867440043411723 1.09078092815221 -1.04292216713639
2.25239723264598 -0.236993036454624 -0.576105023576687 -0.236993036454624 -2.76106521332907 -0.342965532430268 -0.576105023576687 -0.342965532430268 -0.429670301864887
0.396162567509611 0.0777161017602586 -0.00568654403123843 0.0777161017602586 -2.64613848920295 -0.513684477488538 -0.00568654403123843 -0.513684477488538 0.708922489227724
2.57500256615903 -0.0419630047818508 0.144963107428212 -0.0419630047818508 -0.00572222792479784 -0.709556262674932 0.144963107428212 -0.709556262674932 1.36570506471842
-2.64324140180338 0.0506442715157612 -1.04794684905691 0.0506442715157612 -1.32064677260331 -0.0993406864347624 -1.04794684905691 -0.0993406864347624 -1.96928301932441
0.514012384345485 0.598739700446389 0.771959991141571 0.598739700446389 -0.210876875628917 -0.472590140918376 0.771959991141571 -0.472590140918376 -0.984719696017175
-3.21665163309316 -0.207649955991668 -0.0326856412209108 -0.207649955991668 -1.30358027928103 -1.04786320384685 -0.0326856412209108 -1.04786320384685 -0.209572640769369
1.53419350057214 0.501997138054856 0.842302314039608 0.501997138054856 0.376027818767682 -0.216215995791417 0.842302314039608 -0.216215995791417 -0.321503785046368
2.31962230221803 -0.133045668207019 -0.86190454621069 -0.133045668207019 -2.99449163370291 -0.266091336414038 -0.86190454621069 -0.266091336414038 -0.177394224276026
1.71504855602497 0.0800355992811651 0.0133392665468609 0.0800355992811651 1.16432740859028 0.142920713002081 0.0133392665468609 0.142920713002081 -0.150543151028858
0.368137802376301 0.0591309423505976 0.219356721623185 0.0591309423505976 1.8998199542321 -0.35287820435034 0.219356721623185 -0.35287820435034 -2.12108412560853
-2.4626254632463 0.184212140951495 -0.562331798694038 0.184212140951495 -0.744604864477623 0.358728906063438 -0.562331798694038 0.358728906063438 -1.9429533182463
1.82321837410249 -0.781652321811236 1.46583699469246 -0.781652321811236 2.06210967049957 1.00907683598125 1.46583699469246 1.00907683598125 0.024844694825296
-0.941662807841166 -0.669076205571355 -0.190620001587281 -0.669076205571355 1.69270561409505 0.587109604888824 -0.190620001587281 0.587109604888824 -1.31337181093636
3.47708160378619 0.26270449246091 0.878183589083614 0.26270449246091 1.69444397637287 0.202657751326988 0.878183589083614 0.202657751326988 0.741201960871853
1.47819291852945 0.61126833301998 -0.647790654804192 0.61126833301998 -1.2609812152865 0.590123830934383 -0.647790654804192 0.590123830934383 -2.05293892976521
2.10020667884907 -0.115290394081376 0.186386137098225 -0.115290394081376 -1.02608450732425 -0.370850767628428 0.186386137098225 -0.370850767628428 0.13066244662556
2.57629498228414 0.0366115218125644 -1.911506823056 0.0366115218125644 -1.61668772635482 -0.240865275082661 -1.911506823056 -0.240865275082661 2.42984889503388
4.64807748042256 0.101670700149565 -1.00327879581552 0.101670700149565 -1.88378542541269 0.817202231390843 -1.00327879581552 0.817202231390843 2.4631165847555
-3.59928292095573 -0.304540067346862 0.546268745803434 -0.304540067346862 1.2771649074359 0.831775058941117 0.546268745803434 0.831775058941117 1.4579855724231
0.818338816693835 0.277854574970465 -0.0989619034141383 0.277854574970465 2.34082963844981 -0.2645327802801 -0.0989619034141383 -0.2645327802801 0.0913494493053584
4.15571086455839 0.126394892654771 -0.999668696451372 0.126394892654771 -0.882849174452265 0.781350245502222 -0.999668696451372 0.781350245502222 1.74463253346207
-2.25383942202136 -0.167164560712581 0.330486257960506 -0.167164560712581 0.528393726390343 -1.20089483270533 0.330486257960506 -1.20089483270533 0.0999144500810831
1.72027312907848 0.718060435575169 0.967653635106645 0.718060435575169 0.950374105908312 0.501106346751655 0.967653635106645 0.501106346751655 -1.57051720935959
1.57884013732327 0.377093301797354 -0.849412184856667 0.377093301797354 2.70440650783961 -0.133315813766741 -0.849412184856667 -0.133315813766741 -0.0647533952581316
2.36465086958283 0.324928197329491 1.30722558000766 0.324928197329491 4.02873400735121 0.544677325003194 1.30722558000766 0.544677325003194 -0.240409302070375
1.01144968579734 -0.160003340126132 0.32572108525677 -0.160003340126132 1.07430814084689 -0.125716910099104 0.32572108525677 -0.125716910099104 -2.04956659494903
-2.83442592448544 0.45366324646347 -1.07793489330636 0.45366324646347 -2.31678452787969 -0.973243374891718 -1.07793489330636 -0.973243374891718 1.20976865723592
-0.162173458984978 -0.129738767187983 -0.183160612500681 -0.129738767187983 0.971132830862988 -0.31862314882931 -0.183160612500681 -0.31862314882931 -1.95752904610103
1.58240135443624 0.529990884260942 -0.475098971248202 0.529990884260942 -2.7313458785305 -0.637881885699777 -0.475098971248202 -0.637881885699777 1.24926422718651
1.1352303073127 0.158854752900411 -2.09998234322007 0.158854752900411 -2.76058564491568 -0.218909598509103 -2.09998234322007 -0.218909598509103 -0.383576110661969
3.80967347772948 0.0307386664869751 -1.35634365873778 0.0307386664869751 -1.6675726569184 0.33620416470129 -1.35634365873778 0.33620416470129 2.88943464977566
-8.27260806288754 -0.103856981958028 -0.932715587969214 -0.103856981958028 -4.57370170545931 0.922729339704019 -0.932715587969214 0.922729339704019 -1.42803350192289
-2.48521301135441 -0.288307773939027 0.284463670286506 -0.288307773939027 0.0345969328726832 -1.28585267176806 0.284463670286506 -1.28585267176806 -0.263321100197644
2.90494254676869 0.0211758568684265 -1.76722150956505 0.0211758568684265 -1.56123817457217 -0.11742975172491 -1.76722150956505 -0.11742975172491 2.72976045812989
-5.66313267713861 -0.218772323007049 -0.475925755313581 -0.218772323007049 -1.11880933607991 -0.972961120741876 -0.475925755313581 -0.972961120741876 0.928822845047472
0.980753604565393 0.164751099581143 -2.0584196206491 0.164751099581143 -2.89380460793702 -0.178318837193708 -2.0584196206491 -0.178318837193708 -0.668695639476404
1.55351475997521 0.12771225634152 0.203958379530487 0.12771225634152 1.04266573460913 0.184896848733245 0.203958379530487 0.184896848733245 0.535629015402495
3.44146028872075 0.0173034316192663 -1.52270198249544 0.0173034316192663 -1.5919157089725 0.138427452954131 -1.52270198249544 0.138427452954131 2.92235734014276
2.73177659284192 0.887779866984812 0.15588425929926 0.887779866984812 3.28687663815148 1.0835857048851 0.15588425929926 1.0835857048851 -1.15392372432501
1.78292373819165 0.927120343859658 -0.0616795239158192 0.927120343859658 -1.81954595551667 0.289122768355403 -0.0616795239158192 0.289122768355403 -0.223588274194845
-1.19066010066198 -0.635789374139893 0.285141901129406 -0.635789374139893 0.830379455316042 -0.269728825392682 0.285141901129406 -0.269728825392682 -3.7029914457481
-0.116380800642875 -0.0858546889988423 -0.112565036687371 -0.0858546889988423 1.11611095698495 -0.312892644351336 -0.112565036687371 -0.312892644351336 -2.04715736212795
-0.144995074191011 -0.440708712343732 -0.488404460432881 -0.440708712343732 0.547547188063425 -0.391105134331018 -0.488404460432881 -0.391105134331018 -1.25725991962995
1.70979442518152 0.275403128888298 0.476217910369349 0.275403128888298 -1.2488766886393 0.292615824443817 0.476217910369349 0.292615824443817 -1.16472573259009
2.4831667988099 -0.0438991824539798 0.259577774510489 -0.0438991824539798 -0.708112899583761 -0.610771234142328 0.259577774510489 -0.610771234142328 1.30552351297923
1.28262374841914 0.524709715262374 0.83878327242659 0.524709715262374 0.246369077775523 -0.270817917554773 0.83878327242659 -0.270817917554773 -0.48333475563595
0.238445192334191 0.0419663538508176 0.16214273078725 0.0419663538508176 1.7511414925023 -0.335730830806541 0.16214273078725 -0.335730830806541 -2.16508234639445
-1.39412997668428 0.276521648267956 0.314927432749617 0.276521648267956 0.349492638783111 -0.472391149124425 0.314927432749617 -0.472391149124425 0.750833086616464
-5.59820864607389 -0.39124171421688 -0.349048980330746 -0.39124171421688 -0.723030030685116 -1.114271744902 -0.349048980330746 -1.114271744902 0.801661943836548
-0.984901401514696 0.495330529416748 0.255344807800106 0.495330529416748 2.32306178524909 1.00410025924403 0.255344807800106 1.00410025924403 -2.62448385159959
2.92139782083631 -0.701211903366203 1.80748354382678 -0.701211903366203 1.96033627480579 0.643892129249075 1.80748354382678 0.643892129249075 -0.332454689879344
-1.99726842606291 0.373645202175703 0.132894427577956 0.373645202175703 1.44065263519292 0.84936873278085 0.132894427577956 0.84936873278085 -2.5962563532621
1.34193982335509 0.441602892224652 -0.62052820200533 0.441602892224652 2.77905268382755 -0.178925309780678 -0.62052820200533 -0.178925309780678 0.350236776591966
3.81520662968346 0.0957632186165527 -1.01509011733546 0.0957632186165527 -0.69141043841151 0.662681472826544 -1.01509011733546 0.662681472826544 1.70267002700231
0.773791942726618 0.909205532703776 -0.0116068791408993 0.909205532703776 -2.88624394637029 0.646116272176726 -0.0116068791408993 0.646116272176726 -2.33491718717757
-1.2316909340586 -0.687678142032716 -0.0363952220017315 -0.687678142032716 1.41941365806753 -0.658945072031349 -0.0363952220017315 -0.658945072031349 0.869654252041374
-6.94031552504352 -0.813379770670537 0.429338474591228 -0.813379770670537 -3.7242158506973 0.287538611423483 0.429338474591228 0.287538611423483 1.80203992775676
0.822916664482139 -0.124684343103354 2.57233390925536 -0.124684343103354 2.70469113501122 -0.230186479575423 2.57233390925536 -0.230186479575423 0.865117519070966
-3.90255222203777 -0.949322143922274 0.33528420688836 -0.949322143922274 -0.586747362054629 -0.0428851892531623 0.33528420688836 -0.0428851892531623 0.994156659959671
1.23727107927101 -0.509125521749718 0.0076849135358448 -0.509125521749718 1.54274639232084 0.146013357181051 0.0076849135358448 0.146013357181051 -2.58597340481178
-2.47573924460301 0.123690329160494 -0.738276652176699 0.123690329160494 -1.23303796881867 -0.800121816756946 -0.738276652176699 -0.800121816756946 2.01963115582369
2.21659476358276 -0.752877876596213 1.59556605826862 -0.752877876596213 1.96053985123785 0.917211626310107 1.59556605826862 0.917211626310107 -0.103186307959887
1.84314227187105 0.102396792881725 -2.136808545796 0.102396792881725 -2.06145996235473 -0.349694707765892 -2.136808545796 -0.349694707765892 1.16500502089963
3.05446352272724 -0.550336632212078 0.596039328312735 -0.550336632212078 -2.27180485200349 0.396090032872361 0.596039328312735 0.396090032872361 2.54982958661582
0.846794449742104 0.564529633161403 0.816686202640163 0.564529633161403 0.00940882721935671 -0.376353088774269 0.816686202640163 -0.376353088774269 -0.773405597431122
1.70263264229751 0.944835781116399 -0.107981232127588 0.944835781116399 -2.04200222898422 0.322015460094773 -0.107981232127588 0.322015460094773 -0.431924928510354
-1.60115446486735 -0.741526191105434 -0.118102082656479 -0.741526191105434 1.93029141653295 -0.195546071283679 -0.118102082656479 -0.195546071283679 0.811225780869914
-0.382427974135622 -0.43239343809304 -0.566915841055319 -0.43239343809304 -0.0711046987086332 0.357445242156913 -0.566915841055319 0.357445242156913 -2.50788194093963
1.72188418273292 0.492795136472385 -0.861908356339936 0.492795136472385 -2.26879015771992 0.253161423050519 -0.861908356339936 0.253161423050519 0.378775869602303
0.741027676653513 0.876463544449194 0.00580439433410062 0.876463544449194 -2.71839134647046 0.65589655975337 0.00580439433410062 0.65589655975337 -2.24049621296284
1.36337883298365 0.123943530271241 0.436662591263296 0.123943530271241 0.777984005394869 0.209750589689793 0.436662591263296 0.209750589689793 0.690270122433683
0.50538604139392 -0.922712393757082 0.608760458951768 -0.922712393757082 2.54224493549669 0.897825959900563 0.608760458951768 0.897825959900563 -0.394354259572529
-3.19693292181636 -0.908683916304466 0.214036896774071 -0.908683916304466 0.151771617712523 -0.0758858088562617 0.214036896774071 -0.0758858088562617 0.834743897418878
-3.62099103874279 0.55169605955094 -1.18498097297913 0.55169605955094 -2.86532284449872 -1.05094214160936 -1.18498097297913 -1.05094214160936 0.68573489092071
1.33089012154933 0.0724553361301925 0.385157313113129 0.0724553361301925 2.33191779176909 -0.522441107886125 0.385157313113129 -0.522441107886125 -1.22792727546958
-0.258027490623086 -0.468272112612268 -0.315366932983772 -0.468272112612268 1.27484693515258 -0.483562630575117 -0.315366932983772 -0.483562630575117 -0.485473945320473
-5.47300473877942 -0.508002191165165 -0.249208622081024 -0.508002191165165 -0.532923053373268 -1.1866164389858 -0.249208622081024 -1.1866164389858 0.732289951038087
-0.782433931144279 -0.594955874293082 -0.151130270318822 -0.594955874293082 1.22243345232566 -0.585390667310878 -0.151130270318822 -0.585390667310878 0.0593042832896641
-5.63778223738515 -0.331859927549381 -0.395162688295795 -0.331859927549381 -0.844036809952183 -1.06847387078038 -0.395162688295795 -1.06847387078038 0.844036809952183
2.06207302048281 0.199679324143587 -0.629757868452851 0.199679324143587 -0.956156763687561 0.541438167389342 -0.629757868452851 0.541438167389342 -1.01951654923312
2.16346041316545 0.0114671046634211 0.670825622810137 0.0114671046634211 -0.873411138530577 -0.372680901561187 0.670825622810137 -0.372680901561187 0.642157861151584