5.8954056246 6.9553504624 2.5003401693 3.3106935435 4.8886299272 0.1354829487 2.1727220005 1.2996647726 2.3093969460 8.5748407520 2.0776505718 -0.0979230783 9.3428246595 5.6769692204 2.6615777748 1.4051289040 5.0807136278 2.2868986494 4.0107203224 1.9318346052 4.8919993717 10.2702938271 1.7900367883 2.5870152806 7.3226042002 4.9637836383 0.1663215071 1.7584420216 4.9787448716 3.7448406968 3.8989545530 1.4864526888 1.4311520364 9.8789900567 2.0052186085 1.1451866520 7.4838811474 5.4944907996 3.6450954440 5.9957310408 5.4080637415 0.6621379504 0.2959427571 1.5582755424 3.0025930807 5.3546965473 1.3931752605 4.4253654489 11.3062093681 5.2955343144 2.0342282310 2.5206859547 6.3021446159 1.6442578737 2.7241792802 1.2490259167 4.0945095992 9.5486701517 2.9879752037 3.4443327589 7.3576845858 3.3483015616 0.1876922694 9.2426370913 0.4947015631 3.1764427793 8.5744292397 5.4977311461 1.0263185453 1.9500023290 3.7462714168 1.5718551236 3.9972391292 3.5162412249 4.7128946457
5.8798536462 6.8803749450 2.5225871923 3.3963440433 4.8174043371 0.1398448129 2.3849334092 1.9887031324 2.4998295236 8.4484325767 2.0584344928 -0.1891906713 9.1730974416 4.9979426791 2.5712430432 1.4005223919 4.9976839471 2.2334997478 4.1825568204 1.8980444133 4.7952434903 10.0811137339 1.8462205182 2.7610165253 7.3351189478 5.0236277872 0.1698358458 2.1403498150 5.3776455711 3.6363141530 3.7307778372 1.4282857396 1.1523310030 9.3544061756 1.5309997984 1.3618953585 7.6943407203 5.4877747588 3.7588636239 5.8977637169 5.2558804171 0.2972595242 0.1475664614 1.7393134845 2.8090336673 5.6269504794 1.6867497384 4.6971632485 11.3362367586 5.0849976407 2.1682547251 2.1579287117 5.8228877337 1.2993360969 3.5152948734 1.0702916217 3.7698232911 9.5140670742 3.2314495669 3.3232926350 7.7181869866 3.6154016842 0.6090675354 9.3108831570 0.9892087475 3.6924875020 8.0496802402 5.8707038770 1.1626774245 1.9297131529 3.6610360953 1.7071539793 3.7988158735 3.2997244970 4.3729672919
5.8855633869 6.8685926909 2.5013552893 3.3406171337 5.0556511135 0.0581660632 2.4585482545 1.8570186883 2.4522704084 8.4187072537 1.7768135187 -0.0205616466 9.0773376593 5.1409633754 2.5252232496 1.3959284181 5.1149705627 2.2484943743 4.2742554943 1.8630565468 4.7337394719 10.1169468420 1.7699024907 2.7240360862 7.2616206938 5.0559655960 0.2535591832 1.8845883822 5.2336532299 3.6596939237 4.0638285887 1.6025717778 1.2924052382 9.6415117442 1.6826904270 1.3039442488 7.4669533816 5.3248186019 3.6903105015 5.5913689078 5.2533300937 0.4376746715 0.2968631657 1.6986510670 2.8302435197 5.9418831190 1.6968465450 4.6061836793 11.2478603347 5.1902593203 2.1012444218 2.2674324733 6.3022806904 1.3757373942 3.5143830574 0.6725273386 3.7438255351 9.3663188229 3.1283377505 3.4394731624 7.9365360611 3.7569939400 0.9646787074 9.2826778202 0.5179643000 3.5604316987 7.9885810282 6.2614082784 1.2364772355 2.0982200778 3.7125979920 1.6027227039 3.6056008417 3.1719942517 4.0260676657
5.8929518368 6.9238535906 2.5087338369 3.3457515680 4.9168219597 0.1151458572 2.0940745045 1.5287300534 2.3711033551 8.5302519052 2.0774546997 -0.1321031501 9.4293862360 5.4149315307 2.6283587634 1.4154247070 5.0351122221 2.1638394776 4.1603683594 1.8048475654 4.9291791762 10.1164601529 1.7797759037 2.7781773155 7.2261702549 5.0456079417 0.0821162846 1.8341638237 5.1400501627 3.7835999787 3.9784454491 1.5065677217 1.4525691363 9.9031234954 1.8401538733 1.1193954817 7.4455866155 5.5337748722 3.6415552535 5.9466014010 5.5383597253 0.6795120658 0.2294155252 1.5652592276 2.9125920975 5.5199331672 1.3003436468 4.4390039022 11.3780538017 5.4407203531 2.1021929214 2.2013488929 6.1178173814 1.5269611952 3.0846356843 1.0988257583 4.0014650540 9.5793526980 3.0900685153 3.4253774289 7.2737526404 3.5355224488 0.2665475730 9.3659520152 0.6388073498 3.3600549252 8.3892409879 5.6573632340 1.0554356816 1.9201293187 3.7477244582 1.5844278171 4.0226695202 3.2691950219 4.6362025498
5.8800713168 6.8815404656 2.5225158208 3.4007161110 4.8009079627 0.1412282878 2.3619620883 1.9876069143 2.4962408929 8.4543696085 2.0859307823 -0.1931214899 9.2040062083 4.9827295179 2.5809205461 1.4026379263 4.9957154597 2.2278346905 4.1675917785 1.8754137312 4.8082975405 10.0603968123 1.8701668239 2.7755644379 7.3522754791 5.0379985581 0.1657772125 2.1428989664 5.3737048473 3.6402476900 3.7278038224 1.4175520052 1.1842683891 9.3411034322 1.5265938197 1.3545005529 7.6845724279 5.5013302168 3.7218577001 5.8282970439 5.2740585691 0.3032323240 0.1600970726 1.7428510282 2.8377903714 5.6937437551 1.6716363746 4.6941789578 11.3105568447 5.0746499272 2.1614818112 2.1496414089 5.8384077351 1.2958028345 3.4817073705 1.0962192191 3.7509178219 9.5387669542 3.2145860922 3.2749196941 7.7019842095 3.5741226024 0.5815516090 9.3297402444 1.0281929054 3.6697770568 8.0783257282 5.8282478595 1.1769188211 1.9084927181 3.6481964963 1.7361898435 3.8129971845 3.3323019603 4.3874155006
5.8951522405 6.9653675114 2.4908575407 3.2460968904 4.8859950006 0.2052602937 2.2183039098 1.1897815199 2.2761405717 8.6238908343 2.0830648105 -0.1480787611 9.2894124998 5.7378880775 2.6903106682 1.4124414029 5.0754363986 2.2669557847 3.9060506532 1.9971899349 4.8365674820 10.2656544796 1.8052666709 2.6678591857 7.3831915489 4.8727923622 0.1640489926 1.6875352975 4.9797762623 3.8793486943 3.8847155375 1.5030747897 1.3945290236 9.9969367554 2.0185805457 1.0974647179 7.5410582738 5.4522314150 3.6974250989 6.0114442571 5.3881949890 0.6263355688 0.3036875149 1.5509692311 2.8991540944 5.2111286469 1.4169105598 4.4426854502 11.3889213185 5.2304606469 2.0460983152 2.4574041560 6.1323772719 1.7120531049 2.6259073066 1.3925364491 4.1737930657 9.5629679929 2.8936007584 3.4207661171 7.4055145456 3.3651405765 0.1747603706 9.3067677271 0.7849194692 3.1338154052 8.6586644251 5.4054019099 0.9669380750 1.9829491829 3.9135764546 1.5107651151 4.0248972405 3.5117717226 4.7277088254
5.8828879148 6.8749357499 2.5166704402 3.3585787004 4.9411670006 0.1482739052 2.4672923811 1.9383909962 2.5026290574 8.4252044178 1.9122163931 -0.1391332075 9.0598050702 5.0923952290 2.5108093879 1.4347742380 5.0133884818 2.1913989417 4.1781387514 1.8993526538 4.7300810811 10.0776060603 1.8052220724 2.7998838575 7.3469826958 5.0393654879 0.2685223868 1.9789813954 5.3341162276 3.6415258441 3.8188987452 1.5065343464 1.1869684166 9.5106702031 1.6132494022 1.3160064742 7.6597739719 5.3971777310 3.7711118765 5.7326003483 5.2512182086 0.2559141906 0.1924383940 1.7154144961 2.6722898827 5.7880093559 1.6867093712 4.7436294183 11.3360477807 5.1591409768 2.2643505903 2.3011843750 6.0378774787 1.1910409750 3.4902799854 0.8402183001 3.6755157111 9.4621400818 3.1861321790 3.4113915264 7.8651659662 3.5883428678 0.7192120824 9.2577590761 0.7144181409 3.7486025016 8.0819901056 6.1094079876 1.2606177613 2.0203629770 3.6061638328 1.6658295660 3.6692319517 3.3543224114 4.2408000607
5.8885979417 6.8895741813 2.5150405486 3.3775555006 4.8509349299 0.1712160063 2.1406225179 1.8191271864 2.4566510096 8.5164423303 2.1162224628 -0.1902314502 9.4152088186 5.0988585674 2.5950970418 1.4169326797 5.0918696837 2.1370841621 4.2133687294 1.7745208651 4.7946994873 10.0734836214 1.7998175441 2.7945177808 7.2572568019 5.1369871181 0.1938090964 1.9028753419 5.2639375079 3.7057428185 3.9754564835 1.4053746252 1.3059521367 9.5851251838 1.6510155571 1.2412493123 7.4719733025 5.5005479112 3.6915397148 5.7683498476 5.5066084243 0.3691652161 0.1969249831 1.7360094882 2.8578088166 5.7270393751 1.3910546992 4.7138626740 11.3116894716 5.1832428962 2.2207119535 2.1453615223 5.9535067262 1.2379250865 3.3295646913 1.0004105395 3.8772638029 9.5687610488 3.1641474579 3.2814637437 7.4662080232 3.5510801712 0.3558997636 9.3109676258 0.9564028852 3.6555850589 8.2780505262 5.7148121201 1.1244409074 1.8255568245 3.6898451082 1.7054490744 3.9564546689 3.3192211389 4.5227298547
5.8815167157 6.8770380785 2.5201947578 3.3746120710 4.8815071917 0.1413201912 2.4459414358 1.9691576892 2.5031427078 8.4313194783 1.9756363429 -0.1590055854 9.0874610829 5.0567337126 2.5338514046 1.4131183534 5.0059786164 2.2997412517 4.1761159835 1.9369140185 4.7830839415 10.0995638445 1.8135875745 2.6969430411 7.3505509176 4.9999558279 0.1961397919 2.0287111330 5.3452697031 3.5713556958 3.7383181155 1.4649559804 1.1977583793 9.4666630045 1.5847096402 1.3973059357 7.7240247261 5.4401387657 3.7410671559 5.7572245950 5.2564642958 0.2714995832 0.1809682941 1.7249738940 2.7107214600 5.7568115847 1.6798293812 4.7246127540 11.3269329352 5.1336233285 2.2304244465 2.2935508361 5.9898055880 1.1646484340 3.4724112891 0.8668923185 3.6451057847 9.4570786242 3.2821924936 3.4209256768 7.8191929092 3.5589408176 0.6791669963 9.2222986515 0.7483287973 3.8096963208 8.1035816465 6.0812219881 1.2818215928 2.0137665369 3.5503730308 1.6525890711 3.7030784497 3.3953917405 4.2995196135
5.8893703371 6.8598452342 2.4748072148 3.3950870660 5.1034979344 0.0217900848 2.4321741967 1.8212219254 2.3981241871 8.3617676275 1.7222927495 0.0252160230 9.1144715054 5.1543701861 2.5626708859 1.3503136228 5.1553931895 2.1957083923 4.3594759820 1.8248798605 4.7080101022 10.1593836648 1.7306933204 2.7552585912 7.1740135721 5.1109779461 0.3165258173 1.5571322355 5.1840165192 3.7270435307 4.2805252964 1.7108929499 1.2980196350 9.9538566980 1.7000077811 1.2226008009 7.2539925372 5.2269670450 3.7295583502 5.4989078035 5.1547790748 0.6070162774 0.3554061993 1.7579566534 3.0796228535 6.0110386396 1.7314161945 4.3451103013 11.1754971972 5.1780655994 1.9436456953 2.2560135377 6.4378171170 1.4996694619 3.5648435667 0.5040498848 3.9759278906 9.3779869075 3.0656533939 3.4388801606 7.8814244992 3.7995379018 0.9857304553 9.2533413188 0.4447239102 3.4481418900 7.9682424884 6.4334603586 1.0515970933 2.1305720036 3.8175891767 1.5100307117 3.6521932141 3.1390654101 4.0417925110
5.8807978532 6.8826228420 2.5220915167 3.4040308755 4.7884751710 0.1433802288 2.3355467496 1.9829870064 2.4913731955 8.4595475040 2.1110475341 -0.1926297887 9.2362548194 4.9710716810 2.5888196888 1.3895932542 4.9957870610 2.2512547050 4.1761469099 1.8619949665 4.8302820807 10.0726079381 1.9010587715 2.7450632753 7.3478836035 5.0426447008 0.1523460142 2.1213708612 5.3606275817 3.6256146384 3.7261927998 1.4070578107 1.2353971751 9.3484712305 1.5330082939 1.3583585873 7.6743026079 5.5108195735 3.6736183115 5.7555088868 5.2957789941 0.3053263192 0.1625316480 1.7475185644 2.8592903219 5.7560863941 1.6511433896 4.6965379807 11.2869434804 5.0685329932 2.1644534969 2.1770034995 5.9091893108 1.2443254089 3.4171929537 1.0822669958 3.6890083442 9.5508702129 3.2461037079 3.2349266557 7.6883155858 3.5240049836 0.5467942518 9.2994117529 0.9861962744 3.7127562863 8.1454848233 5.8216712258 1.2381864352 1.8998025076 3.5896237140 1.7611060658 3.8237460190 3.3771367245 4.4033017481
5.8923621040 6.9670918554 2.4661287499 3.0946519175 4.8784278138 0.3513212962 2.2256411695 1.0935689642 2.2769580160 8.8161595774 2.0617228434 -0.2708975765 9.2504708460 5.7281206241 2.7279767661 1.3351112157 4.9455580786 2.3650407484 3.8756508466 2.0217703292 4.8447411787 10.2911231257 1.9672238225 2.6132544767 7.4615963207 4.8646081681 0.1455486228 1.5870162352 5.0902249031 3.9316076432 3.8716433060 1.5826727239 1.4260908600 10.1407097813 1.9496199389 1.0154947210 7.6068734337 5.4459080762 3.6095870036 6.1761547799 5.4567913712 0.6310949272 0.3525346725 1.5170530085 2.7218409324 5.0710677383 1.2773639878 4.2941383945 11.3078696126 5.3039014394 2.1156727184 2.3874300838 6.1981611415 1.7416925498 2.4866267586 1.6053357500 4.0805402123 9.7313070926 3.2612396938 3.4016883339 7.3514504332 3.2963998804 0.2384930949 9.1921312851 0.7126356497 3.3044208103 8.7014137650 5.2954424768 0.9815374690 2.0406874085 3.7894143380 1.5039927119 4.0248793409 3.5318595284 4.6616485527
5.8921646080 6.9686441033 2.4733961177 3.1251434246 4.8802657241 0.3258033991 2.2372345637 1.1001306233 2.2702331940 8.7687515788 2.0666649041 -0.2465558715 9.2462553140 5.7423284147 2.7235923759 1.3670279942 4.9835893393 2.3837809810 3.8633316682 1.9993170508 4.8200371312 10.2930054807 1.9369774236 2.6116731463 7.4401355345 4.8905848571 0.1786121853 1.5848137081 5.0738286189 3.8744868339 3.8410125355 1.5472896452 1.4963533801 10.1564916853 1.9595372878 1.0715305084 7.6379094026 5.4727162306 3.5582968416 6.1393454845 5.4288206351 0.6265146945 0.3555420391 1.5178670130 2.7329593685 5.1235858228 1.3033481465 4.3190389883 11.3180209002 5.2907054743 2.1020310434 2.3975503993 6.1814435937 1.7483126236 2.4976485017 1.5681120895 4.0905203582 9.6646919911 3.2230101934 3.4384799087 7.3653816842 3.2434909181 0.2305353524 9.1837275556 0.6715367052 3.2676228863 8.6899674063 5.3080492854 0.9780189484 2.0783912984 3.8096118012 1.4347494773 4.0292560327 3.5943740742 4.6731267062
5.8924947152 6.9689713456 2.4790404370 3.1588589083 4.8807786293 0.2965018719 2.2443014180 1.1155295948 2.2671370959 8.7207391513 2.0743597560 -0.2211409791 9.2476589535 5.7494974667 2.7164154410 1.3935533436 5.0260031199 2.3835667040 3.8546209196 1.9793770249 4.7985951891 10.2974342886 1.9016679510 2.6126081616 7.4241447448 4.9004233096 0.1967387696 1.5917417278 5.0523237257 3.8292649443 3.8223702293 1.5192444373 1.5318216661 10.1523236821 1.9711947238 1.1298348238 7.6477599505 5.4867111491 3.5400813630 6.0880429123 5.4144640114 0.6276227992 0.3290334994 1.5282645345 2.7553138613 5.1610200291 1.3330649090 4.3501845833 11.3436704681 5.2710064906 2.0887026477 2.3965449202 6.1341420181 1.7524894425 2.5306473547 1.5308269464 4.1145427213 9.6151486484 3.1492428572 3.4525203671 7.3918042993 3.2102474709 0.2136652193 9.2007812370 0.6810822245 3.2264248410 8.6879619052 5.3285014862 0.9787702141 2.0853608229 3.8408940414 1.4077278353 4.0268826706 3.6404418508 4.6899467137
5.8861636864 6.8859389306 2.5177963566 3.3900606948 4.8211292491 0.1716914985 2.1992660319 1.8956446353 2.4689552193 8.5028470320 2.1240659573 -0.1941464337 9.3675175006 5.0200640284 2.5988961078 1.3849839897 5.0573254443 2.2020069835 4.2487817440 1.8162396112 4.8285547540 10.1049113633 1.8549826264 2.6994324796 7.2418327732 5.0879369704 0.1576188073 1.9528763041 5.2865494626 3.6258426427 3.9008548849 1.4072363501 1.2501313428 9.4973844730 1.6165340574 1.3338371450 7.5168660850 5.4834519262 3.7089688364 5.8137181016 5.3955379184 0.3064604443 0.1543881192 1.7618041229 2.8758393096 5.6793899741 1.5193734683 4.7333324791 11.3200588160 5.1034069303 2.2143842603 2.1908189269 5.9966054263 1.1752881870 3.3298571701 1.0162036973 3.7571581153 9.5667210050 3.2855750110 3.2178730980 7.5231110552 3.6293002411 0.4035413706 9.2462479328 0.9059803375 3.7751456269 8.2926085290 5.7605788652 1.2419114879 1.8296008015 3.6192838017 1.7746264281 3.9372426751 3.2638975433 4.4872000536
5.8914568740 6.9059593100 2.5098578222 3.3643360537 4.8915841829 0.1292563739 2.0760847183 1.6600814656 2.4151052771 8.5124711687 2.1063972488 -0.1557234746 9.4545879432 5.2660134796 2.6040039533 1.3854420097 5.0362474531 2.2799876365 4.2684672227 1.7718186708 4.9036444919 10.1594942204 1.8146275594 2.7022489685 7.1868076381 5.0805116275 0.1080032610 1.8192602102 5.2134807616 3.6754339049 3.9884737052 1.4584240651 1.4353034031 9.8465694754 1.7316160381 1.2583819064 7.4777221640 5.5444213791 3.6179639007 5.7994004878 5.6196436665 0.5750562680 0.2242389201 1.6204586808 2.8355379943 5.6441005469 1.2611832413 4.5643299247 11.3115161819 5.3970360097 2.1706750887 2.2121918235 6.1753056574 1.2821083610 3.1261692648 0.9431008672 3.8775165313 9.5195066418 3.2194892830 3.4425721903 7.3653218759 3.4907116457 0.2900144747 9.2525398947 0.6008511294 3.5901526549 8.4064340426 5.7429533389 1.1230479861 1.9234837887 3.6274059340 1.5435783662 3.9713105857 3.3752710059 4.5896764877
5.8943086926 6.9671757064 2.4873383561 3.2210489442 4.8837623336 0.2346984366 2.2332804707 1.1611367228 2.2704780145 8.6454872470 2.0844185585 -0.1714349785 9.2712742292 5.7456885819 2.6983836625 1.4133727459 5.0792883468 2.2990600136 3.8762730150 1.9775635047 4.8026769819 10.2796773569 1.8297211327 2.6578274335 7.4007514658 4.8825732112 0.1849387021 1.6506426249 5.0005050502 3.8660603907 3.8524495362 1.4988588586 1.4677042805 10.0645702041 2.0035385646 1.1299574670 7.5889129369 5.4717007618 3.6235278712 6.0110507737 5.3991476729 0.6299970519 0.2893260088 1.5484737586 2.8432477783 5.1909275957 1.3971022515 4.4198055993 11.3969858638 5.2340851688 2.0604854752 2.4144837844 6.0827684183 1.7378037761 2.6066333279 1.4461305904 4.1687600853 9.5717029633 2.9503413381 3.4293855453 7.4195991011 3.2750790100 0.1819968478 9.2865373121 0.7871804864 3.1505836511 8.6766648540 5.3790508580 0.9713394721 2.0249202579 3.9078563747 1.4619417102 4.0240906130 3.5951903864 4.7188965234
5.8928739938 6.9641751598 2.4570830276 3.0696474546 4.8733053364 0.3721322954 2.2133760729 1.0980710251 2.2877766572 8.8588285927 2.0614134955 -0.2941381371 9.2577020303 5.7086267134 2.7298510112 1.3048784353 4.9209206352 2.3519246312 3.8863771467 2.0328406299 4.8604032674 10.2956229820 1.9875833248 2.6059322950 7.4778796184 4.8344020846 0.1115104392 1.5883658982 5.0995935517 3.9609677089 3.8972121887 1.6146853385 1.3563845826 10.1148607624 1.9412872248 0.9912982839 7.5730272284 5.4146196781 3.6661140395 6.2051825600 5.4944848137 0.6393357781 0.3135232947 1.5284136107 2.7188222243 5.0148818356 1.2512735259 4.2717768650 11.3091527391 5.3096705911 2.1290244154 2.3625664665 6.1729004289 1.7337966042 2.4962164254 1.6394582625 4.0800702849 9.8077627634 3.2680534480 3.3468427030 7.3575938048 3.3384605058 0.2339794568 9.2244759786 0.7944889672 3.3288522202 8.7260282914 5.2919168106 0.9943514206 1.9790802878 3.7766886846 1.6037558204 4.0125715715 3.4988345818 4.6564849548
5.8850351938 6.8698872423 2.5045963383 3.3432287512 5.0434607846 0.0805251417 2.4618406693 1.8667509354 2.4647123350 8.4177289772 1.7922694225 -0.0429886983 9.0714043837 5.1366481612 2.5160955642 1.3986446715 5.1046335829 2.2018744535 4.2674109938 1.8664090278 4.7084410715 10.1222702041 1.7731414520 2.7633304492 7.2690199995 5.0528975480 0.2819453529 1.8904702050 5.2535239265 3.6506208554 4.0306149254 1.5890456475 1.2663822671 9.6282546928 1.6732510958 1.3150579813 7.4897516482 5.3325147532 3.7203306855 5.6542309638 5.2522007466 0.3896023777 0.2290915623 1.6987091476 2.7823068511 5.8770714687 1.6991960245 4.6484786238 11.3055155084 5.1874992680 2.1502237119 2.2564281279 6.2503006109 1.3715051411 3.5183461982 0.7214480907 3.7450476130 9.3860938716 3.1219471543 3.4252076879 7.9230240820 3.7616709957 0.9123259734 9.2964316090 0.5579039989 3.5686970092 7.9956300429 6.2233074535 1.2275196228 2.0816255297 3.7007745681 1.6258574138 3.6196648096 3.1646564551 4.0641665406
5.8845337195 6.8710371998 2.5074996851 3.3471438060 5.0298978612 0.1039359954 2.4638864109 1.8776178509 2.4767829731 8.4158400877 1.8096491044 -0.0678189281 9.0669403557 5.1315767794 2.5083846491 1.4047645233 5.0938280223 2.1450654542 4.2657903295 1.8626858934 4.6811349836 10.1252832699 1.7740782383 2.8171726629 7.2688382797 5.0583333869 0.3122354080 1.8960304285 5.2746760857 3.6535007967 4.0022052620 1.5769208198 1.2261911666 9.6152406806 1.6621475691 1.3134410768 7.5070547520 5.3384632713 3.7638334163 5.7468303858 5.2454801986 0.3424041448 0.1477288975 1.7020660525 2.7404390219 5.7834289729 1.7045876489 4.6862576267 11.3704375341 5.1821020649 2.1946060552 2.2357502654 6.1703147603 1.3719585126 3.5342833117 0.7877686927 3.7646154357 9.4171366855 3.0934762609 3.4048365477 7.9029362368 3.7699424911 0.8539806294 9.3205060811 0.6278340965 3.5698254322 7.9937653161 6.1671989237 1.2019736216 2.0568051021 3.7106697785 1.6506815855 3.6400031663 3.1548872717 4.1103170477
5.8912016884 6.9009520314 2.5108394796 3.3692533650 4.8797807066 0.1384816963 2.0834826171 1.7006871569 2.4286548244 8.5091461879 2.1148485192 -0.1635343856 9.4523888941 5.2225031425 2.5973448618 1.3867677900 5.0534064238 2.2766083230 4.2703624389 1.7663646711 4.8621739680 10.1543840010 1.8117831770 2.7074831795 7.2069774389 5.1023930163 0.1430543930 1.8256357977 5.2270706967 3.6609338559 3.9821969077 1.4320398206 1.4454804117 9.7955089215 1.7066541940 1.2784544807 7.4865283317 5.5474308959 3.5970858246 5.7385834563 5.6268939708 0.5300365566 0.2095943874 1.6506531461 2.8291336760 5.6932122807 1.2670185672 4.6096186253 11.2991570571 5.3512038897 2.1909824990 2.2097639794 6.1471729648 1.2339073203 3.1622566022 0.9271712206 3.8624922291 9.5217094911 3.2134426616 3.4155482245 7.4046033566 3.4488216955 0.3008305611 9.2492377534 0.6660210523 3.6284834413 8.3898306757 5.7451346691 1.1305043434 1.9065405334 3.6184792098 1.5632659100 3.9551525595 3.4156638691 4.5730298100
5.8873002952 6.8630712574 2.4860540135 3.3716942704 5.0940910980 0.0232476461 2.4314499443 1.8271332334 2.4144810117 8.3828531165 1.7335158631 0.0156578896 9.1119004855 5.1535741298 2.5544956042 1.3482614975 5.1605766688 2.1739510193 4.3608230921 1.8162246303 4.6875884646 10.1670270434 1.7374517471 2.8090445937 7.1660428579 5.1044760673 0.3028335821 1.7382088041 5.1897380663 3.7575544220 4.2277786575 1.6704789879 1.2786055456 9.8049823021 1.6975657063 1.2114603919 7.3172764854 5.2691082359 3.7246705620 5.7042361516 5.1991046501 0.5502401110 0.1921446728 1.7310555857 2.9806583979 5.8307730297 1.7224781521 4.4621295542 11.3160774282 5.1777902425 1.9784670833 2.1793782042 6.2256939298 1.5060961613 3.6238133702 0.7048672788 3.9401426669 9.4241471510 2.9321083778 3.3979130748 7.8670527721 3.9044513269 0.9866581261 9.3518442422 0.6375543820 3.4258927734 7.8828721382 6.2175218097 1.0737511911 2.0672698740 3.9439020486 1.5779714760 3.6676473791 3.0399749774 4.0397696594
5.8841116156 6.8720412812 2.5100922316 3.3504422783 5.0138266129 0.1246194435 2.4660975439 1.8901648924 2.4872790291 8.4155339770 1.8296813065 -0.0918007022 9.0628562260 5.1252018334 2.5033137772 1.4233454976 5.0783308470 2.1021170721 4.2598729717 1.8549566573 4.6643630225 10.1071472199 1.7757058147 2.8640636085 7.2698254940 5.0699760630 0.3314539682 1.9063999120 5.2945394509 3.6601852228 3.9712936934 1.5641335234 1.1864866855 9.5975945830 1.6505795649 1.3066597058 7.5276540716 5.3457370705 3.8027648426 5.8283561307 5.2380030589 0.3029342223 0.1065683268 1.7061841358 2.7077578823 5.7032802537 1.7087994183 4.7152456882 11.4039089898 5.1762542818 2.2296173188 2.2201504185 6.0883029249 1.3618821265 3.5502107648 0.8489291833 3.7837131290 9.4504448073 3.0626614488 3.3864491792 7.8863901168 3.7575222057 0.8028400729 9.3427518737 0.7050056341 3.5760883110 7.9929217856 6.1126524392 1.1780986391 2.0308198957 3.7249744726 1.6712451083 3.6567799856 3.1667200120 4.1533760492
5.8916766100 6.9115202845 2.5093133044 3.3579806895 4.9032249048 0.1226793800 2.0755962638 1.6180746022 2.4000982531 8.5185005940 2.0955518060 -0.1486973368 9.4514366414 5.3124256171 2.6127626083 1.3891610178 5.0242360547 2.2435927415 4.2411243332 1.7838349884 4.9394043839 10.1499527598 1.8103960795 2.7274484433 7.1807194622 5.0611876289 0.0802466261 1.8273346688 5.1970073644 3.7256894001 3.9977555582 1.4860344233 1.4096821516 9.8764323372 1.7622237737 1.1998056323 7.4603843354 5.5345156076 3.6530150182 5.8749550143 5.5924740388 0.6106147235 0.2406005175 1.5943907864 2.8538052587 5.5985943787 1.2668675864 4.5174472257 11.3325020962 5.4288878937 2.1473604032 2.2049644938 6.1708513775 1.3553288594 3.1065907397 0.9819727768 3.9103961760 9.5301166406 3.1997318293 3.4522014505 7.3235471115 3.5460049151 0.2805417278 9.2771790015 0.5791837688 3.5285437725 8.4044801966 5.7256580709 1.1015382519 1.9290153258 3.6611938539 1.5450509874 3.9933056534 3.3138040522 4.6075325097
5.8955505948 6.9628090274 2.4942003834 3.2690130188 4.8873206402 0.1781651513 2.2018376262 1.2224897973 2.2845102600 8.6081849546 2.0803318040 -0.1260777979 9.3082285301 5.7258805203 2.6820043026 1.4106774844 5.0709010274 2.2594176426 3.9367324020 2.0076226159 4.8763871063 10.2721238527 1.7955957454 2.6469991890 7.3586581783 4.8826833872 0.1486030642 1.7199586853 4.9683663942 3.8609748787 3.9081788773 1.5084549493 1.3408030316 9.9332693769 2.0258392360 1.0795250536 7.5017938583 5.4430493651 3.7433797347 6.0262936964 5.3795728850 0.6246467818 0.3195935904 1.5520316649 2.9487951952 5.2520696673 1.4197765510 4.4485484568 11.3568416789 5.2415056560 2.0352854803 2.5012919376 6.2064308029 1.6848825492 2.6445711132 1.3376201808 4.1598197417 9.5504648025 2.9035433126 3.4304105706 7.3855343807 3.4256278183 0.1728263956 9.2819684686 0.6930130188 3.1410231965 8.6362749824 5.4345827876 0.9751836684 1.9566792481 3.8774292764 1.5457510509 4.0207625014 3.4471702251 4.7323328472
5.8906799541 6.8965320542 2.5121505861 3.3721742442 4.8697830540 0.1500779697 2.0972621237 1.7404552930 2.4400260895 8.5102522005 2.1183700591 -0.1728306191 9.4450401581 5.1808035524 2.5939206475 1.3921842760 5.0710374920 2.2305641424 4.2511074224 1.7646475127 4.8255284434 10.1311357898 1.8042551586 2.7434366507 7.2337793699 5.1238462425 0.1757861445 1.8498485422 5.2406842422 3.6878984569 3.9819267223 1.4134597436 1.4234288778 9.7249440499 1.6856019092 1.2580328632 7.4842607767 5.5393106784 3.6062899716 5.7122038406 5.6080719517 0.4767003893 0.2059011657 1.6818660449 2.8337903783 5.7312556236 1.2898631571 4.6513687657 11.2963914685 5.2962356216 2.2064746830 2.1943075269 6.0880608167 1.2156928547 3.2163997395 0.9368589849 3.8663391879 9.5348796207 3.1889420717 3.3746481966 7.4330841722 3.4455197101 0.3153879325 9.2670869726 0.7683493168 3.6429477064 8.3516284293 5.7337754573 1.1216067104 1.8802382016 3.6345567051 1.6023572349 3.9493137484 3.4176468547 4.5562844582
5.8873741510 6.8873339931 2.5164329668 3.3832403810 4.8374886781 0.1745679672 2.1681592716 1.8581692197 2.4630175549 8.5125196602 2.1182525983 -0.1939763785 9.3935010709 5.0581084954 2.5972514432 1.4052735738 5.0772446436 2.1516884575 4.2278909386 1.7954105977 4.8094451031 10.0859101359 1.8268387172 2.7548691921 7.2424487136 5.1158895831 0.1752040390 1.9276044760 5.2752609779 3.6745124881 3.9495566861 1.4083696398 1.2583199913 9.5340732742 1.6337632206 1.2764484613 7.4834309334 5.4853548275 3.7198058530 5.8134833400 5.4444295182 0.3289810702 0.1775832931 1.7530266163 2.8688599806 5.6940445741 1.4579054313 4.7294183085 11.3208199781 5.1372201079 2.2199183725 2.1597377464 5.9582299433 1.2138199082 3.3410886502 1.0139049414 3.8314909949 9.5727745300 3.2126604772 3.2446481038 7.4882961783 3.6121672758 0.3780329320 9.2792042874 0.9440816926 3.7174493817 8.2819225333 5.7328915997 1.1764933455 1.8177319768 3.6749303931 1.7475492423 3.9533360265 3.2684528851 4.5066261475
5.8938655545 6.9304741151 2.5079881022 3.3413454207 4.9162244205 0.1132685933 2.1097126128 1.4821847391 2.3587727610 8.5344123703 2.0735760891 -0.1213875952 9.4127749215 5.4693213859 2.6329766140 1.4131667814 5.0498727466 2.1662560803 4.1246738290 1.8011053069 4.8971770559 10.1269073651 1.7745930609 2.7633033613 7.2701474485 5.0468899517 0.1111222669 1.8270340644 5.1021040695 3.7735999589 3.9495925494 1.4978030317 1.5120190063 9.9047068084 1.8810126210 1.1256590685 7.4552432105 5.5455797049 3.5887912965 5.9292243832 5.5231067239 0.7124465864 0.2072253429 1.5625790648 2.9433209464 5.4849481653 1.3213093100 4.4159906229 11.3841220451 5.4228904770 2.0845605570 2.2497912529 6.1385912904 1.5799978665 3.0549693899 1.1528013476 4.0389091152 9.6004838812 3.0330743926 3.4063002549 7.2752271047 3.4553149618 0.2574683290 9.3810941821 0.6449661609 3.2922331716 8.3956575089 5.6166277788 1.0430342359 1.9234911156 3.7496017663 1.5958924087 4.0206469738 3.3381418715 4.6437294489
5.8834096759 6.8843565886 2.5203487468 3.4022865713 4.7902567301 0.1555166213 2.2698390914 1.9555892056 2.4802820031 8.4766019744 2.1343249419 -0.1907312085 9.3042765395 4.9703193400 2.5982770960 1.3769041136 5.0225647047 2.2846386667 4.2286668101 1.8416064147 4.8488636049 10.1093552636 1.8994936369 2.6631541673 7.2965985421 5.0530661964 0.1400814877 2.0231693569 5.3166834289 3.5661517851 3.7787398559 1.3984039095 1.2856227920 9.4229787257 1.5744828449 1.3943481706 7.6157329336 5.5055760451 3.6430575911 5.7229908683 5.3403273883 0.3012831608 0.1431541656 1.7596092080 2.8783519639 5.7579415380 1.5991765747 4.7150330736 11.2835578267 5.0706733709 2.1894780202 2.2169798871 6.0200174352 1.1602372364 3.3249972857 1.0370276640 3.6400359987 9.5518030194 3.3528422958 3.1975380883 7.6239042747 3.5337809675 0.4703402498 9.2376458775 0.8876283903 3.7990402843 8.2674261617 5.8088694878 1.3173605604 1.8764509513 3.5202834278 1.7903219782 3.8715276077 3.3640818546 4.4417317757
5.8889428713 6.8602706063 2.4764600670 3.3937146791 5.1031433294 0.0225326411 2.4298676985 1.8211490662 2.4005162171 8.3625154702 1.7232309284 0.0230943880 9.1161032103 5.1546161920 2.5618070785 1.3449489781 5.1590805137 2.1780771316 4.3640024748 1.8218953585 4.6925543792 10.1682830418 1.7320931339 2.7796083984 7.1679890728 5.1091769211 0.3239113292 1.5813714192 5.1839898892 3.7380445146 4.2775490343 1.7057981773 1.2918908538 9.9362042009 1.6996440343 1.2153158619 7.2587600583 5.2327290019 3.7345519921 5.5592018092 5.1601805093 0.5966847515 0.2993226413 1.7546383463 3.0611278339 5.9547541746 1.7317293739 4.3657825007 11.2220003315 5.1768260906 1.9498110164 2.2312786221 6.3806004575 1.5107500871 3.5881109977 0.5589688001 3.9836507331 9.3961828522 3.0196467059 3.4238921859 7.8669434401 3.8420152118 0.9767706024 9.2801736588 0.4971659076 3.4352288145 7.9424598060 6.3781544819 1.0434996856 2.1119654087 3.8608426747 1.5266005191 3.6659022195 3.0992328958 4.0505068121