-28923.3597627892
-28922.2346277462
-28921.9385277686
-28923.2210393615
-28922.3268708888
-28923.2041956595
-28923.172605572
-28922.7470338964
-28922.0766975811
-28921.2104995395
-28923.2946941451
-28923.4779748306
-28923.1284636959
-28922.7425800755
-28923.5222909955
-28922.8439006589
-28923.3966962374
-28923.2028964527
-28923.3477258398
-28923.7058123656
-28922.6973908337
-28922.0291019019
-28922.1612333753
-28923.4351713457
-28922.8140387655
-28923.6370097773
-28923.4306662313
-28923.5192267232
-28922.1327924596
-28922.6257398953
-28923.6766670836
-28923.2255052915
-28921.607906903
-28920.4840765091
-28924.0112970003
-28922.5157550756
-28923.0490164279
-28923.2573768806
-28922.6344150161
-28922.0483734022
-28923.5570883512
-28923.1747017999
-28922.969629161
-28922.1733927759
-28923.3118891459
-28923.4678380511
-28923.4100757959
-28921.2119213336
-28922.8863355658
-28922.7464480356