0.000811953958585472 -0.10109778092067 -0.0354310687976159 -1.26198419666986 0.773837116814017 1.4444822902651 0.0108497926213896 0.764219910410949 0.0560587616865817 0.233043384513008 0.0188790865329367 -1.99813435993875 -0.0887809175938693 -3.35399591225412 0.023389827587219 -0.166636452172485 -0.800374744374309 -2.65527970611007 -0.367944469661375 -0.4029664761575 -1.09256478387428 -1.94973953859337 0.29917006675383 4.00972740952796 2.03100795374395 -1.00275311155591 -1.05503441043073 -0.0694565162236084 0.701935482748057 1.65572453101296 0.253826886173001 0.400428798649191 0.136592613043723 1.38151163552321 -0.630955331578731 -0.126657618454204 0.0637414710711581 -0.147386355645172 0.304278331873898 -1.18511287987258 0.826213803566811 0.534518701169522 -1.28962148448375 0.0272670491500654 -1.26544104308315 -0.736540713637194 -0.0453732624722649 0.105088645184497 1.74205416012008 0.235436051877985 0.431314416517791 -2.21559378202688 -2.597320128839 0.258560284645945 1.78467814340325 0.88203705232557 0.6752885833599 0.830454321818537 -1.43495275843451 -0.90676745240806 -0.281026829565247 1.4359927691256 0.343607191049017 1.87600548025166 4.61498483540477 0.350053457562524 -1.00761249401863 -0.279460514329116 -0.831358835443079 -0.0749139369724796 1.89468144973986 -0.0720528148536895 0.486978771183324 -2.07844658231797 -0.289962951092986
0.0518763503362619 0.0031218318445677 -0.0416281955435898 -0.295961074557153 0.456208338676804 0.072840600455053 -0.348043884370535 -0.843194645617089 -0.376408536892735 -0.165913201227107 0.103167003675165 1.11077744081233 0.109200351234433 0.684360716174558 -0.410646357330061 -1.29514523965989 -0.233393054362177 3.8479364558683 0.172589324244407 0.396607112885918 1.766361356841 0.949869917742191 1.38190424277298 -3.22991042407278 0.737174747348996 -0.598668206101439 -0.757156579457732 -1.59243737363554 -0.673380054469913 -1.15418355327284 -0.387483558034618 -0.0600285429153846 2.40794433784282 1.31530447779504 0.679699565663096 0.765265834636258 0.368043714192095 -0.0701995646530929 -2.06235071351831 -4.69323503411461 0.756641587760757 -0.120309053810318 0.260648533553998 -0.0068239613726463 -0.334833048936703 4.06507243334594 -0.729639619209584 0.289311433888725 -0.837027086542184 0.273204509351187 0.673421192099227 2.78135728399095 4.51368625143101 -3.65866068073339 -2.86053359358073 -3.11869921409544 -4.01456056675199 -0.136748678924933 1.19597527089295 -0.219951333983821 0.792107366433107 -2.74679781871442 -0.256113881252677 -1.73060864320418 -3.52969806948669 2.40451268822749 2.84089243246475 2.4330961415156 3.53995496602559 0.785498349173626 -3.52449750181084 0.0703286339650656 -0.886497142673759 3.25734793727431 -0.3119422722151
-0.00249216900587998 -0.00947502447175169 -0.0325828021879864 0.864357899017687 -0.208142520379048 1.10089412536964 -0.54619664569104 0.202350599281818 0.164849279288974 -0.860583007307759 0.416873308857287 -1.26022144925375 0.524957801896577 -0.111467291719819 0.0320554692022173 -0.826046167727357 0.0277226483947182 -4.14975758572123 0.956860743623742 -0.721850723319341 -1.655129578049 1.20401664898311 -0.353240338283445 4.24348813145213 -1.10206294826252 0.823566597120454 1.77735435983444 -0.349831828584595 0.26214928569341 1.44648543570251 0.504304140879107 0.151187986814154 -1.30811799106407 0.372599706638623 -0.199269390846197 -1.32136739302538 -0.656245203419891 -0.219881914234354 1.48458710797315 3.01304441228751 -0.480048366194828 -0.365956750834958 -2.80349395654519 0.281773220427114 -0.0362934163521111 -3.03847723739054 0.297151237595244 0.00350698289902022 2.23326187959688 -0.233332119248756 0.22117569267628 -1.06084947144445 -2.58525163394918 0.830954915345252 1.12231963115711 1.92267663492878 1.77412094217036 1.09069970660526 -2.09670629041954 -0.764947789339624 -0.955478519278791 1.38018597541857 -1.2223604321146 1.04673797903883 2.6169119247998 -0.871358752196383 -0.832027321919432 -1.82355757397811 -1.72262177247287 -0.810936830700683 1.94691106946785 0.440864260052857 0.911560243333326 -1.28723704464464 1.19037875353496
0.0110143431386457 0.0298402078636574 -0.0421195331037092 0.323596048379396 -1.29815908522751 0.286109126556811 0.879611731967325 -0.250692198819272 0.387908561167469 -0.289423276818422 0.960445888018459 0.41924000809376 -0.793130664962293 0.420335297474245 -0.554973616015369 -2.15254882244204 0.434014844772073 4.79093741795578 0.599871224648691 -1.35036016572517 -1.48627940719906 3.47907513129359 1.69134457579523 -4.5847710464449 1.57841844089587 0.559481785967819 2.28997035871644 -0.500158496284987 -0.380219424028312 -1.82355191755408 -0.72080145666165 -0.777129412710055 1.04031485244181 -0.541391770587162 -0.00200417387814242 2.27323428556058 0.722826713574816 0.439366336125461 -1.7830354664427 -2.25428757904946 0.506014437817838 -0.238825535423277 -0.550666506226191 0.536716736125807 -0.0614074248279539 0.229768829219612 0.106929296986116 0.83235693717431 -1.0226346706932 -1.05521515888953 0.270127928898864 3.00816420389995 3.22371741108974 -2.14860963732504 -1.26378525350326 -0.536227712557336 -0.653003558229946 -0.434638594076547 0.450632390133471 0.0184682244601629 1.27978316332312 -3.09426294806255 -0.217550696203165 -2.2046933386994 -2.41607853270912 1.4012124462017 0.85199012787461 -0.178640926626682 0.575230556020142 0.595286692971826 -2.56435089004564 -0.719717737239409 -0.831245964072649 4.54450142110941 -0.271264870129031
0.0518066734766113 -0.00846483856190928 -0.0359314052141477 -0.261476171233759 1.0049434332067 0.190045305913261 -0.851722219063702 -0.871425343733835 -0.316319315974112 -0.187737999129111 -0.588471216235226 1.09371046685068 0.331349977284722 0.879248692388629 -0.439796995682342 -2.07944442693901 0.27982818189111 3.98944373006413 3.2261363036934 1.26354948346526 1.22494747477808 4.51656408571171 0.95269658709643 -6.17914060310728 -2.95567953087021 -1.33387528921831 -1.28558459749713 -1.70592118052229 -0.647341991995604 -1.31547931271963 0.0965705848146623 0.0169718431938654 1.35974854406518 1.46454871162411 0.766650372972858 0.797285822633192 -0.0355341699810842 -0.288091188959198 -0.79591311136502 -0.235333722025066 0.250977076902272 -0.274820961073044 -0.715323981318488 0.0800623112811292 -0.514155317548899 -0.31533638374369 -0.381156847756305 0.37858420326308 0.146419107135926 0.29975910618357 0.690424145625261 2.52582987106618 3.91539162642578 -3.3969384550543 -2.19123284927767 -2.82556403756198 -3.04691893603596 -0.89249552324811 3.42789580666401 0.593732719024489 0.179549811124339 -0.62622784664 -0.513069541245192 -3.48489533451097 -5.7376487370972 4.6542429892795 2.72876513890462 2.54212500025783 3.3319003773292 0.887791178225869 -3.24028636262651 -0.2918848497125 -0.243197694088807 0.868453921346447 0.101887880513683
-0.0453244115374545 -0.0763856356611887 -0.0179529756530048 -0.527208801550604 -0.22431217980129 0.579435335956401 -0.36841549551702 1.00491823640875 0.669486634965524 1.45675698752185 -0.341097281440496 -0.3351608644203 0.167613213758509 -1.04042438137986 -0.0577137799359213 -0.114199858747002 -0.0937416014687737 3.36959864372238 0.124011954668946 -1.26105731445938 0.81326624896059 2.81081234080015 2.0277786498428 -4.23725578061105 -0.956511330884756 2.6982857551255 0.746694251882444 -0.31665767297522 0.660263835583504 -2.24332362950673 -0.62368605536876 0.0824878887495571 1.37801879368427 0.281003946758942 -0.551461490912684 1.03111467875591 0.608636110794409 0.728875230634893 -1.97978774859525 1.02423286759205 0.165126186956294 0.139769466467498 0.109435864162256 -0.101533582681216 -0.443902788198064 1.46946774364933 -1.20039653760347 -1.2056770665463 -1.70151688308386 1.03936508742502 0.253247874040406 0.0685430037426539 1.73195358657257 -0.10060155826707 -0.043231791756287 -0.0936752670415049 -1.34663412495005 -0.266985785349823 4.72463152991726 1.29403195256658 -0.417715601817492 -2.09539914224809 0.375692742142671 -3.19044118273763 -6.35155586375765 1.69874960618194 -0.310970395722556 0.200498634632137 0.896064212591101 1.11245662741889 -2.96637788559369 -0.980412036406019 -0.350105650929717 1.33323328509083 -0.296747831717784
-0.0140395015543254 0.00406362644567555 -0.0163519505421398 0.737440856388621 -0.522065826555802 -1.0245491131174 -1.31247189490659 -0.163731878432732 -0.433791158912678 -0.16220798637683 0.309352658449782 0.425193651496231 1.73994611372792 -0.725280573163397 0.913099304890037 -0.250421718906533 1.21986569200688 0.635725239697691 2.05326932473705 -0.286717963470659 -0.50021557474566 0.5311220185391 -0.538210289180089 -0.78732100326242 -1.98409588682516 -0.073712461086327 -0.27460370296823 -0.293336236696735 -0.283537253394136 -1.31021523882853 0.585702396672209 0.00361625472688558 -0.291022245047822 0.515367592062746 -0.030256983470645 1.58034805282088 -0.672963021752742 0.0505776868008549 0.424795644932618 2.70508169148817 -0.179702277462984 0.630021764503486 -1.6582264702058 0.0697676195452957 0.910472410148154 -2.60302360403321 0.245424268275429 -0.510503838726913 1.05222419612822 -0.258306259784931 -0.818572746031915 -1.58919110046229 -0.974884167466947 2.11066737336799 0.877756681995446 1.37816766048035 1.48795499426306 0.207419012323488 -0.828990079325141 -0.490245098950858 -0.65953441399373 1.92254190919278 0.0613824851401823 1.06485601942946 1.54395410638713 -1.68004638301432 -1.1230824770707 -1.15806103194587 -1.30798352243825 -0.320039957435382 1.24230858278933 0.0912471184712449 0.572448109617415 -1.96618276325055 0.174513279745387
-0.00412558999982979 0.0915039715442743 -0.00490386252441441 0.575186847288996 -0.826384267618281 -1.42926342430038 0.892878360310914 -0.061209192876697 -0.264433966781437 -1.49235209261636 0.818152627992546 0.970982263326512 -1.07903358915217 0.0582819934408212 0.142787940018414 -3.1113926569089 -2.74247939607718 6.91643362114056 3.62863766752947 1.62557553381926 2.8129818365261 4.67075434813523 3.10465302767635 -6.87958381835197 -2.23813463178913 -2.63310626679963 -2.24959506109565 -0.0439941234495124 0.0094061189426507 -1.87743629842124 -1.31331007410386 0.194624181166095 1.23728387847881 1.02787174801505 -0.0343231810181527 2.20463780289982 1.09990090873189 0.416264986163806 -1.37877135519053 0.133362537812023 -0.23843524216516 0.807629108193653 -0.758799513528461 -0.538777988464622 -0.130027818735755 -1.15927484912081 0.56812043101358 -0.790025031059268 -0.0619116178972339 0.628360832719932 -0.363414959563718 2.55175043418676 4.44329411125069 -2.61430097088928 -2.6706731498892 -1.3692593068524 -3.05073753647703 -0.788780617772519 3.33161421369528 0.613652844689254 0.477062031416813 -0.363435785488558 0.0518118156802755 -3.13301150955415 -5.95151632992585 3.31256234911923 2.13981132685551 1.48227877274827 2.64083448468664 1.17764537171136 -2.72447808370974 -0.700432673727179 -0.520067051991507 0.711273981712523 0.0213288323585866
-0.00152234939480196 0.00254230549160644 -0.0381749486728611 -0.035258290754497 1.03770775518404 0.387256272632658 -1.20373459911212 -0.87087589927231 -0.0617221276922062 0.33040946823453 -0.607033800132628 -0.224637938403421 1.8499895292531 -0.366157039667681 0.159342236274742 -0.725075656347376 -0.290695200894775 -6.06619081407106 1.17222960281216 -1.83143748687321 -1.52755227646945 0.112926649119733 0.49007566334012 5.40335510532488 -1.36650102880689 1.61323758745744 1.64948626663767 1.16146414233087 0.514070728298622 3.06111450347149 1.40894092119888 0.293071413208026 -1.22420905433189 -1.05628910812481 -0.313759269879864 -2.56758147949771 -1.59070830765343 -0.202652703747092 1.26592081068503 2.66437189351902 -0.327706211768233 0.00709804082795096 -0.743136104056964 0.0322308183471684 0.464851354595679 -2.49334425652745 0.43582567179244 0.000614493337878176 0.783864156849127 -0.185505511408276 -0.204884420137378 -1.47619477448291 -1.40906047743408 2.0952412765956 1.0839418225497 2.05897125727016 2.3270978405029 0.643697198038382 -2.1277824269339 -1.15177005998302 -0.57925278772632 1.88481613200999 -0.12523194248829 1.44875443306936 2.23203263581094 -2.21716961033979 -1.26547035364404 -2.03029267321426 -2.07986814452095 -0.866265142356758 2.57137951112413 0.742405139806091 0.742162942013504 -2.603002263888 -0.0747902669743543
-0.0277676426767804 0.0287436329322555 0.110213108246107 -0.261226260135677 -0.0724312810433785 0.108542663385775 -0.333810264627884 0.00321799105308923 0.385396080457115 0.164271552707295 0.160224124203162 -0.327908814592604 0.228109697207341 0.0365335572632316 -0.144724493918372 -0.423837138169601 0.329973666473985 -1.42347998783919 0.417062799062315 -0.294174673004192 -1.30092147703595 0.764222224402598 0.11113047737981 2.00305519173526 -0.562379674842809 -0.122300886399666 0.61520836129769 1.13565387947889 0.00092919620213043 0.415087678634876 -0.159884224540955 -0.240721465914287 -0.280320547891962 -0.835107759024502 -0.0150592005409467 -0.234730541535249 0.245049915848671 0.270056452267931 0.20124476838382 2.75741878327275 0.25371555746367 -0.482918230059847 -2.56699449694944 -0.158282170989357 -0.848110078099748 -2.56560584484991 0.0108875878183219 0.956771269279984 2.10171659655981 -0.0523707732185798 0.281559561864864 -1.12886334243006 -2.60357433404565 0.495703291030278 1.04467955491203 2.48634366045893 0.324279704356558 0.817274082496508 -2.06291069949734 -0.669377106027476 -0.62321785772513 1.86521070920948 -0.375009086165508 1.22707814686636 2.38342348255965 -0.578247744020142 -1.16402187443347 -2.50691041823448 -0.345362225159627 -0.840347664558376 1.936763701867 0.750838353815465 0.590526555039828 -1.74841763715459 0.363210556968064
0.045883626185942 -0.0147282997351521 -0.0317906457135083 -0.599944758161089 2.02631980666325 0.601224909763305 -1.12243918739231 -1.2828880258956 -0.15745093376703 0.371445281915998 -1.93519404419849 0.318133228316677 0.367283696490519 1.50324559396889 -0.499880045956568 0.425698615896061 1.35719364017459 0.341874268414164 2.13048774028167 0.427545952562443 -0.955528912874701 1.41596362874315 -2.94166625455457 -2.19262484380958 -2.3297856703582 -0.174147926175041 0.426893921137816 -1.60508462354777 -0.53739087902619 -1.20155584741958 1.11540928076291 0.241512079727665 -0.796470012021859 1.56328956349527 0.756683496720621 0.920835750302905 -0.773426254741244 -0.549229003191849 1.18607267218652 2.39031223569847 0.0411458568398829 -0.236228979683012 -0.767852877299744 0.0966281774957019 -0.584981973938847 -2.74490985863909 -0.259315674364224 0.355085360958179 0.915233319410702 0.315573953552978 0.533194326615794 -0.00329126745530482 -0.0483390284356226 -0.0604229499364328 0.398536467700746 -0.69658244873357 1.04276614092856 -0.813694594525822 2.26946273628304 1.00540674575685 -0.705841500651423 2.19267266630366 -0.289702498477391 -0.526714635778469 -1.284588038427 0.741572359922665 0.258525060550845 0.343751944082166 -0.253413967218761 0.0723145530201999 0.216081311506105 -0.394935639584853 0.5226019012878 -2.06374707892333 0.181927566098689
0.032007903818323 -0.138912004006484 -0.181051077484117 1.35697226830685 -0.812289230264382 -1.16403858659538 -0.166115289831113 2.73611103394919 1.01242122577526 -1.1719732639595 1.14569223236206 0.272318250549653 0.745785367384787 -1.30728289718899 -0.620770940111495 0.230984960386208 1.8371581884497 0.771429794168598 -0.218486577270059 -1.56134221096762 -1.24023704604319 0.87541363689583 -1.35613280355866 -1.22124714502129 -0.710168407924708 -0.580123362806678 -0.133683668430855 -0.0604270636993642 -0.49792189480122 -1.9669034430941 -0.358644794334574 -0.238803938167887 0.0394108773235641 -0.713275070268467 0.112274617695106 2.25588089085483 -0.199110753863155 -0.317434145728522 0.37104290447927 -0.551335764033094 0.68887299988994 0.259361954197202 -2.55095519239008 0.862594894491398 0.573881755999009 -0.259872060800696 -0.00753178570703066 0.179897681202225 0.810150844870602 -0.526204272064792 -0.0205454176303377 -1.04459213744974 -2.97424262898798 -0.0903981406462768 1.46035910118866 -0.219722505920762 0.673817656001741 0.697223681530502 -2.22586764783787 -1.27916558466304 1.4223265915573 -0.768626007620664 -0.883621879494893 1.69626463626119 2.8875278488264 -0.876191909420414 0.932990634214282 0.64341694793868 0.658599561367569 -1.69359094746596 0.529392438336629 2.16239331424707 -0.561932560234202 2.08939639080063 0.447398715359206
0.0537144310360489 -0.124715665240399 -0.165239829657274 0.79730484878675 -0.327680243639728 -0.935709831511939 -1.11943511201165 2.18550983370954 0.897400928433624 -0.14947820409579 0.680778399991857 0.265404300612882 1.38964814438116 -1.74071384473499 -0.690609779177541 -0.739513421575498 0.601126693673318 -2.59988865956929 0.494948929752733 0.344729476998741 0.447445509412551 0.349283412563803 -0.694474659451593 0.345153708801041 0.750290194904856 -2.21359552168295 -2.04882543233041 0.646917245972937 -0.361955087943437 0.843061976762551 0.849406427643506 0.519902501474251 -2.46524005662084 -1.41349022878065 0.123288703723569 0.160729602823358 -1.50102878996923 -0.907842944304438 2.34340659653426 -1.02687724582639 0.964586647519098 0.403029982372753 -2.09126018251873 0.679011024592453 0.796096688035834 -1.06872244236461 0.264462248901591 0.44247068447757 1.09808365395694 -0.460751732724354 0.022196322116746 -0.788284395118918 -2.16693876517609 -0.173109458145046 1.5571214902 -0.00435621783417152 0.994918707163241 1.20956791494885 -2.51792578981386 -1.61196154961815 0.885037785273845 1.39334050372227 -0.631460553088743 1.80370789650355 3.58826005591703 -0.311757152883187 0.668903509069998 0.555861417478002 0.302522783542922 -2.17759032584622 0.785378278718066 2.9914831523233 -0.478254765556737 -1.16528608520432 0.378480844969428
0.0480520934711573 -0.0925601801769117 -0.11931763694385 -0.168613115261023 0.10636545435433 -0.421170648459503 -2.06248466792376 1.35276671704004 0.816768089655946 1.27569511141004 -0.146736381102011 -0.00358874393728183 1.8109758871626 -1.65858925267431 -0.461797142729297 -1.53728415401423 -0.823920637842738 -4.99070097457411 1.52515420979062 1.51595712142693 1.75900183495672 -0.862745303948577 -0.244165199708237 2.30076821508082 0.671770544723002 -2.06310378924494 -2.32510755057465 1.2073601098056 -0.284528670260604 3.71702854897541 1.65263020995799 0.849442165958973 -3.31449581769698 -1.94671515150824 0.224883478628389 -2.65777136089559 -2.01105028999244 -1.06725897120176 2.97277555828257 0.115855134106525 0.504638641227467 0.114271335377936 -0.33275199911378 0.154221372755697 1.04038041553853 -1.27439104856079 0.236969714120848 0.325493007311138 0.490747235138672 -0.109948798977765 -0.0209791625094174 0.0117252527952286 0.0674268884373279 -0.374417475633936 0.701127642552403 -0.112413457194041 0.507809581117028 1.39360224188879 -1.82409339159993 -1.45078997438985 -0.231961721972232 2.86137820053258 -0.103332325522971 1.55840601267533 2.90692964036181 0.0258159192760133 0.0031930513653176 0.303400043488044 -0.165419035454973 -1.98319522985337 0.385151054452514 2.84869058432159 -0.0551017975846643 -3.04221124858133 -0.0199162690120164
-0.00977687182684331 0.0549467601441871 -0.00269528605061796 -0.0148825658450796 -0.166006018003247 -1.09664486537168 0.838763351609419 -0.991554163305721 -0.0446191583049023 -0.832871414650919 0.298289978596693 0.476060330143017 -1.02868858706712 1.74854079293235 -0.266762870820977 1.62839217587636 0.350081996792861 0.555326371186737 -2.75405706762725 -0.889312499179938 -0.719347755685766 -1.57320938858398 -0.570353690064965 2.366105311949 3.23829170182514 0.829912333552325 0.790476002320623 0.221293449140191 0.0753793064040944 0.0857012518193485 -1.04148701776708 -0.286185745391409 1.96756164516312 0.339864438111991 -0.0901160907752925 -0.453660890981533 1.12233917153104 0.826617723664638 -1.79551379496456 -3.34274477063674 1.23285181314059 1.14103288162188 0.706246706300166 -0.518538274842125 -0.275970500702188 3.19126547798501 -1.09311962764965 -0.740186536035149 -1.10773505601438 0.877042687016665 -0.35220752667748 -0.680187817901017 -0.775200057895228 1.25955861920143 0.0163347241598645 0.265260318910283 0.115172763680279 -0.2159144469972 -1.10596408107241 0.713184567483976 0.987235997778665 -3.93258149905501 0.424695886181531 1.32500344523637 0.994707876813007 -2.1155835771812 -0.82754306321402 -0.0262026129915651 -0.819401155042226 0.813832662694207 -0.564990628753333 -0.948195102008744 -0.999764977006616 3.45649365812239 -0.264086096703551
-0.00360905564175563 0.0563708934490018 0.0445044871631895 -0.355637376521536 -0.0402500849615701 0.654944483003018 1.70873885102012 -0.346516649882252 -0.360440966074498 0.66882200514192 -0.592090299174127 -0.194078079136951 -1.32316742141805 0.717629231221173 0.519232215226615 0.691966549614354 0.706064929400635 -5.45561532116468 -3.49052116242984 0.900118068849815 -0.783296714674776 -2.00969249111489 -0.970558288634395 4.17442576513938 1.931501170637 0.350783650482848 1.00054710618395 1.02381429221378 -0.204298980250203 2.53334391617057 0.212914228269292 0.0868726458140652 -1.09425502621872 -1.50189833660886 0.400022564559715 -2.72806297099427 -0.604485066886441 -0.488613220618007 1.00418804348842 1.04418050404641 -1.41132330415653 -0.670348725409836 0.121657339611085 0.292375673052253 0.840513243516365 0.255461335607683 0.816191391515 -0.112937961967795 0.611224953229177 -0.99052726523397 -0.213071322591234 -0.684088179380353 -2.30885124502066 1.77267803982217 1.16968189800671 1.6255045714087 1.26508623103032 0.907815433514834 -1.82826963230585 -1.23244917859368 -0.176653979130815 0.949651631196643 0.0951783331725659 1.51176622544056 3.08224227566681 -1.64929909042429 -1.31481519711639 -1.07085234312234 -0.995709578086803 -0.808542620674607 1.76146469340172 1.49923956020426 0.41356584346044 -1.49314090665845 0.0856845396574397
-0.0171379363722208 -0.0605224515773361 -0.0311938929782718 -1.01602925297628 0.0474743668894785 0.336513263983998 -1.29305981896385 0.966140364356252 0.625240543536464 2.67125190491161 -1.06614105612515 -0.234791733758854 0.803613047131872 -0.872794969679809 0.226167486883353 -0.745212525896589 -2.84344990745716 2.16767307185934 1.44488466770183 1.72169386182165 2.90662625034562 0.256910665710453 1.42689569662317 -2.39746452677508 -0.721469686027819 0.393199888737985 -1.08555853138174 0.138897862946407 0.394586998176417 -1.15255887402512 0.48671754723718 0.605449230073488 -1.44326590198832 -0.81648269735258 -0.175035213417308 -0.837660348923437 -0.53428961599628 -0.391617375560311 1.00558775132583 1.96389062596721 -0.203382896667416 -0.234860896398138 1.61996076163826 -0.364147980696057 0.355021597632742 0.690170634984614 -0.791253503514658 -0.779484027767916 -2.0408200496659 0.853483166708525 0.0145614352262471 1.7104743447568 3.87082286171679 -0.862458883204478 -0.978995359296517 -0.550486014877576 -1.27496928936283 0.342681337279269 3.02172830872552 0.572448623837782 -1.32710223566194 2.2936115531311 0.432433360035132 -1.87592937563743 -4.09422024348621 1.29228771708367 -0.613848248428495 0.0379800591539859 0.102444781170521 -0.180790881978706 -1.73757504361833 0.552228707699391 0.0317145410992774 -2.48243969943703 -0.254967684055915
-0.0159287471805718 -0.103154919496554 -0.156512995818671 1.44116402624056 -1.26968336110616 -1.2292478997025 0.258505777287104 2.51496850848655 1.07024864841216 -1.78470719685395 1.48727828026084 0.204050611813219 0.439563796746168 -0.842111954635581 -0.525518044985798 0.66615860075402 3.3707731230393 3.05372232859395 -0.144706239095364 -2.77464850798038 -3.95135722729429 0.617054155302974 -2.12327579964255 -1.96331392782627 -2.26035769336493 1.88169738548762 3.42147370850773 -0.34087436691165 -0.523167543690868 -2.58395888394799 -1.52287827044883 -1.26964890834161 4.02097983669626 -0.228583037054635 0.1260971182548 2.87491942255184 1.33134609634605 0.832602991619645 -3.00116823581474 0.422086989152473 -0.00551321365862834 -0.000534017850532624 -1.24055123468707 0.478919138270158 0.455647581367217 0.626713013555722 -0.251993690566695 -0.210770443561665 -0.229423016023191 -0.261789845657279 -0.121280673192678 -0.977663528547476 -2.32417963992343 0.113943777004523 0.642477467329221 -0.539348001740805 -0.0636319421331096 -0.156603498603162 -0.827502954025439 -0.386232202772923 1.43911023009705 -3.44875078495494 -0.733609914658753 1.33715987180885 1.46152123921678 -1.48620973033941 0.558128872183754 0.499593625212469 0.568487327245025 -0.372445954749062 -0.929659000460213 0.32467282582669 -0.50474611328405 4.84097594470244 0.305199557660349
0.00272022573838958 -0.0147208435398389 -0.0343807736991923 0.322346235778799 -0.339449205166103 0.260109116389618 -0.308308276885573 0.280609025517527 -0.0918215026205419 -0.225198952823191 0.475759511228658 -0.594317387581115 0.363351967568831 -0.187003949556039 0.350374073960991 0.466853471592356 -0.0642726607096754 -1.39758127908418 0.716525714314824 -0.970524350090211 -0.275383775264097 -0.316890871911393 -0.315777070597716 1.99545090095656 -1.03984871167965 1.16643253951127 0.261145784648331 -0.0227858757668525 0.0907940903284242 0.846894204043335 0.340373002054386 0.0992851541290212 -1.00383991630035 0.0172196974104824 -0.11791150135186 -0.901990859424336 -0.389343235989795 -0.123823235794468 0.955265117826724 2.10695110277983 -0.396147656988518 0.0619288442795091 -0.962953483635332 0.233728326041086 0.429989270633513 -2.04272240791149 0.215541894341725 -0.319963338600784 0.51487085518878 -0.186847369454463 -0.32570280922064 -0.685387871356492 -1.98426403688498 0.331985810767807 0.848379529571755 1.23281376083347 1.29983210118967 0.798343316816746 -1.56443267536983 -0.432598424772755 -0.465913219652347 0.254673035785953 -0.424588157014765 0.731240901430632 2.12487888163488 -0.505662453977019 -0.631556198076899 -1.27588151629287 -1.17532006721438 -0.582819677298029 1.53880804607013 0.119701759557569 0.444552762741226 -0.172268450735757 0.570474017630709
0.00808045883800641 -0.0148514555129109 -0.0316420360276114 -0.152483822137546 -0.62032074018069 -0.674500540648354 0.0409021163861974 0.415503168690947 -0.389401857111568 0.391428913796016 0.655980894151548 0.209827106299458 0.0939506320477256 -0.322377603221151 0.652895314842814 1.70922556059694 -0.643523648664713 1.90118659448532 -0.589354389714561 -0.549495626451841 1.44490986449978 -2.90091094808299 0.0947520444887994 -0.953468174756251 0.160336481353226 0.851358665264639 -1.51861769760281 0.340745554709861 -0.0913137100086969 0.26955534452085 -0.177264872926128 -0.0469372637167473 0.0344779613484467 -0.328192407124688 -0.0329090750104833 -0.365912527883446 0.233543463819357 0.0938986957907167 -0.323886068666059 -0.784591778667618 -0.0536059305387332 0.54756601452683 2.84839773582291 0.053930917810314 0.650894997617419 0.956060616733584 -0.0835950051984707 -0.622855589476983 -2.22833487715598 -0.0319246001189621 -0.663959537357003 0.359787391988771 -0.143545129507975 -0.746054047526244 -0.00068442730771201 -0.36560399566359 -0.0333096526759285 0.160501546090848 -0.166071323989783 0.140554166746663 0.250938253264607 -1.46605357752645 0.510473499725294 -0.129565534626339 0.513070312575742 0.363786226668277 0.0723538908782315 0.110674106804608 0.1183948684963 -0.0825269694974054 0.312420497155876 -0.301875380101593 -0.252341817754764 1.53053886835765 -0.219039364163966
-0.0271369513973598 0.059792001546829 0.0335405376204535 -0.493727142162106 0.446588818282087 0.58634748612189 1.57820221123179 -0.207131563138656 -0.538699569858743 1.09580591484386 -1.21914604060407 -0.367327405221665 -1.273542327846 0.447806492109782 0.800000649057734 0.561100294571143 0.0647549994133823 -5.85211136245145 -2.90106418575218 0.512562519963897 0.661819352191941 -2.48789120665169 -0.64242938772496 4.21359650155183 0.909693880513386 -0.0587288509392448 -0.318137084969425 1.26379785190224 0.00167275885198134 2.93785228209679 0.425580345211783 0.552940645796707 -2.2834557008942 -1.38191941227379 0.276999969875771 -2.86909330580024 -0.7845951211 -0.788563616777887 2.1313847977109 2.43995892652591 -1.84727547415911 -0.5892374045812 0.775922023289689 0.0721579729186234 0.783695235458756 -0.784217426240861 1.20513996337356 -0.250714053184845 0.679720905808303 -0.647314224095817 -0.341168243851062 -0.923102690788291 -2.1949555476204 2.12460788750178 1.27928899755099 1.81504414159158 1.33706602659198 0.777053565206007 -1.30750015529381 -0.983146403204485 -0.7652483511438 2.73403332655865 0.265077513570019 1.4986155537896 2.63274194167002 -1.69099002085258 -1.53032315291393 -0.959373995664645 -1.15871254915013 -0.663109016870935 1.77159817705267 1.37479617464788 0.731136771806431 -2.72141564431749 -0.00699134010191772
0.00813985129032852 0.0156258713847473 0.022311250368642 -0.468158048661977 -0.572417513505613 0.262286325421062 0.722295009715932 0.481787973694445 0.32714416890773 0.628404541451078 0.590201310658064 -0.104954176558676 -0.785694010023051 -0.275100182732013 -0.373955705744886 0.534439511233093 -0.804833549171582 2.58136927018267 -1.74882309991352 1.09870251816793 1.81228817753772 -0.619936360456787 0.699943393048526 -3.07951819327567 2.06152616116074 -1.02186051193154 -1.48961104095313 -0.0665118332952742 0.185350473967799 -0.690535217224409 -0.70672081747801 -0.151038862907891 0.432121485382895 -0.289524835340791 -0.0430906382657032 0.431338841985196 0.583148521222358 0.0781360417885002 -0.436621684919666 -3.73314421525917 0.151279518039378 -0.0259249339936955 3.03940874758432 -0.0705253232552233 -0.122208840954076 3.42814160399916 -0.194874092264178 -0.098426406117091 -2.50937867599332 0.140349764151009 0.344178489876116 1.78331725920351 3.245991637592 -1.44281775893898 -1.59620480915015 -2.55300770298267 -1.60337844037197 -1.20109330619998 3.18571112669706 0.946703605835927 0.799098706535024 -2.18120709479347 0.229541543817652 -1.9251222669915 -3.55089449010092 1.61974915995748 1.75124893449213 2.77835346572048 1.54430968977051 1.07950975721148 -3.2884328155349 -0.665197265778988 -0.768366583445802 2.05584993964596 -0.420192601322562