4.4771213328 0.3032686819 1.4321632849 2.9359586378 3.967043372 4.8826031609 1.7906928954 1.5109969921 2.1020737165 7.4245856747 1.5153339417 0.2001602145 8.0539051994 4.7126231768 2.8171699944 1.016872288 4.668985918 2.2778008089 4.1649367817 1.8384235468 3.9916910569 9.1524722888 1.5444610979 2.9877593317 6.2030040812 4.4751603969 0.4855193298 1.5508130159 4.6277145149 3.7280995411 3.3948804952 1.9913657881 0.4168294785 8.8981100854 1.471014714 1.4732433956 6.5248865776 4.6055231144 3.9369688671 4.6546685724 4.5696116535 0.6669058041 0.2676859224 1.607041364 3.276216886 5.5950933766 1.3108001918 4.2274648983 9.8872447452 4.6143576418 2.2218722351 1.5650651061 5.8997384038 1.4803804141 3.3382211625 0.8235037423 3.150000703 8.4069682052 2.7349740709 3.6930591687 6.7767925596 3.1816315837 1.1324322935 8.4796353922 0.3197998671 3.7334404406 6.8803316303 5.6623851785 1.2875791964 1.6183042939 3.4351557141 1.4744432625 4.0272720127 3.2338533331 3.3374834804