0.62882645926173 0.192488623984331 0.273279585524685 -0.0641091386331522 0.0615100117910558 0.0425540493133385 0.0324138807976157 -0.0538501852127852 -0.131291001065878 0.0897173128811297 -0.00927319297792978 -0.016746357563188 0.018106727542566 -0.0517076860560744 -0.0359833414711566 -0.0390596648132957 0.0322768410699634 -0.0746138893886704 -0.0769237672746527 -0.114279820013982 0.107108759893998 0.00748422032313633 -0.0386865979374542 -0.00866898404738011 0.0522967254858145 -0.00566439444635736 -0.0304688422616122 -0.0109801474842784 -0.016909622529528 0.0102617816323823 -0.0986953433687314 -0.00587213947439316 0.0989889631979602 -0.0188523470738826 -0.0177107778604185 -0.0485377746072459 -0.0377846554147443 -0.0138896063175125 -0.028126311382362 -0.0686782436990238 -0.00073533512398811 -0.010535861087687 -0.00469868859821074 -0.0175495697755442 -0.0767080518309373 -0.142212527428384 -0.00469971703894359 0.0550670877099306 -0.00575823966322997 0.0409237136415872 -0.0573132022704761 0.0481580228666409 -0.0682182735812564 -0.0610004194079283 -0.0641667313141918 -0.0108222818317858 0.0792572992974905 -0.0143827436489143 0.0175194878841083 -0.0433711454755882 -0.0094976501678744 0.0364304560797634 -0.0213224046040063 -0.0281525366210497 0.00494217194171309 -0.0542044830452522 -0.0644384967778476 0.0214681860778878 -0.0445818773283365 -0.0147468116683434 0.00936626686425275 -0.0501889362038374 -0.113865872619009 0.0129436979534732 0.127145099361575