-3.72846725095701 -1.04500984579342 -3.1090541492439 -1.04500984579342 4.58565505945678 5.76653616627114 -3.1090541492439 5.76653616627114 4.47975540013163