-1.93257e-05 2.817e-07 4.9469286556 2.9840691452 4.6420369561 4.8977076909 2.3244185505 1.5828935223 2.4513804955 7.4222915025 1.576693335 0.0492179311 8.0819425017 4.6358367349 2.4955486079 1.1249409169 4.6388291163 2.2030190735 4.0750627555 1.5475173849 4.6753064329 9.2814235327 1.5799030242 2.7439282735 6.3312972383 4.6712127572 0.2716131094 1.3408839517 4.6880996164 3.7317517428 3.8308106846 1.5441457417 1.2492754595 9.065476199 1.5306304646 1.2151630622 6.5755495611 4.6745848046 3.6976569274 4.814846766 4.6739070535 0.5730826669 0.3951611621 1.5235353507 3.0808276355 5.5915158047 1.5448237271 4.3738456815 10.0111974882 4.6951955952 1.8660985445 1.8381040202 5.8476752569 1.4608580705 3.3238041798 0.3498550116 3.9670202335 8.5573789083 2.7991969004 3.4205608985 7.0625668038 3.4517459214 0.9714241877 8.5682586951 0.3710578593 3.4860680213 7.0825587447 5.8688773333 0.9799080376 1.8489844915 3.4195309761 1.5263644334 3.3437957214 2.7669832746 3.9755041268