0.000138582388751605 -4.88509348103989e-05 -5.65642403067777e-06 0.0295815550193455 -0.00246620087737551 0.00501544834392869 0.0726886483367743 -0.0065326555350664 -0.0467557439273992 -0.0295329611947183 0.00250656717613989 -0.00486118223400112 -0.072739041932684 0.00650694451674513 0.0466408156755032 -0.0155513094316157 0.00409088012509609 -0.0109932601036222 -0.041840054334557 -1.82548230080964e-05 -0.0494062928061382 0.0154037281864516 -0.00414667303485323 0.00939660586587184 0.0419529257049874 2.98247812526646e-05 0.0500531820271012 0.0102532969963363 0.00163856319761406 0.0156222718421824 -0.0148691961155526 0.000694968825223728 0.0243557905455488 -0.0101463391601199 -0.0015760854230934 -0.014534695767193 0.0149327023308061 -0.000693169053941239 -0.0248003340523235 -0.0220281720569249 0.00149175328299966 -0.0116031254582026 -0.0160732431035373 -0.000820438594631489 0.0214740996121017 0.021955666985259 -0.00149226750336608 0.0115684155834689 0.0162845876741381 0.000791642254111675 -0.0213440018593961 -0.00269528605061796 0.0137985893126552 0.00341519456361331 -0.0117195963711979 0.0217952302309343 0.0134915997538993 0.004027888130209 0.0110102293757143 -0.00261249657162349 0.0139793377714537 0.0205001662380923 -0.0201749218563283 0.00254256260178966 -0.0139955357129961 -0.00328329703962523 0.0116607181392422 -0.0219132438050289 -0.0135749034532602 -0.00416827029024309 -0.0107495196499367 0.00280918586178115 -0.0140387302237758 -0.0204027214786547 0.020106787657777