5.6465356003 2.2149152439 2.3076137527 2.887687386 4.6520950146 4.9083795321 2.1879987143 1.5348167838 2.426850242 7.5767771865 1.4878308636 0.0200511132 8.1437611037 4.6751131313 2.5325747883 1.1025223101 4.648338065 2.1968083911 4.0360705618 1.5122695852 4.6666299241 9.2777964658 1.5499773482 2.755818324 6.3009966423 4.6599025427 0.2964442637 1.3714227498 4.636724862 3.7155030949 3.7817256599 1.5428609921 1.2411578964 9.063663784 1.5437638212 1.2307266635 6.5586357399 4.6269225349 3.7217143973 4.7822030136 4.627418111 0.6001967376 0.3737771284 1.5584466468 3.0979245094 5.581164406 1.5218980953 4.4339909209 9.9828424237 4.647819412 1.9295724321 1.8173268766 5.8683166598 1.4901087508 3.3313715042 0.3024473988 3.9607308368 8.4913480127 2.7385640932 3.4418379317 7.0336205098 3.4501521914 1.020478874 8.523475139 0.3356631378 3.4461617389 7.0275736628 5.8765361078 1.0043185003 1.8273292796 3.4412784748 1.4772956905 3.3718741393 2.7287840332 3.9137356935