-0.0542065399267179 0.275656054948119 0.042768736316321 -0.0691238156465313 -0.0115861561861106 -0.0395402037457201 -0.0148918218116753 -0.00999644392330689 0.000318816627183656 0.0776395620247166 -0.015879382025395 0.0680791769721383 0.0281761907579052 -0.0130997638346833 -0.00969228257656636 0.0213666275555188 -0.00795498906859864 -0.0441249925327676 0.0689849761475964 -0.0211282864156807 -0.00102278430881983 -0.0891853519120628 -0.0188978555763112 0.0174863206704739 0.0175513695468267 0.00842910024644273 0.0192146153220292 0.0258205472593112 -0.0156104447737546 0.0202533404622082 -0.0176256743897751 -0.0118970023976146 0.0484750397225421 -0.0105181204850453 -0.0195115775836397 -0.0132242051633582 -0.0174953195268863 -0.0116787158520671 -0.0365417847890945 -0.00766445456156838 -0.0394551002750767 0.026461265835877 0.0641600464494283 0.00337148583246716 -0.0296792568889663 -0.0670777328085252 -0.0149540424760127 -0.0237747215314883 -0.00960203690225873 -0.0062333792818069 -0.00345350398091199 0.0208009851524511 -0.0380661910653621 0.0160053660151692 -0.00770996306399701 -0.0368719142643395 0.0230843806895624 -0.00396952411861973 -0.0100938886827445 -0.0375483711563719 0.0187219922109938 0.032712899940692 -0.00462078421269731 0.0189464494009384 -0.0297900713779309 -0.0391596806745654 -0.0246830918087785 -0.0115887272879427 -0.00613233497980434 0.023474416837496 0.0339208035814249 0.004170584281892 0.00811054072944228 -0.00979666931095068 0.0021972636257351