-8.92354487822831 0.349668686450953 -0.797244605108172 0.349668686450953 -5.37490723744607 -0.65937523730751 -0.797244605108172 -0.65937523730751 -0.43958349153834