10.017434 0.000000 0.000000 0.000000 5.906843 0.000000 0.000000 0.000000 4.666181
10.230516 0.000000 0.000000 0.000000 6.078445 0.000000 0.000000 0.000000 4.862924
10.188240 0.000000 0.000000 0.000000 6.088863 0.000000 0.000000 0.000000 4.860278
10.210192 0.000000 0.000000 0.000000 5.890898 0.000000 0.000000 0.000000 4.694630
9.967272 0.000000 0.000000 0.000000 6.113641 0.000000 0.000000 0.000000 4.915432
10.028728 0.000000 0.000000 0.000000 6.239526 0.000000 0.000000 0.000000 5.040789
9.973600 0.000000 0.000000 0.000000 6.181906 0.000000 0.000000 0.000000 4.962727
10.086745 0.000000 0.000000 0.000000 6.145720 0.000000 0.000000 0.000000 4.913255
10.005652 0.000000 0.000000 0.000000 6.211999 0.000000 0.000000 0.000000 4.943220
9.971855 0.000000 0.000000 0.000000 6.243336 0.000000 0.000000 0.000000 4.965568
10.015814 0.000000 0.000000 0.000000 5.908489 0.000000 0.000000 0.000000 4.732384
10.112698 0.000000 0.000000 0.000000 6.167644 0.000000 0.000000 0.000000 4.926661
10.021784 0.000000 0.000000 0.000000 6.215196 0.000000 0.000000 0.000000 4.964665
9.970207 0.000000 0.000000 0.000000 6.333664 0.000000 0.000000 0.000000 4.957050
9.947806 0.000000 0.000000 0.000000 6.206764 0.000000 0.000000 0.000000 4.917916
10.106416 0.000000 0.000000 0.000000 6.560547 0.000000 0.000000 0.000000 4.951031
10.003902 0.000000 0.000000 0.000000 6.284839 0.000000 0.000000 0.000000 4.949074
10.100997 0.000000 0.000000 0.000000 6.270509 0.000000 0.000000 0.000000 4.940037
10.292988 0.000000 0.000000 0.000000 6.288023 0.000000 0.000000 0.000000 5.035314
10.054216 0.000000 0.000000 0.000000 6.181100 0.000000 0.000000 0.000000 4.972944
10.406300 0.000000 0.000000 0.000000 6.218700 0.000000 0.000000 0.000000 4.946900
10.406300 0.000000 0.000000 0.000000 6.218700 0.000000 0.000000 0.000000 4.946900
10.406300 0.000000 0.000000 0.000000 6.218700 0.000000 0.000000 0.000000 4.946900
10.406300 0.000000 0.000000 0.000000 6.218700 0.000000 0.000000 0.000000 4.946900
10.406300 0.000000 0.000000 0.000000 6.218700 0.000000 0.000000 0.000000 4.946900
10.406300 0.000000 0.000000 0.000000 6.218700 0.000000 0.000000 0.000000 4.946900
10.406300 0.000000 0.000000 0.000000 6.218700 0.000000 0.000000 0.000000 4.946900