5.20914 6.02869 2.48335 2.90244 4.66059 4.62629 2.29445 1.71821 2.22774 7.48488 1.58039 0.401467 8.07815 4.47533 2.62449 1.11941 4.63558 2.02357 4.15559 1.65302 4.40554 9.33091 1.61519 2.99458 6.22441 4.53345 0.486875 1.3135 4.65022 3.55144 3.99761 1.67205 1.28279 9.05142 1.6547 1.45726 6.41758 4.47637 3.63821 4.72104 4.61978 0.792549 0.769606 1.58461 3.40287 5.68872 1.55591 4.06787 9.66414 4.66645 1.48766 1.93691 5.80622 1.35528 3.39871 0.470448 3.73363 8.51588 2.87934 3.57524 6.85915 3.28943 1.25362 8.58427 0.372619 3.62665 6.97157 5.74271 1.20243 1.94887 3.42727 1.39462 3.53602 2.85355 3.68238
5.12646 6.15849 2.48846 2.87324 4.64161 4.85528 2.34122 1.65544 2.44252 7.5631 1.57613 0.131537 8.12049 4.68707 2.60103 1.11276 4.61063 2.1027 4.11608 1.60647 4.56163 9.30857 1.64384 2.78686 6.24549 4.48706 0.30023 1.24007 4.63481 3.68798 4.07472 1.60222 1.1873 9.03422 1.63744 1.2526 6.47123 4.59873 3.64866 4.71686 4.64602 0.778935 0.51863 1.59812 3.14529 5.63311 1.51481 4.08534 9.8932 4.71877 1.68762 1.98148 5.8297 1.42523 3.27426 0.382149 3.77247 8.51957 2.83861 3.54124 7.026 3.30887 0.962936 8.56138 0.464284 3.41584 7.02603 5.7136 1.12883 1.86136 3.35679 1.47651 3.3467 2.797 3.88487
5.27899 0.178481 2.56205 2.90952 4.67039 4.82927 2.23476 1.41999 2.38313 7.57198 1.72597 4.89985 8.03684 4.64791 2.65735 1.17135 4.57865 2.14862 4.10609 1.6938 4.64515 9.25519 1.55885 2.73112 6.22666 4.64838 0.37984 1.37353 4.55792 3.67677 3.8793 1.52603 1.26979 9.11044 1.57755 1.21098 6.5074 4.65808 3.69015 4.71954 4.6648 0.69688 0.51807 1.39758 3.16295 5.62317 1.67274 4.30175 9.86246 4.51343 1.88091 1.88839 5.7675 1.37147 3.45435 0.478259 3.83662 8.57406 2.75038 3.52574 7.03251 3.38256 0.912065 8.36757 0.392013 3.47739 6.93372 5.84681 1.13716 1.98308 3.39132 1.45774 3.43203 2.91545 4.0076
5.19165 0.181074 2.57916 2.83003 4.62476 4.68654 2.26204 1.66741 2.33328 7.57194 1.56134 0.303664 8.07278 4.48298 2.53511 1.08994 4.53803 1.98125 4.23826 1.74616 4.5943 9.37249 1.67549 2.9162 6.22853 4.5826 0.510699 1.41522 4.58818 3.4538 3.95367 1.72061 1.35373 9.25142 1.65073 1.3754 6.41821 4.63228 3.68966 4.77778 4.67351 0.899579 0.623665 1.61163 3.30186 5.73126 1.53889 4.19102 9.77867 4.477 1.6269 1.75177 5.81612 1.3036 3.37623 0.536126 3.86108 8.57103 2.81699 3.63801 6.87268 3.32472 1.25721 8.54385 0.466883 3.58173 7.01823 5.69322 1.20827 1.91606 3.36813 1.28007 3.53432 2.92546 3.75912
5.05036 6.09967 2.47125 2.83329 4.61501 4.75923 2.41521 1.8168 2.31168 7.5319 1.51987 0.111469 8.00878 4.53755 2.67416 1.17317 4.78093 2.00763 4.18713 1.66549 4.63425 9.18103 1.56298 2.87195 6.20311 4.52447 0.421056 1.43246 4.75156 3.56251 4.01249 1.65473 1.2609 9.04908 1.61292 1.39009 6.3525 4.56631 3.79325 4.68242 4.51135 0.798201 0.712941 1.51031 3.1853 5.63633 1.59138 4.18133 9.6862 4.54759 1.65676 1.91557 6.03472 1.35475 3.451 0.431555 3.95162 8.6628 2.82883 3.59681 7.15535 3.39306 0.951487 8.46991 0.334202 3.4986 6.91908 5.78321 1.15456 2.04529 3.53683 1.38826 3.39368 2.81119 4.02236
5.18074 0.259718 2.30511 2.93337 4.63507 -0.0346738 2.40949 1.5231 2.39645 7.42021 1.65599 5.07694 8.01006 4.63502 2.54851 1.29956 4.60758 2.14375 4.16705 1.52196 4.67953 9.10539 1.5434 2.73315 6.29229 4.67009 0.231823 1.54113 4.56128 3.64563 3.91548 1.50622 1.16225 8.94395 1.64391 1.29002 6.39497 4.57024 3.75421 4.81852 4.62701 0.673176 0.54599 1.64816 3.18261 5.59498 1.33387 4.33813 9.88424 4.77338 1.97493 1.97988 5.84805 1.52171 3.41342 0.25285 3.96441 8.40856 2.79892 3.38336 7.03977 3.42676 0.917987 8.28698 0.426434 3.45708 7.01682 5.8698 1.06768 1.96933 3.43745 1.42612 3.41394 2.68068 3.93589
5.309 6.27645 2.44226 2.93449 4.6724 4.79399 2.396 1.67975 2.49516 7.51175 1.55384 0.0685584 7.97713 4.59263 2.57655 1.22741 4.6824 2.04661 4.11408 1.58655 4.70464 9.24298 1.49115 2.78289 6.25635 4.59165 0.32806 1.45904 4.68554 3.6703 3.96302 1.40205 1.26225 8.98673 1.48878 1.31356 6.38171 4.63254 3.73899 4.80666 4.7203 0.741702 0.697404 1.58936 3.29249 5.66213 1.62578 4.37613 9.70192 4.63676 1.64791 1.91252 6.11294 1.37636 3.3956 0.371621 3.90357 8.41069 2.67278 3.44336 7.02486 3.39464 1.02969 8.52571 0.315176 3.53048 6.96189 5.88441 1.02579 1.9703 3.5338 1.47047 3.46964 2.78705 3.96474
5.07471 6.0934 2.42793 2.81527 4.70284 4.78888 2.37649 1.70319 2.32651 7.6291 1.56384 0.0864706 7.97524 4.56013 2.6208 1.15982 4.78075 2.15148 4.12172 1.51403 4.62068 9.27268 1.58534 2.83636 6.25635 4.61365 0.359128 1.12083 4.7206 3.73453 4.04798 1.45408 1.25416 9.1757 1.56264 1.32871 6.37652 4.60689 3.79923 4.7597 4.5725 0.697804 0.675907 1.37206 3.22683 5.60958 1.40941 4.12908 9.7985 4.83349 1.81291 1.94551 5.90596 1.28932 3.34429 0.349637 3.84817 8.53327 2.76859 3.49699 6.96812 3.39643 1.15381 8.37649 0.441863 3.47905 6.92758 5.85456 1.07216 1.94544 3.52768 1.50017 3.49079 2.89429 3.98959
5.30811 6.18758 2.29755 2.90883 4.68523 0.0128227 2.33399 1.71652 2.47667 7.52831 1.52802 4.8757 8.03889 4.50248 2.5328 1.28131 4.61712 2.17922 4.05274 1.67378 4.61768 9.19919 1.57912 2.84701 6.2745 4.55204 0.339501 1.4611 4.78461 3.63553 3.76995 1.72626 1.12969 8.94669 1.67833 1.34276 6.48164 4.51658 3.73319 4.78054 4.59832 0.792113 0.678999 1.37102 3.24206 5.60528 1.81602 4.24847 9.85277 4.6984 1.8436 2.02411 5.89683 1.445 3.47252 0.328744 3.91824 8.5875 2.76157 3.6299 6.91104 3.30984 1.01873 8.3707 0.34683 3.47896 7.09016 5.7598 0.959334 1.84659 3.39707 1.40096 3.38148 2.85385 3.82703
5.02118 6.14173 2.27854 2.98889 4.78986 0.0612421 2.29751 1.51592 2.324 7.3869 1.53757 0.0779795 8.06721 4.59934 2.51257 1.3421 4.69184 2.19372 4.11653 1.55718 4.52533 9.0624 1.54604 2.85219 6.29369 4.6354 0.321172 1.50391 4.59162 3.71548 3.95787 1.707 1.15518 8.70713 1.53135 1.42294 6.44657 4.70952 3.76626 4.73049 4.73533 0.623232 0.652867 1.37632 3.06439 5.57274 1.3663 4.13139 9.73282 4.99809 1.85132 2.30453 5.83186 1.49203 3.31792 0.320848 3.93992 8.62042 2.86633 3.54462 6.89766 3.31334 0.996678 8.29439 0.344376 3.56763 7.15704 5.69559 1.00294 1.86765 3.37701 1.52093 3.50967 2.841 3.86612
5.24209 0.278868 2.36171 2.89786 4.66167 0.0473414 2.31873 1.68828 2.42752 7.52378 1.5435 4.76492 8.07049 4.4986 2.50586 1.23631 4.58565 2.33451 4.20429 1.85042 4.5971 9.24912 1.61336 2.70464 6.1989 4.43759 0.329674 1.22666 4.51443 3.89883 4.04171 1.81882 1.38748 9.13647 1.46767 1.10992 6.30517 4.56347 3.57342 4.71497 4.43007 0.78557 0.612095 1.49522 3.19097 5.71558 1.71766 4.23709 9.76463 4.59843 1.85265 2.1476 5.73761 1.67712 3.46432 0.599028 3.93667 8.46469 2.79282 3.4051 7.09381 3.32552 0.994751 8.44205 0.428547 3.41294 6.95831 5.70774 0.999129 1.79275 3.3938 1.53989 3.41682 3.05246 3.86397
5.26894 0.0794478 2.54452 2.93321 4.71327 5.01046 2.22808 1.5834 2.1609 7.49275 1.56814 0.0157406 8.03244 4.55414 2.50775 1.15242 4.66028 2.2347 4.19281 1.74358 4.58983 9.20533 1.59859 2.77184 6.30465 4.50669 0.346425 1.41762 4.65181 3.64898 3.91075 1.7478 1.16924 9.12248 1.52523 1.24835 6.45519 4.59695 3.71176 4.89842 4.69485 0.84063 0.573593 1.64819 3.27777 5.73027 1.48852 4.38099 9.74599 4.52427 1.92919 1.88645 5.86307 1.53686 3.3992 0.490547 3.9308 8.48194 2.8376 3.46335 7.02828 3.2736 1.03928 8.41354 0.400575 3.42349 7.08744 5.65127 1.12486 1.95982 3.45618 1.57429 3.6272 2.90234 3.77882
5.12159 6.24736 2.43552 2.89502 4.77053 4.81455 2.28394 1.62026 2.33712 7.44196 1.5125 4.9578 8.07869 4.46016 2.58008 1.28909 4.64299 2.12956 4.15699 1.73326 4.75662 9.17947 1.57273 2.77804 6.25109 4.62286 0.258349 1.41822 4.38966 3.71353 3.97405 1.5809 1.31508 9.04391 1.48728 1.25813 6.48934 4.66103 3.55931 4.75641 4.45133 0.608662 0.668909 1.33328 3.22047 5.59124 1.75168 4.28178 9.84223 4.76674 1.79584 2.26312 5.85466 1.62625 3.47576 0.441214 4.08444 8.59159 2.8794 3.44796 7.08223 3.42286 1.12112 8.29625 0.41231 3.47219 6.82985 5.78307 0.983429 1.80197 3.3818 1.31862 3.34407 2.8998 4.06351
4.93362 6.15501 2.5418 2.95681 4.80889 4.77605 2.47383 1.50931 2.48138 7.49381 1.64997 -0.0454924 8.09321 4.59764 2.63849 1.30427 4.70874 2.17984 4.19006 1.59309 4.68661 9.06819 1.44114 2.7372 6.24914 4.70825 0.238593 1.45978 4.72037 3.70419 4.01336 1.61886 1.31687 8.92189 1.48213 1.22666 6.41553 4.78166 3.60529 4.81072 4.87208 0.696075 0.68195 1.53453 3.01075 5.67374 1.29115 4.27851 9.77179 4.59855 1.8676 2.01722 5.98251 1.51565 3.27037 0.337251 4.07911 8.32577 2.65278 3.28071 6.70163 3.30278 0.709456 8.53833 0.0873573 3.54054 6.96213 5.80171 1.03166 2.01291 3.50889 1.52408 3.45239 2.78314 3.84563
5.16168 0.212063 2.39194 2.96586 4.70631 4.75439 2.31898 1.81352 2.37913 7.49844 1.55895 0.0954469 7.997 4.43454 2.58693 1.18145 4.71904 2.06733 4.22279 1.68134 4.6593 9.20429 1.43083 2.74833 6.12846 4.43716 0.536763 1.47137 4.60129 3.60558 4.01897 1.80115 1.17688 9.11552 1.4295 1.23114 6.5485 4.6866 4.00375 4.68318 4.29704 0.688238 0.68462 1.25877 3.26369 5.69497 1.53629 4.18884 9.71427 4.92339 1.67785 2.25045 5.87083 1.48179 3.52074 0.471906 3.97465 8.67066 2.77407 3.47541 6.98048 3.28776 1.16522 8.17731 0.361193 3.32357 6.68767 5.77281 1.26215 1.82157 3.45588 1.38633 3.48716 2.76299 3.76915
5.12562 -0.000821131 2.45379 3.0187 4.59855 0.0177589 2.1805 1.36276 2.48851 7.5235 1.49234 4.80885 8.03197 4.63929 2.29726 1.27417 4.70737 2.34065 4.09577 1.54561 4.62989 9.09799 1.52662 2.8208 6.41208 4.7233 0.151949 1.57665 4.798 3.94366 3.61932 1.48114 1.14637 8.80463 1.47464 1.36945 6.68154 4.96298 3.64014 4.84612 4.81251 0.597986 0.466068 1.69033 3.14413 5.62489 1.56199 4.30207 9.88774 4.74607 2.01675 1.81392 6.10364 1.69587 3.55481 0.274487 3.84351 8.21656 2.79367 3.56195 7.18967 3.50802 0.817465 8.38889 0.316369 3.56369 7.22266 5.90386 0.996657 2.07334 3.63385 1.57081 3.32444 2.71305 4.02457
4.98535 5.94941 2.64213 2.93332 4.50663 4.8698 2.33529 1.65726 2.4589 7.51184 1.36601 -0.0844098 8.11524 4.66723 2.56758 1.21904 4.84353 2.09658 4.09619 1.69728 4.60777 9.11045 1.55477 2.8956 6.44008 4.6915 0.346825 1.42384 4.86986 3.63189 3.88601 1.62535 1.12399 8.61274 1.59295 1.45604 6.59597 4.66504 3.67907 4.83556 4.48389 0.559769 0.621444 1.42248 3.06653 5.60524 1.70604 4.30264 9.74675 4.76144 1.72706 2.01274 6.06829 1.3649 3.3366 0.382556 4.02384 8.47064 2.70938 3.77014 7.2843 3.61384 1.03053 8.43439 0.248317 3.55066 6.79791 6.04765 1.0967 2.13127 3.54991 1.42202 3.31662 2.85243 3.7741
5.06086 6.01286 2.46735 2.87523 4.56526 -0.0915158 2.33442 1.72193 2.43291 7.45014 1.48375 0.0991987 8.10609 4.64979 2.48228 1.16851 4.89791 2.36242 4.1502 1.5205 4.70349 9.23018 1.50827 2.66726 6.29034 4.5599 0.301713 1.29453 4.70311 3.8633 3.94096 1.57787 1.28857 8.98142 1.45736 1.1341 6.4909 4.69704 3.71926 4.80396 4.64263 0.618162 0.664793 1.70327 2.97702 5.57823 1.59474 4.21168 9.72418 4.77264 1.8302 1.89655 6.06876 1.74215 3.49182 0.24086 4.00775 8.42018 2.78913 3.09827 7.17264 3.42885 0.973028 8.52591 0.294398 3.3039 7.0205 5.71718 1.07009 2.06718 3.67983 1.70723 3.30339 2.76473 4.13194
5.39121 0.348829 2.51291 2.91015 4.82429 4.83967 2.19021 1.29705 2.25214 7.48386 1.63586 0.262245 8.08314 4.42272 2.5455 1.1606 4.46429 2.02513 4.0363 1.74689 4.72862 9.32209 1.3593 2.89048 6.29049 4.91749 0.169542 1.59515 4.72043 3.44213 3.88192 1.41991 1.19807 9.19219 1.31713 1.41034 6.53942 4.9826 3.65536 4.76274 5.10675 0.470774 0.475275 1.61478 3.2986 5.60898 1.56223 4.60292 9.90131 4.25209 2.03927 1.66198 5.86992 1.21517 3.36707 0.567478 3.81507 8.2981 2.50322 3.65313 6.83006 3.63721 0.933349 8.71019 0.017652 3.48576 7.18509 6.03167 0.810486 1.80112 3.24614 1.28561 3.48878 3.06097 4.1087
5.36461 6.17017 2.77655 2.91736 4.55924 4.78946 2.41283 1.5821 2.50811 7.40164 1.58416 -0.00467675 8.03604 4.68042 2.53298 1.24225 4.79892 2.01177 4.2212 1.48212 4.70676 9.12698 1.42179 2.72299 6.26166 4.73868 0.42731 1.42653 4.88514 3.72056 4.01602 1.45169 1.31723 8.92261 1.5527 1.04857 6.57747 4.6281 3.84454 4.70253 4.8034 0.67818 0.59736 1.62889 2.97108 5.79088 1.30459 4.34622 9.868 4.69923 1.69611 1.6828 6.10439 1.36759 3.33226 0.385734 3.90713 8.4345 2.74811 3.28546 6.95036 3.5447 1.15949 8.53404 0.272594 3.62453 6.84243 5.96883 1.20263 2.0319 3.60658 1.28098 3.48755 2.71847 4.08528
5.32647 6.49357 2.47343 2.94246 4.56732 4.87936 2.17719 1.63256 2.53963 7.53283 1.56714 4.95141 8.1686 4.68618 2.50181 1.14367 4.6406 2.20308 4.04192 1.46704 4.74632 9.26816 1.60699 2.81458 6.38319 4.69466 0.173189 1.43893 4.64155 3.71393 3.81404 1.44968 1.34118 9.06977 1.59511 1.30531 6.55094 4.76603 3.56381 4.8869 4.631 0.444892 0.44241 1.44709 3.12807 5.51604 1.44157 4.37434 10.0166 4.90331 1.88736 1.97236 5.75661 1.54107 3.28848 0.167207 3.96447 8.58804 2.89622 3.5077 7.07697 3.45824 0.831922 8.34154 0.4522 3.48218 7.13866 5.8748 0.897786 1.70203 3.33347 1.58188 3.31012 2.62427 3.99088
5.41071 6.54562 2.5173 2.82297 4.63106 4.95444 2.14886 1.50254 2.27976 7.51198 1.53829 0.0732342 8.07431 4.56626 2.49921 1.09605 4.70326 2.09972 4.0762 1.55158 4.69423 9.20022 1.55223 2.77386 6.40224 4.64988 0.282824 1.36732 4.72634 3.70837 3.85859 1.43136 1.30896 8.99343 1.46207 1.20899 6.5252 4.77218 3.6794 4.98954 4.66991 0.664883 0.282146 1.49276 3.09301 5.64282 1.69008 4.5036 10.0217 4.67303 1.81468 1.94491 5.88105 1.36527 3.53178 0.27339 4.00045 8.49426 2.73602 3.47877 7.2653 3.47312 0.879368 8.50885 0.310685 3.51065 7.19857 5.86271 0.981606 2.04879 3.43199 1.57006 3.33375 2.80603 4.0508
5.1935 6.28215 2.52141 2.83186 4.60081 5.08213 2.24801 1.60271 2.35022 7.59699 1.43853 0.0723732 8.0781 4.54565 2.51613 1.11349 4.70287 2.17744 4.07491 1.67627 4.63178 9.30397 1.49568 2.8356 6.27451 4.71688 0.271421 1.28107 4.74068 3.79741 3.8587 1.40899 1.14328 9.14738 1.51185 1.29895 6.53178 4.66729 3.69243 4.71097 4.77867 0.63221 0.457966 1.69445 3.0955 5.65766 1.63451 4.3616 10.0572 4.56853 1.8757 1.77304 5.91003 1.44016 3.26233 0.526575 3.76346 8.40802 2.65902 3.48455 7.00545 3.43554 0.871019 8.67765 0.240625 3.4925 6.96748 5.92059 1.03542 1.97669 3.48183 1.44537 3.3862 2.88357 3.89986
5.3262 6.02703 2.67408 2.74033 4.74328 4.78252 2.34602 1.40915 2.36072 7.51709 1.45413 0.000335236 8.16338 4.52852 2.64284 0.959639 4.65064 1.91349 4.21689 1.7061 4.66899 9.35501 1.50196 2.77062 6.29503 4.78852 0.513111 1.33714 4.77128 3.45758 3.97859 1.46945 1.36126 8.80709 1.73347 1.38162 6.67606 4.68839 3.9595 4.80334 4.76051 0.795682 0.437078 1.48149 2.75934 5.62986 1.50043 4.25237 9.8483 4.70243 1.84614 1.60406 5.91641 1.096 3.45652 0.526195 3.80637 8.79926 2.75698 3.70304 6.94895 3.62762 1.24634 8.60447 0.2654 3.59141 7.04681 6.03995 1.17416 1.78658 3.48299 1.23291 3.43778 2.94319 4.02313
5.00353 0.012152 2.26361 3.07331 4.60606 4.85699 2.09491 1.74682 2.21542 7.51189 1.53584 4.95176 8.20435 4.56229 2.60359 1.13916 4.75583 2.37181 4.03448 1.53651 4.51948 9.30417 1.49933 2.79905 6.29581 4.56099 0.280483 1.42859 4.67649 3.8548 3.86578 1.48249 1.18133 8.89545 1.45036 1.36419 6.52203 4.81112 3.77781 4.76698 4.70089 0.600228 0.337881 1.67813 3.076 5.57622 1.62106 4.22735 9.99314 4.81042 2.1592 1.85086 5.9687 1.51018 3.42496 0.316773 3.77788 8.48494 2.70637 3.52738 7.1013 3.25134 0.783684 8.51157 0.394058 3.60836 7.00211 5.75345 1.24979 1.9327 3.47975 1.6008 3.29573 2.80887 3.8839
5.24256 6.35821 2.54241 3.02236 4.73501 4.87588 2.20059 1.65383 2.40439 7.48277 1.53421 0.0621744 8.15922 4.66396 2.52755 1.14033 4.66537 2.21657 4.09162 1.60345 4.66194 9.17164 1.54247 2.62572 6.33112 4.50703 0.360755 1.35284 4.61737 3.82484 3.81877 1.47263 1.26012 9.01004 1.51551 1.11205 6.62916 4.7351 3.76646 4.7683 4.49114 0.686804 0.300005 1.52482 2.9977 5.61207 1.62908 4.46724 10.0583 4.91112 1.7754 1.94337 5.84084 1.38264 3.3751 0.321135 3.99412 8.61778 2.77688 3.41338 7.12278 3.32247 0.908405 8.41211 0.282298 3.39487 7.06027 5.70616 1.12383 1.704 3.18335 1.58867 3.20754 2.77717 4.08791
5.15179 -0.0138326 2.77644 2.96395 4.71051 4.75755 2.17388 1.68596 2.3083 7.44832 1.6108 0.238481 8.26173 4.44324 2.576 1.19403 4.66782 2.10697 4.0127 1.74891 4.52694 9.34617 1.41629 2.91336 6.37156 4.62972 0.319851 1.3965 4.50354 3.65057 3.85623 1.64999 1.1983 9.00469 1.69477 1.45784 6.49305 4.51896 3.70877 4.80311 4.73895 0.594562 0.384008 1.34145 3.12639 5.50592 1.66094 4.22048 10.1625 4.59802 1.8846 2.11913 5.72502 1.29256 3.36153 0.568059 3.70123 8.4611 2.52872 3.67513 7.3358 3.56289 1.03874 8.52654 0.102576 3.37223 6.97157 6.12941 0.915166 1.87549 3.3967 1.56041 3.20876 2.89878 3.79107