-28926.5000586891
-28926.8153277162
-28927.0681469214
-28926.4923250817
-28926.8074889368
-28926.4701012838
-28926.5684524265
-28926.4227664255
-28926.3501462181
-28926.0887350228
-28925.9078289376
-28926.4321257762
-28925.9348608485
-28925.9301874318
-28925.6660081599
-28925.4857143305
-28925.5448258615
-28925.9684161412
-28925.6903924045
-28924.5806003564
-28926.7650718534
-28926.4006409967
-28926.4527404298
-28925.7111089647
-28925.7719433836
-28925.7268768651
-28924.8816753886