-0.171004497075084 -0.0517200273448686 -0.112310356010573 0.444026972416556 -0.760452474896335 -0.202209702901417 0.502777934831557 -0.285302057691707 0.502808016722993 -0.229263864819782 0.283460634559538 -0.812181243987432 0.421066775945485 0.695425452909113 -0.454892191648938 -0.660447155144135 -0.102118251237841 -0.341330994597036 2.04824667730799 0.599225106758277 1.31961750111844 -2.0694893777552 -0.00494062928061382 -0.824734391572606 -0.08557732471104 -1.13090171196257 0.107710397722716 -0.742630625436768 -0.294773225510711 -0.907430539570565 0.242756750124598 -0.17702576045574 -1.10869176300611 1.03828085378242 -0.0815327244189222 1.02416061963056 -0.160273746468522 0.397759737837261 0.544822134651585 -0.0303935089779309 0.152840691071845 0.252304279668015 0.311367116735253 0.4291639469454 -0.144464041302777 -0.645479228718229 -0.025935218401024 0.444280483057204 1.3693158710927 -0.319897518393882 1.23448214881234 -0.282712958146756 0.439131594528188 0.227605761248244 -0.121232593588417 -0.485117807677231 -0.263555164175217 1.0269260967612 -1.70656267042941 0.553177958495812 -0.0765890098161098 0.996337955374575 -0.49794272072606 -0.230434230373766 0.573776340823892 -0.0904333647413769 -0.170355036752289 -0.802623687146869 -0.212444487964562 -0.851393375139373 0.431780814390139 -0.114847005078149 -0.877489030294722 1.23000200386986 -0.123501590955269
0.378193910004963 -0.456231992813659 -0.477224782162787 -0.65460689733246 0.0394784973017491 -0.635754293148394 -0.442322846122223 -0.344169491019703 -0.581482190124957 -0.753294013175329 -0.278071090899035 -0.750968965788537 0.711971778749762 -0.116866091346917 -0.609090681598329 1.55437966720622 1.07223816700986 1.85642294025745 1.18887954405665 -0.903080749490974 -2.56902566739682 -2.00767649016832 1.48285238556702 -0.860201970016238 -0.0125814297053266 1.68070715618518 2.17523776766982 0.48470874537574 -0.145677601367541 -1.68490499414649 -0.93725454949268 -0.0996991015239935 1.80791190510926 0.921233756866518 0.103118152740355 1.01869934222894 -0.838120061931021 0.115060149420032 0.614120528112517 1.78102537903035 -0.510846823711319 -1.22785796205205 2.12764538720625 0.158973026051649 0.193730723279431 -1.13206719242307 0.167671063549732 0.728605779162886 -1.09864878213964 -0.245062514247649 -0.0226868883463157 -0.744733786735447 -1.10915070468315 0.652011627143112 1.47250987133711 1.1310130406719 1.57785819780665 0.72895827722407 -0.253647423265118 -1.04715835418838 -0.81707739320635 0.0480646918701347 0.0191737348028984 -1.29437853709355 -1.91352865461007 1.11526915571306 -0.760847139027566 -0.565548557850904 -1.29089366567029 -0.103856573186542 0.6665555788769 -0.144348341720332 0.247959374681905 0.275848887585528 0.142557826404439
-0.043733670833918 0.0879105996236946 -0.20503020161126 -0.413929654369686 -0.471142069448343 -0.194364756991233 0.608737412206595 0.918346923729407 -0.198037318848243 -0.819540765871711 -0.764741586972688 0.238605449106447 1.57981249230925 -0.173005328520845 -1.17406639796104 0.389819918269472 -1.332394334563 0.000508049722028149 0.966026207434906 -0.169706604870227 -0.986731290489018 -1.26104034518729 -1.04734784439341 1.04107846968595 1.38001139760417 -0.723367930510478 -0.525936877474251 0.249202245307555 0.619995238688743 -0.399337365921453 0.0232476456559024 -0.135771403118542 1.00343471065161 -0.0560428208552225 -0.043929588793526 0.574790640496665 -1.67142033636754 0.167400583636993 1.40989505708879 0.904978736863449 0.194938626920164 0.32993484283632 0.476251620119327 0.14599281845216 0.102725031270223 0.00703247773123174 -0.330302510398314 -0.0340876680903299 -0.821876354776014 0.335469139529971 -0.32535391070202 -0.30186715257573 0.375897658958691 0.655370257466418 -0.553151476146941 -0.267772799620637 0.183375096430176 0.132137407789014 0.661681026913372 -0.907455993478703 -0.650992956597223 1.35755436576164 0.979516007417523 1.00964700689839 0.843316515843932 -0.998541132534524 -0.0402791384122732 -0.550492956852523 -0.574363837592532 -0.701819783165611 0.162745346659745 0.521970695788013 -0.391210884360652 0.138726113344021 -0.517897042045192
-0.119651623071843 -0.0402523989532191 -0.376013872761503 1.5829605493925 0.23718517245438 -0.569299024093427 0.194609011665285 -0.311013333123153 0.765828391717127 0.357433291151276 0.493230405288139 0.252874807164564 0.392320571911398 0.124140509760552 0.814033722857479 -1.03433215558864 0.685630326259262 -0.901791341922162 -1.2280348538581 -0.377857866995504 -4.24114457213214 -1.39138415233821 -1.39012816909322 -0.48972907881315 0.0737844519376265 -2.40459264949446 -0.953337048562813 -0.937514487887908 -0.287829193682504 0.424293765854987 0.53538207716475 -0.0660539200589725 1.63806748918083 -0.687503888164332 0.0681313703393305 0.685816474031908 0.363598793344715 -0.57272064641162 0.220898527898776 -1.88418389806947 0.0633190390401398 -0.0257596121458898 0.805830622462081 0.317856834869723 0.39788289361502 -0.93604690296213 0.633893072532118 0.630952760476898 1.3091803703411 0.00121613116659572 0.587544076914561 -0.0396841854483192 -0.391026536359288 0.192413804921016 0.841556596639841 0.603535301869654 0.377830099095717 0.155441874795407 0.955652839983009 -0.479716694058484 0.320129688889323 -0.0532035531020055 -0.707323226637278 0.502506426478085 -0.302156915752211 -0.715884481517892 1.10049637591621 1.94052290985575 0.812152190536729 -1.01327817401591 0.412916126027462 0.603530416776173 0.736383362205068 -0.340394599309776 1.0558803029335
0.220264494186974 -0.0972007618737164 0.0784250336344312 0.940041623878705 0.824816152610867 0.357884776632998 -0.922341901756164 -0.812140620578485 0.958439400148667 0.0417963456034109 0.0547433859892659 0.542473947348304 -0.0809976781276567 0.12503345342685 -0.360667223035725 1.96082355859167 -0.0316368938239472 0.96279253266064 -0.782910792289774 -2.10827084935026 0.676576962487979 2.04045341054464 0.0704037101385637 0.419735202306627 0.356622622743607 0.743409926402086 -0.342102582256857 -0.831480448559739 -0.111446980015345 -1.35342209089705 0.706245163639067 -0.166193451326809 -0.401426386160056 -1.21891695543083 -0.287357653606492 -2.70407921888383 0.0893054223676231 0.346441830818937 -0.133477723174102 1.32447482669969 0.0935485117211811 -0.0993193497833885 1.32834304940612 0.101548495071842 0.199031821036909 1.536537248932 0.153143309757486 0.290171724561754 -0.286038935476794 0.555480123076298 0.0037977745162337 -0.655614769250654 -1.57593758473805 0.167039858049945 0.102525770878233 -0.130809433692721 0.219876514920506 -1.52122273797912 0.243293596187146 0.552288357261896 -1.02456608238949 -0.248969046371381 0.780027044474861 -0.955623529422123 -0.242707384969421 0.892359254851007 -0.608658479380348 -0.364049250385704 -0.593676154784182 -0.986867815996304 1.24455598290079 0.337461229229503 -0.772193411412739 1.6203016897412 -1.45021070514708
0.584395505610939 -0.900594751129491 0.583090414320952 -0.282350689898609 0.0942347388001756 -1.01848876898889 -1.5383123376369 0.033978910482831 0.846917086849641 1.29649403968102 -0.168154944914538 -0.456407084848427 0.674790303824834 -0.153155393936097 -0.00813213798483214 1.5082445872611 0.811779637881254 2.09478079225746 -4.6662214956052 -1.03138952954177 -0.425727412236581 0.79092234559868 0.965865770680581 3.97176431964606 0.676959028220233 -0.620403015439318 1.58579827448462 0.917071657220672 -0.10310092635808 1.83885537276908 0.19420920533039 0.504431667529981 -0.450143366565001 -0.614069620296241 -0.55484326115248 -4.62643446608359 0.326296219523495 0.858791720661316 -0.383601451378291 -0.820489759557948 0.376617567471687 0.00814087973106137 1.32047393513872 -0.804009768144569 -0.538137269888057 3.15435551141355 0.37155506796423 -0.362736188680037 -4.75157642000776 -0.0927463279495577 -0.99375091271109 1.33641836604046 1.07837795818498 -1.09004407563807 0.481567116047065 0.891439828835839 0.458358036918645 -0.919897812354545 0.828997021300088 0.951176551693277 -0.347778289551276 0.73042123416655 -0.233815743503379 -0.11428367666673 -1.01159281676495 0.192987674849947 -0.580857155269567 -0.841286373837285 -1.33724806060169 0.771134374568086 -1.41022852899641 -1.02378369610197 0.602505061365521 0.145014771315219 0.416580974578975
-0.232683687366694 0.0852996457131704 0.520661490735094 0.219561554946071 0.525213626528874 0.548700384655164 0.108194279087522 -0.705384872966038 -0.601714447552142 0.261231916559707 -0.0661894171255255 -0.305504747447822 0.726794952142519 -0.197143860961579 -0.115339371079001 -1.12438165482648 5.23188061083488 2.50550762507487 1.48102561771529 -1.39830067337681 -0.255291642886763 -1.73174275622234 0.51250518439304 2.1437384277939 1.55327846429152 0.880375349211467 -0.118978251502009 -0.846999876328636 0.0181144408480623 -2.71109395601242 -0.192638005000777 1.2353480959094 -0.543720674626702 0.431228798826781 -0.032700815762081 -1.83279965662387 0.270499196003423 -0.053242890960037 0.581437967173445 -1.81767746408804 -0.501850538400709 -0.0204749694401375 0.802976442318237 0.18697361055442 -0.293919619702445 -1.03008032448885 -0.483453276351113 -0.181059047899797 0.412491122894611 0.017607419566767 0.807563545096934 -1.0979281022961 -3.55008973522746 1.24982031390207 1.04231542677739 0.81998890892105 0.541191224644256 -0.162683640215774 0.868000121873077 0.325086773221662 -0.381463323094695 0.736004896015379 -0.461133798456608 -0.520087620806164 -1.11979789448016 0.0559353487986396 0.214719398865627 -1.23745305697936 -0.485496788087287 2.13875100445994 -2.43683040981658 -1.6121109306346 -0.524702491484647 0.665125532037872 0.258994800855574
0.374829880367809 -0.321437608391326 0.265597133250291 0.135729237048495 -0.612264706810089 0.274788050969593 -0.349845712534489 0.152636031366007 0.339913546156985 -0.855924685008312 -0.202528776638784 0.538635292312939 0.771290183339113 0.385553431889241 -0.596088362523083 1.36992367956582 -0.428422698287198 0.672781244853211 1.38329289487251 1.95473647500411 -1.09737325852072 0.779947597428249 -1.93610575690816 0.101239962851987 -0.568299893921463 -0.83360700688509 3.27514947502941 2.08340855174379 0.0213992805487868 -1.28869974447693 -0.769236130085428 0.49043098961332 -0.838690075207204 -0.769446189105112 0.357399609717276 -1.56854669541142 1.20170599976658 -0.135358484164302 -3.10797077748053 -0.820693390823053 0.501295437515153 0.354395277226436 -0.31347567734778 0.854851764213766 -0.0761182410706475 -0.35045403522797 0.296214585197801 0.918891740207634 -2.9205593082841 -0.348466830621919 -0.95793623552012 -0.355064020812972 -0.25299127807756 1.69184851175433 -0.0195923101811685 0.646169826670338 0.527360753668883 -0.106146396478233 1.70932686200913 0.633732121557427 0.148965526390464 0.528785401194064 -1.05349946263696 0.112865971116495 -0.699827436355897 0.233072437963711 0.466419469603093 -0.0543273817128278 -0.00230216458048585 -0.34047661745822 0.0969084275954037 0.520638607928788 -0.289165138194477 -2.17037015768124 0.239180090365927
-0.48815170783914 0.647599616399183 0.913585757356675 0.00366999075517702 0.668923820774472 -0.398247218744632 0.331972183928096 -0.813583265816491 -0.704401426515249 -0.781379701148743 0.0971516538287228 1.41760656281388 0.426797761929295 0.266193114654978 -0.147796960607763 1.59229262060239 2.89898030771724 -2.22702670054379 2.22647648475172 -0.944869381788888 -2.87596071879385 0.151204698976063 -2.30914640751099 -0.866192894395275 0.165957938398986 -0.612069817291214 -1.11360436727675 0.958867231493533 -0.753031246568085 2.95144698303416 0.442269367204114 -0.475977283553839 2.10877272842789 0.23832237079473 -0.226467534467162 -0.0623769873288487 -0.520882091272291 0.589901520184438 0.434627538338669 0.00787039981832169 0.491231630723844 -0.80691896986762 -0.675938300792879 0.527015197582645 -0.151172303092978 -0.926810219630217 -1.35576590732722 0.49541532762508 -4.27139641339912 -0.0220770229917353 -0.557907757426191 -0.0206104665066905 -1.83844271092503 0.217626800817396 0.702258670248355 1.52789834677605 0.388259516567554 -0.345754061078843 1.16387557873922 0.111980226535328 0.811111408515085 0.0507964875667689 0.614316188961942 0.235953357566609 0.601789266615457 -0.28156804650091 -0.527590353062491 0.0907475533852627 0.0835703226208823 0.78003012979706 -0.218631587413391 0.222486697500481 -0.516541300049112 -0.0520411579637012 0.233479957604103
0.178153188609128 0.341449522391497 0.818289667720198 -0.910080574228938 -1.49725595514077 -2.61852683386056 1.58934408102131 1.06018921249396 -0.171902840055229 -0.197796406606572 -0.166525123463154 -0.426654808667428 -0.599249275115499 -0.0767291348659607 0.985154176625192 -1.88924022693253 -0.115950521984497 0.471378096596532 -1.43747860887439 1.80755040819166 2.2992615494072 1.45526112047592 -1.16342949257135 2.45368706764837 -0.863829280481002 -2.7109517740811 -1.34498039225163 -0.012528722117768 0.643632920492579 -0.196802932858639 0.0750517480306815 -1.03432829893589 -1.52535809816591 0.129576333254033 0.132955275281814 -2.89236434848282 0.0772598102841116 -0.400220025180422 -0.60761255515504 2.69929362704369 0.0254904177840662 0.535182559662577 -1.82234195703188 -0.0623013969349842 0.236980512748543 1.78146915120657 -0.19998749958791 0.222426790827792 3.59102758992913 -0.646127917710474 -0.0714450063805748 -2.09462986857992 -0.613429158829859 1.59706047183988 0.170057817380495 0.586256212006849 -0.156985050115049 -0.614401549542769 -0.0340483302322984 0.35151204363189 -0.683808186390834 1.01744490164505 -0.446901721375056 0.450899013393463 1.341779884691 0.186622912264518 -0.591589448537229 1.65308940874521 0.96176332059724 -0.294845730582377 1.08568065871876 -0.585230856596197 -0.185573645606827 -0.974233935813602 -0.0745537256057987
-0.018861345930295 -0.213795087756978 0.426710344467002 0.271504496819785 0.818222047742013 0.938752987640443 0.946838845792297 0.294021949555363 0.0560533623727342 0.412792456029337 -0.163411776254632 1.31242921461618 -1.26684666445478 0.622699523595773 -0.196712944294514 -1.58059385015603 0.694952627282185 0.0317770188737981 -0.536765329950434 -0.0398147974213912 -0.468426728803434 -3.24149863714036 -1.2838282778356 -2.7434487014679 0.646907475785975 1.10761087179588 1.92142219434489 -0.037046749188924 0.492525666275954 -2.23828966922961 -0.130210624076019 0.0555072603435906 -0.428800393146338 0.200603535586888 0.859407499550111 3.06622791079522 0.318088748254981 -0.224893763035717 -1.59689797820409 1.20958025623765 0.464809188525633 0.505920078380598 2.66868800216461 0.206955185552973 1.09647440132021 -1.88816756324816 0.269231128579819 -0.826612067240608 1.4342161377596 0.706348779042902 -0.209198986121869 -0.859807820105373 -0.560496342750776 0.599136917965435 0.143847491083433 0.353889541496057 -0.00426468660894783 0.408565307507138 -0.0791390286132127 -0.62493612507954 -0.506390075795511 0.121739614869713 0.105080931879 -0.268925424571979 -0.228785382768824 -0.747813709620152 -0.577628622698966 -0.667027890283462 0.0969840179892682 1.17384913985622 -1.14489596212465 -0.0104229897172566 1.07726055732873 -2.46183283247291 -0.0611449153308938
-0.0732694602406516 -0.0175675674883691 -0.215218706841426 0.103366264067155 -0.130806091260339 -1.00988406248732 -0.110091495129448 0.101908192218156 1.59348741162378 1.8349449839926 -0.248389262908237 0.619527555265479 -0.666676677773194 0.2592593672341 0.760461473752747 -0.608870081061132 -1.17220543445494 -3.33910923264611 -1.09214080918216 -2.03391612702627 -0.620996425742173 1.01619508904445 0.00032601571231361 0.686575977513118 1.82006164681697 0.321559992838535 -0.638472719115501 1.01797146330027 0.306260394276284 5.62505298878326 0.344606578331165 -0.316268665268019 0.455661722427294 -0.584560056128196 0.168348805992681 -0.470791371158441 -0.312001921777605 -0.115390278895277 1.71777807373132 -2.92598304759897 -0.166552377142574 -0.309477613998824 -0.098197835164215 -0.368745882102449 -0.976090271336397 -1.15735963536606 0.0304518729895202 -0.565007083805058 2.14076751962687 0.61442803189164 -0.911598809860808 -0.0703314621770809 0.33884396779482 -0.966542227572613 0.700314403042901 0.122217068479938 0.254477374936529 -0.37710684815034 -0.863338714251432 0.114663942627701 -0.420593178988008 0.233968981172573 -0.62857757660438 -0.196952570985268 -0.0151070230350243 0.410153219998659 0.231102459739936 0.849026675902901 -0.831227452139457 -0.385510237378462 0.69872649055138 -1.22758928191059 -0.129685605081899 1.40296182388827 0.472743094559208
0.0487838290525804 -0.199274790160045 0.282094351045946 0.436362003634621 -0.186967954130389 0.39268412571046 0.643304590788616 0.381226781726139 0.494002250058144 0.49129693671038 0.0525067845054992 0.876628739621692 0.279079991257962 1.17785774472269 -1.28132453887148 1.02039061301412 -0.466088568797299 1.62552719710482 -2.68514279678004 -0.285832475999675 -0.803352080295911 0.759560302560587 -1.90029570770049 0.52840256413126 0.0153294233435032 -4.060005048745 -1.87933274313261 -0.299570130198909 1.33943246871827 -2.25316734998121 0.351703076498017 0.644428933619805 -0.137590714774954 -0.504561508172503 0.309666332873302 -0.256648156213393 -1.27725371334067 -0.119133031832303 4.28266349584787 0.309838339585871 0.550746981713537 -0.33445586829793 -1.71232579518612 0.570311523994918 -0.382441113121452 2.0754563908872 -0.197153374038358 -0.0571669065762281 -1.16211668797586 0.785415559694632 -0.188161716711046 -1.40905970610353 -1.81046629477948 0.0158657551856847 0.00331492159216039 -0.0314898267991496 -0.228966388337805 0.415880606439903 -1.47483851826646 0.554297159123337 -0.964470690826469 0.737939650144054 -2.4190777229963 0.480999416762532 1.10270778060202 -0.188505987246367 1.49716416680537 3.69572774162679 0.63256227022381 0.595774688099564 0.600659781580604 0.76249367264086 0.590261731551119 -1.21708273138379 -0.0370302941371984
0.621943876767311 -0.182151509068267 -0.374600538084383 0.324849974742924 -0.637243732439745 1.89195942423018 -1.44011784490506 0.660474151713372 -0.323741829853277 -0.161429713852246 -0.474289098090865 0.678869871101869 -0.843053749236689 1.03529194790257 -0.542454921194746 0.326597809768403 0.355936909884979 -0.86280958149438 -1.30359876537374 -0.346903600707987 0.440291161454476 3.62889014972938 -3.24905561964534 0.117459244539589 0.378139145535939 -0.87067663888032 -1.57171917796208 -0.254956628318037 0.0391481107163208 0.315320442912331 0.670354124723684 -0.006316940091351 -2.5083206675894 -0.551263258961428 -0.439264263382725 -1.07134676600466 -0.249652702348544 -0.229786055601887 1.74212075165753 -2.98671658663672 -0.182510949104399 -0.854974662881342 -2.06338892443812 0.0173361683234777 0.33165156752963 -1.67430048463989 0.326428631267849 -0.0675320465022619 -0.107314962260935 0.329172768253277 -0.504721173596278 -0.191763573267671 -0.938161377108871 0.251738380154764 1.47441017270123 1.79283959194897 -0.0128015160221566 -1.11389258779214 0.791008991730422 1.88730675835477 1.1227088959745 -0.116655260996683 0.495001380230108 0.326703482053703 3.27582567481126 -1.23380440636939 1.74663354959328 0.558480856024572 0.595814540177962 0.808980993536985 -0.270426176711391 -0.65238443690877 1.51123760690387 -1.23850283785742 1.8336784592301
-0.818540864369197 0.172483394848923 0.968500378727961 -0.455604901076804 0.592579836962964 0.113108683129448 0.543566151406591 -0.748863747608392 0.241848894067674 0.38988702402729 -0.740889475276052 -0.451795042381959 -0.530700872058998 1.04258924912251 0.859117993483813 4.5754469456507 1.40725273573591 0.876775549536307 -0.167616299080708 -0.552344921502203 -4.67748369296046 -1.53391163974103 -0.0605178235940382 1.29569596967233 4.77697762055825 3.05994439502769 -1.46200126392884 -0.690658373002168 0.213774776052504 -0.697466650653638 -0.535221640410425 -0.172742047693235 3.76310243669692 -0.548819683780175 0.57553368892615 -1.00092660081437 -0.0101759068311893 -0.976409345073764 -1.61758403510465 -3.4225707976595 0.0717381119894372 0.839298655010868 0.932406222767839 -0.00118090707149559 -0.311434222493072 0.792483518631147 0.700527547384785 0.842781726662849 -2.08409169350058 -0.0478188945349834 -0.131810877856334 -1.76584867913567 -1.27912264726245 0.275425170003594 -0.694867009591176 -2.26077601163302 0.0604031524523254 -0.345594138544885 -0.379073741051917 -0.485644112222268 0.101719216233495 -0.408464263205135 0.560607157239741 0.998311018920549 0.663702941394156 0.655492127693261 0.776556571221857 -1.8651950254883 -0.579148658102119 -0.0854086604308525 -0.484014804991249 -0.350415468700488 -0.197722358873807 1.4772869785412 0.413552730841096
0.794457610617853 -0.370985311798231 -0.772629727393651 0.738527661133061 -0.369310496064784 0.791499557959992 1.22095455363279 -0.553429155144811 -0.382241338509096 -0.833941764343633 0.202121514108575 2.26422051675752 0.66255237332428 -0.325443127935595 0.574368208465647 0.924429893554034 3.37417366232247 0.964421839891659 -0.702147341539024 -1.47712525623596 0.298889302433761 -1.98171581785916 1.13805708836137 1.66199467705096 -0.0349286754996184 1.2149276338281 3.21534256109195 -1.91294141495162 -0.345748661764995 -3.44923800875213 1.5225707666697 -0.439174017708418 0.555365451934585 -0.053646811057864 0.142238752667072 -2.20774523657413 -1.38285683600178 -0.260362369920082 -0.754052488215806 2.47763688121462 -0.17270965181015 -0.766868402408223 0.350085853445609 0.173216415981262 0.507758930410935 -0.30996226669418 0.0254428524001718 0.782084954381295 -0.401669612393375 -0.758343657173625 0.388905891568151 0.15056346617913 -1.15543799385673 0.605433546352313 -0.811529469672988 0.562812391281155 0.369956356845014 2.23089132370766 -1.57347164097086 -2.15074905115956 -1.39198579016693 0.256742515650632 -0.264528069108493 1.13791310665878 0.414074150292651 -0.55730740514839 -1.99842515155597 -0.626873193199864 -1.02713872688271 -0.0985068816044366 -0.502817786909955 0.479417674915407 -0.296325656796948 1.42742534360059 -1.12716127301719
-0.000369210223093331 0.0741737167550104 -0.496661026462745 0.264363004370871 1.35940041687711 -0.182335342849264 1.10546837263917 -0.542988681935096 -1.33224058267344 -1.67332295172331 0.431936108940799 2.0362406601927 -0.750793359533403 -0.326223971562012 0.351875083210586 3.5058421011373 0.355478996648677 -0.397187667679613 -0.347344544672196 -1.68919307778211 -1.8227001115171 -0.750384297231911 -0.732277569689345 -0.681101330381972 -3.13509204515671 0.0930085803364346 -1.76231392833687 -0.133596765188929 -0.619915277421764 -0.649869385096584 -0.420125495564744 0.507216170814173 2.97671937138286 1.28341407333045 -0.000858490901746958 0.151939519879684 -0.562224637402331 0.402744075849021 2.74438612519589 1.56835566254529 0.536752731551457 -0.055597248907715 -0.785615591417171 0.601112038392875 0.27391387634667 0.304383489938832 -0.203091333719653 -0.684185109919424 0.804852061104773 -0.152083758692467 -0.55415497719202 -1.21114862835524 -2.01206124723283 1.06646115830325 1.0382505147808 1.47253686790634 -0.941643677430303 1.05195911552933 -0.0977970003885865 -1.36146218343629 -0.464686289858057 0.126505152115559 0.0267808537936103 0.591842187847327 0.550493471072889 -0.0108868164877722 0.0813717734442311 -0.971232688644961 -0.994678823362304 -2.30511491983822 1.63702002229442 1.19014504037842 0.939715865276574 -0.80065499447401 1.10855652304974
0.0982415438953611 0.194741680519823 0.0278141796199419 0.72190831600038 0.0763586390919513 1.49536362419233 2.03325329697395 0.379375331296825 -0.393713080663677 -0.101186998154245 0.155857879071845 -0.587116245569695 -2.4130402616741 -0.409734644620389 0.727332312425434 -0.989700655994941 -2.87665491628852 -2.4420772573254 -2.29702957590673 0.180639186970611 -0.188028533636141 -0.607929572010941 1.8918167280785 -0.838119547710655 1.55976561132416 -0.157806774260597 -0.705582847807111 -0.912678415520118 0.444252458047233 0.538522678052692 0.553148905045109 -0.522542251725295 0.184522322067671 0.99184058404982 -0.456212966660102 -0.361084769973262 0.115037266613726 -0.166867594227193 0.0203484712299968 -0.996056419723957 -0.402036508624819 0.463801573717622 -3.56343606772785 -0.346481168676968 0.96054924631211 1.85711250976883 -0.109872951473717 0.303220323469978 5.36258771467469 0.356853764798315 -0.032597971688796 0.480500108786733 1.15231436224088 -0.808423321549597 -0.160740144340869 0.988572456511004 0.539218418208466 0.481920128328616 -1.24411683870787 1.87025238279209 -1.38758200694886 -0.868227150164854 -1.04311606788791 -0.0839043087488755 0.280923985491963 1.43506125893182 -0.284733587076624 1.99065425337855 -0.0119049728132942 -0.714417925032847 0.715879082204044 -0.390911865217576 0.257120467619954 -1.24768578516104 -0.763330566287217
0.134125897945981 -0.150221509635458 -0.0375172608242032 -0.0653941753288489 0.110162714650198 -0.157631682225829 -0.734259632091732 0.262493042008365 0.353440370005984 0.62844387930911 0.280809571460433 -0.803229695848702 0.439428042569432 0.70445027745006 0.53000718878469 -1.25425315057084 0.807698270832937 -1.12879135157876 1.5576223408369 -0.954338492726426 -0.662564200392708 -1.88704784840027 -1.01976557815873 3.21819776967653 -0.173348827725617 -0.12504065251198 -0.772830273336557 0.526101170881324 0.228504875558939 1.49615680910754 -1.54912484928172 0.611646099709279 0.248270478003593 -1.35453280688853 1.26567887000263 -2.96816942935031 -0.588421079749499 -1.20865877334101 0.746876543002342 0.804287704252622 -0.211046322788252 0.168149031380324 1.44156357546527 -0.0427733642996189 -0.0568797145015796 -0.748361354310394 0.470152452353157 -1.04774019453299 0.513328194089504 0.396456446318556 -0.725351535573964 -0.141446339082411 -2.23515112522313 0.44344307519048 0.00789816771810865 0.856770320400899 0.559835312469737 1.1329305684183 -0.763416955308776 -1.19552352830105 0.65277498727707 -0.230333443181947 0.124272921504907 0.493845155736201 1.01783802311518 -0.206665936596858 -0.674931457315418 -0.0862545529336221 1.04411005585621 0.32850633865839 1.00549596299043 0.299502510220724 0.510265240476892 -0.991156670962474 0.530633252080813
-0.765568196211716 -0.494262188453372 -1.16728640242972 0.0447513129390736 0.3524492102497 0.00283001178662137 -0.610480362138593 -0.162416759845599 -0.887190054617517 3.58291319254694 1.07667666010266 1.20085136551758 1.21521122636019 -1.09699813476342 0.109923087959444 2.06781353358102 -0.236358820325535 3.30825009712638 -1.3143418572691 -0.246704676987828 1.95614338192665 0.913364899709296 3.23982870650039 -2.30332748984452 -1.06357921025962 -0.906820931326168 -1.3709899154956 -0.140815904913173 -1.1542683996333 -3.935127146979 0.79548656557107 0.105824237418668 -2.21297562903122 0.482890976380427 -0.977402561711515 3.91811519459655 -0.822429398780104 0.435597872170113 1.93293713101025 1.19319796669389 -0.217038018497839 -0.462399808998747 -0.593934807628494 -0.192422289557062 0.2847492707978 -5.34850733260123 0.826324618055776 -0.466791765148385 -4.75701275772161 -0.850164388463617 0.134805183050029 2.21181117701145 0.781956656399872 -0.338693301227458 1.99520433229086 0.169363619885821 0.895641266339716 -0.349122461589111 -1.18872219262452 0.514210853348473 -0.223968680596518 -0.237964473419698 -0.44991916648524 -0.022509482319899 0.202785886821997 -1.66963727724696 0.950773145815817 -0.124973289643978 -0.270953766807343 -0.173795428113857 0.347766462482848 1.7718642860923 0.732647808353172 0.54794293805542 -0.495029662350261
0.140773738843127 -0.55183250090706 -0.220503606657362 -0.333400688106026 0.647968055291727 0.124967633219947 0.554575609451756 -0.751113975931869 -0.439593621527421 0.11931043785872 0.482843925216899 0.795171605596635 0.797974363703836 -0.0364140010280378 -0.506321427376593 -1.70285154204492 0.802090440626887 0.404517364782638 -1.8469723412531 -2.01977069607646 -0.119333577775209 0.786631690861227 -0.0449973673844081 0.36091816257454 0.539800258553076 -0.845296264254669 -0.831505902467877 -0.593060633005571 -0.503394485050901 0.524408614545235 0.124024553067923 0.408850699810504 -1.18660540448613 -0.257038706581693 0.118393068725017 -0.538796500397814 -0.0708274277204981 -0.111709746622588 0.655535065093858 -1.23225711728682 0.350835072519491 0.731368170971322 -3.10314301957034 0.158458034354674 0.34382264938255 1.20362969815737 0.131119508573676 0.169013435816285 0.655727383510901 -0.80258692039067 0.637413168050482 0.690471196788789 0.522558963887204 -0.985244679409683 1.44368344892586 2.33542152557422 1.16606435772891 0.819716629237028 -1.20666848341276 -0.49233334785891 0.314973601275177 -0.288424660866824 0.139755325407421 1.34778032214681 0.84011189452037 -0.461470355686433 -0.513939602105184 0.21809448424066 0.289516093594562 0.431744818964489 -0.477081571790738 -0.877383872229788 -0.317326930782122 0.622544743265479 0.316620649108837