-0.134891829181771 0.360858770122218 0.0754829218079291 -0.0675531295372853 -0.0117517351440995 -0.0395533163650639 -0.0144758175352373 -0.0139556836345981 -0.00202525691316585 0.0622546028816395 -0.00116753734196853 0.0582801936695388 0.0345332400378374 -0.0138716086046876 -0.0136571787118883 0.0386279768156817 -0.0104458725235626 -0.0482966052553925 0.0637281013416311 -0.0200545942905848 0.000351212510268447 -0.067371352637754 -0.0203602982984246 0.0336032725051573 0.00506584193983837 -0.00948093800596558 0.0061050813003838 0.0257238738304232 -0.0198183100322124 0.0232214204172147 0.0141091784139761 -0.00417906891793802 0.0376388739408627 -0.0185499854984245 -0.0229051748918632 -0.0226064128589701 -0.0165375840944193 -0.02185410846289 -0.0382903911451235 0.00705047544405663 -0.0462489797562871 0.0308051423812543 0.0470763603258654 -0.000939737719642147 -0.0265597390360475 -0.0338215590507049 -0.0184448274334906 -0.053112278986965 -0.00853888629467452 -0.00833705480085261 -0.00104772399659145 0.028516861750662 -0.0327969749706026 0.0233954840112497 -0.00133774428325529 -0.0393316873871347 0.036699650441587 -0.00453876606425248 -0.02035592742531 -0.0235906306403081 0.00772976054810438 -0.00295496733566271 -0.0161724876342574 0.00817147584286368 -0.0139469418883689 -0.0272788762184932 -0.0098336931773333 -0.0198373361857701 -0.0225243947105253 0.0255364405068612 0.0244871738491705 0.00338614111291028 0.00932641478585479 -0.0123065789194723 0.00574641259480219