0.000000 0.000000 0.000000 5.203180 0.000000 2.473465 0.000000 3.109365 0.000000 5.203180 3.109365 2.473465 2.986833 4.664048 4.879553 2.216347 1.554683 2.406088 7.419527 1.554683 0.067377 8.190013 4.664048 2.540842 1.127425 4.664048 2.189561 4.075755 1.554683 4.663026 9.278935 1.554683 2.757369 6.330605 4.664048 0.283904 1.186440 4.664048 3.722164 4.016740 1.554683 1.248699 9.219920 1.554683 1.224766 6.389620 4.664048 3.698231 4.875494 4.664048 0.797044 0.327686 1.554683 3.270509 5.530866 1.554683 4.149886 10.078674 4.664048 1.676421 1.827253 5.874287 1.542512 3.375927 0.344443 4.015977 8.579107 2.764922 3.404418 7.030433 3.453808 0.930953 8.579107 0.344443 3.404418 7.030433 5.874287 0.930953 1.827253 3.453808 1.542512 3.375927 2.764922 4.015977