0 0 0 0 0 0 0 0 0 0 0 0 0.106257982297748 0 -0.110180969473206 -0.106076205398216 0 -0.11013648941151 -0.106257982297748 0 0.110180969473206 0.106076205398216 0 0.11013648941151 -0.539448531822441 0 0.599884080157851 0.54126835769922 0 0.598186381618098 0.539448531822441 0 -0.599884080157851 -0.54126835769922 0 -0.598186381618098 -0.0116198376201114 0 0.476279130908931 0.0116769160807846 0 0.477536913925207 0.0116198376201114 0 -0.476279130908931 -0.0116769160807846 0 -0.477536913925207 -1.0079559932234 0 0.0564837648194321 1.01012240362715 0 0.0569457918186652 1.0079559932234 0 -0.0564837648194321 -1.01012240362715 0 -0.0569457918186652 0.82909806560209 1.36086028849739 -0.411408946133469 -0.828887749472222 -1.3607055081671 -0.411565783345229 -0.82909806560209 1.36086028849739 0.411408946133469 0.828887749472222 -1.3607055081671 0.411565783345229 -0.82909806560209 -1.36086028849739 0.411408946133469 0.828887749472222 1.3607055081671 0.411565783345229 0.82909806560209 -1.36086028849739 -0.411408946133469 -0.828887749472222 1.3607055081671 -0.411565783345229