13.8608667309158 0 0.00199810677971973 0 16.3285286038696 0 0.00199810677971973 0 10.8856857359131