9.043553576 -0.024830248 0.196757354 -0.014838306 8.804339409 0.068254172 0.093533624 0.054295361 5.236585383
9.740365889 0.207139283 -0.020622627 0.123784348 6.778005224 -0.228811131 -0.009803492 -0.182016464 5.304133617
8.898045114 0.038897163 0.199715925 0.023244553 8.633145495 -0.023121782 0.094940056 -0.018393096 5.256927135
8.814638739 0.057309286 0.331850969 0.034247452 8.867825543 -0.170587073 0.157753818 -0.135699936 5.164913378
9.337900940 -0.088346464 0.147015472 -0.052794957 8.938006482 0.327111617 0.069887553 0.260213302 5.350908737
9.532774134 0.049042845 -0.121480660 0.029307510 8.926654795 0.370113110 -0.057748929 0.294420465 5.190048523
8.063703059 0.473903844 -0.099149763 0.283200161 9.462282622 -0.265138887 -0.047133368 -0.210914751 5.240229125
9.295503678 -0.075404320 0.148919129 -0.045060862 8.899714361 0.287675439 0.070792505 0.228842303 5.338163494
10.267944427 0.041588043 0.036867804 0.024852595 6.183755966 -0.003266581 0.017526050 -0.002598525 5.196758441
8.461623632 0.219938582 0.113092994 0.131433080 9.085145751 0.173503013 0.053761638 0.138019530 5.270994049
8.953425359 -0.175959932 0.011894350 -0.105151882 8.752702931 -0.070798935 0.005654282 -0.056319689 5.338660227
8.613301824 0.144850521 0.146303738 0.086561211 8.894248655 0.168203242 0.069549212 0.133803628 5.291775720
9.557674163 0.268385280 -0.076368049 0.160384338 7.951434830 -0.089671955 -0.036303499 -0.071332946 5.273535379
8.069016410 0.471597044 -0.096218932 0.281821640 9.464168501 -0.258425540 -0.045740122 -0.205574365 5.239981335
9.462573712 0.335595062 -0.173952784 0.200548227 7.567432226 -0.220647650 -0.082692891 -0.175522515 5.279678459
8.045502519 0.479341375 -0.105622581 0.286449575 9.448970318 -0.294319719 -0.050210387 -0.234127746 5.234361103
8.036350642 0.466155406 -0.080266202 0.278569773 9.406904084 -0.369978349 -0.038156585 -0.294313264 5.215951736
8.192110217 0.381263413 -0.012455111 0.227839173 9.382802779 -0.079862731 -0.005920854 -0.063529829 5.265674991
8.726264649 0.103398690 0.369042127 0.061790015 8.920573014 -0.246604019 0.175433583 -0.196170489 5.149713359
8.223968717 0.360412291 0.003032213 0.215378752 9.349312065 -0.033457691 0.001441440 -0.026615185 5.278346961
8.874562733 0.027386624 0.298416777 0.016365970 8.838257284 -0.110962769 0.141860023 -0.088269529 5.178393756
8.049364612 0.478617766 -0.104890173 0.286017153 9.453083847 -0.286587837 -0.049862218 -0.227977129 5.236591922
9.359044209 -0.095990324 0.147589946 -0.057362850 8.960629347 0.348962279 0.070160644 0.277595237 5.353489928
8.187068713 0.384611989 -0.014712260 0.229840248 9.387828436 -0.087162839 -0.006993848 -0.069336975 5.263101847
9.448730823 0.335726255 -0.199725092 0.200626626 7.490251873 -0.244938622 -0.094944414 -0.194845687 5.278720122
9.510522851 -0.082644598 0.031969467 -0.049387579 9.130515218 0.476717740 0.015197501 0.379223147 5.253608292
8.150091592 0.391201312 0.122035064 0.233777961 9.279877370 -0.497294758 0.058012479 -0.395591914 5.168293285
8.538854442 0.181375074 0.132814397 0.108387916 8.986045261 0.181699907 0.063136710 0.144540060 5.277754930
9.614091731 -0.655737817 -0.320945812 -0.391862310 8.726499778 0.264342059 -0.152569774 0.210280884 4.970518908
8.561210505 0.181516238 0.372379586 0.108472274 9.040936298 -0.376516891 0.177020129 -0.299514594 5.154220899
9.382662310 -0.105200915 0.148761043 -0.062867006 8.987187341 0.373935470 0.070717354 0.297461105 5.351627837
9.002273832 -0.015698954 0.217879350 -0.009381537 8.801033496 0.024844513 0.103574504 0.019763507 5.216966042
9.003153629 -0.320872087 -0.207218003 -0.191749925 8.762294245 -0.071461846 -0.098506361 -0.056847027 5.267528663
9.551260230 0.107878651 -0.166508179 0.064467194 8.759143083 0.278404088 -0.079153908 0.221467056 5.179545555
8.652519749 0.126702419 0.154319413 0.075716089 8.850198844 0.155255573 0.073359667 0.123503915 5.296157114
8.428676956 0.237074751 0.102005203 0.141673482 9.124916917 0.161820522 0.048490774 0.128726251 5.272827622
8.318806915 0.300433939 0.054954511 0.179536294 9.244358324 0.086360008 0.026124028 0.068698333 5.285088146
9.901357966 0.143476643 0.046901085 0.085740196 6.554142074 -0.163671561 0.022295627 -0.130198730 5.353816585
8.920657015 -0.066763676 0.104348447 -0.039897300 8.724561537 -0.076187788 0.049604694 -0.060606456 5.325834867
8.815868165 0.066917681 0.204987183 0.039989332 8.686237727 0.061930836 0.097445883 0.049265225 5.284329035
9.428998205 -0.121540558 0.148074643 -0.072631413 9.041507660 0.416150889 0.070391057 0.331042957 5.332902307
9.308388195 -0.079024425 0.147899756 -0.047224200 8.910157562 0.299015187 0.070307919 0.237862934 5.342714564
9.515153170 -0.023201790 -0.047676743 -0.013865156 9.055590372 0.446078665 -0.022664355 0.354850137 5.216965026
8.967175270 -0.006688612 0.239508838 -0.003997047 8.805349904 -0.012562333 0.113856632 -0.009993183 5.203223136
8.036306454 0.477475138 -0.101914709 0.285334330 9.429786264 -0.327976159 -0.048447755 -0.260901034 5.224814515
8.915992407 -0.036616453 0.119096486 -0.021881623 8.712872750 -0.071515338 0.056615551 -0.056889579 5.319401939
8.862767426 0.052463866 0.214513927 0.031351877 8.649610131 0.022957103 0.101974664 0.018262095 5.273386375
9.214625472 -0.056318330 0.159831564 -0.033655267 8.855723420 0.223065029 0.075980009 0.177445510 5.307773314
8.136682540 0.398213946 0.108394516 0.237968641 9.288097149 -0.491523991 0.051528097 -0.391001340 5.170620161
8.708625679 0.112131282 0.374202553 0.067008524 8.932520735 -0.260682450 0.177886724 -0.207369709 5.148623221
9.536082580 0.065206831 -0.137708125 0.038966945 8.884476772 0.347528351 -0.065463068 0.276454564 5.186185756
8.246233551 0.346000802 0.015186865 0.206766592 9.324686975 -0.001582680 0.007219464 -0.001259002 5.283694091
9.474319774 0.332696435 -0.155949313 0.198816036 7.612894078 -0.206044620 -0.074134482 -0.163905982 5.278460043
9.128647108 -0.603580528 -0.569918421 -0.360693641 8.787466972 -0.063718094 -0.270925251 -0.050686967 4.987541681
9.599336789 0.213802388 -0.089788902 0.127766152 8.235963975 0.027386424 -0.042683444 0.021785567 5.268065983
10.154226182 0.065453823 0.069826489 0.039114545 6.277572399 -0.039764327 0.033193802 -0.031632037 5.324340961
8.302456777 0.307850771 0.252341839 0.183968518 9.203841221 -0.509673930 0.119957126 -0.405439395 5.138630730
8.066342339 0.472792516 -0.097741359 0.282536043 9.463301973 -0.261766264 -0.046463847 -0.208231870 5.240205313
9.513137348 -0.035669339 -0.032541128 -0.021315638 9.072662080 0.455367689 -0.015469255 0.362239442 5.224126055
8.037625879 0.478647947 -0.103870011 0.286035189 9.434675094 -0.319378608 -0.049377258 -0.254061787 5.227041092
8.779012879 0.078343826 0.193266670 0.046817481 8.719540066 0.088035735 0.091874239 0.070031354 5.287927981
8.810981932 0.068393058 0.203586171 0.040871002 8.690472401 0.065510279 0.096779877 0.052112628 5.284917175
9.061920145 -0.548055128 -0.549074293 -0.327512221 8.759787585 -0.090887868 -0.261016463 -0.072300190 4.978839226
9.432250582 -0.122449588 0.147730081 -0.073174639 9.045845585 0.418576346 0.070227260 0.332972378 5.331022855
9.491151396 -0.127775366 0.104511093 -0.076357271 9.143959255 0.474651939 0.049682012 0.377579828 5.283899963
8.917282709 -0.046150134 0.114823974 -0.027578855 8.717021579 -0.073221821 0.054584503 -0.058247065 5.321806234
8.977920277 -0.236225408 -0.062631292 -0.141165923 8.757285713 -0.066712266 -0.029773381 -0.053068794 5.327817682
9.009227681 -0.349017970 -0.263872422 -0.208569621 8.765621429 -0.072924155 -0.125438483 -0.058010276 5.238220862
9.101426820 -0.585626919 -0.571200820 -0.349964745 8.775236976 -0.075786395 -0.271534872 -0.060287153 4.978357679
9.631763860 -0.651225248 -0.324811727 -0.389165645 8.713026751 0.267696998 -0.154407535 0.212949696 4.970907450
9.321143307 -0.680460759 -0.421370066 -0.406636492 8.869361067 0.097222103 -0.200309003 0.077338997 4.996326019
9.494226229 -0.125134479 0.098341133 -0.074779104 9.145273660 0.475691478 0.046748965 0.378406768 5.280886992
9.497359359 0.286278115 -0.183764258 0.171076916 7.190757630 -0.293214188 -0.087357025 -0.233248310 5.259768904
9.455299249 0.315234337 -0.212210000 0.188380863 7.332595460 -0.280992796 -0.100879434 -0.223526342 5.270041618
8.981245475 -0.010477140 0.230584083 -0.006261033 8.802866769 0.002456882 0.109614022 0.001954420 5.208355260
10.177475054 0.060022785 0.064029730 0.035869012 6.258424505 -0.030648386 0.030438164 -0.024380417 5.305958596
9.588685531 -0.662007279 -0.317137466 -0.395608878 8.743726675 0.259115178 -0.150759379 0.206122963 4.967910078
10.398012905 0.005384477 -0.003598744 0.003217709 6.211892141 0.000054510 -0.001710755 0.000043362 4.953343643
8.278549770 0.320336665 0.235563205 0.191429963 9.216321799 -0.513261592 0.111980975 -0.408293336 5.142890234
9.453587936 -0.128104135 0.143981560 -0.076553740 9.080235140 0.434671799 0.068445305 0.345776115 5.318123107
9.484157775 0.329169321 -0.142174886 0.196708269 7.647306546 -0.195137095 -0.067586457 -0.155229179 5.276914682
9.462643026 -0.130905381 0.140939952 -0.078227737 9.100093157 0.443795506 0.066999399 0.353033912 5.312275272
9.936476302 0.128810740 0.059145573 0.076976000 6.509405577 -0.146799211 0.028116356 -0.116776982 5.361250503
10.220509376 0.050238730 0.051873391 0.030022159 6.222284743 -0.015785324 0.024659339 -0.012557033 5.261804985
9.591518339 0.226900690 -0.080199370 0.135593565 8.163665358 -0.003645353 -0.038124815 -0.002899834 5.273518574
8.533610581 0.194461014 0.363380207 0.116207942 9.060801893 -0.397138932 0.172742045 -0.315919177 5.153496288
8.105740117 0.413673306 0.073800639 0.247206999 9.310301289 -0.474376798 0.035083015 -0.377360957 5.177155918
8.759869808 0.086246293 0.356891442 0.051539916 8.899105039 -0.219102625 0.169657446 -0.174293466 5.153876936
9.594591018 0.165960056 -0.144648748 0.099176057 8.497400033 0.143244699 -0.068762470 0.113949411 5.226172707
8.182127032 0.387917211 -0.016894112 0.231815416 9.392669937 -0.094290332 -0.008031047 -0.075006809 5.260436727
8.783725068 0.073699352 0.346706517 0.044041990 8.884939838 -0.198659520 0.164815782 -0.158031225 5.158248271
10.012410581 0.101392449 0.079142631 0.060591106 6.415857554 -0.107781726 0.037622467 -0.085739048 5.370310505
9.602626779 0.183901023 -0.124296459 0.109897398 8.396774132 0.098710777 -0.059087490 0.078523219 5.244913966
10.292977711 0.038760161 0.027827605 0.023162682 6.169917870 0.000728704 0.013228562 0.000579675 5.153930496
8.938908014 0.001888148 0.257854993 0.001128338 8.812879256 -0.042771450 0.122577945 -0.034024167 5.194295575
9.570962186 0.252737222 -0.074024300 0.151033217 8.027151276 -0.059878313 -0.035189338 -0.047632467 5.275443694
9.447416415 -0.692759128 -0.310641239 -0.413985873 8.829379089 0.205169017 -0.147671232 0.163209450 4.952270972
9.588963571 0.254313179 -0.119143395 0.151974992 7.020875778 -0.280123148 -0.056637850 -0.222834547 5.259356961
9.036118120 -0.480395177 -0.474470673 -0.287079316 8.755861559 -0.092083413 -0.225551731 -0.073251232 5.055802224
10.356742661 0.027689673 0.000844116 0.016547070 6.179627423 0.002400671 0.000401272 0.001909705 5.028718663
9.599740913 0.175598569 -0.134287368 0.104935935 8.441980094 0.118736687 -0.063836924 0.094453586 5.236849422
9.831046455 0.172900869 0.020376990 0.103323817 6.645732290 -0.194170649 0.009686722 -0.154460383 5.335175863
9.512623023 -0.039761983 -0.027330808 -0.023761360 9.078168544 0.458135640 -0.012992396 0.364441314 5.226595298
8.371544850 0.268887257 0.079403312 0.160684315 9.188586729 0.129912476 0.037746388 0.103343790 5.279234471
9.507888731 -0.101555416 0.058721320 -0.060688493 9.144100047 0.478081594 0.027914676 0.380308076 5.264482023
9.044772688 -0.515489749 -0.514916900 -0.308051479 8.754580037 -0.095368821 -0.244778876 -0.075864734 5.006865193
9.767663739 0.197260996 -0.006965929 0.117881183 6.735804296 -0.218644268 -0.003311432 -0.173928848 5.314104412
9.513416575 0.279137583 -0.172676871 0.166809806 7.154456726 -0.293301051 -0.082086353 -0.233317409 5.257785778
8.146613113 0.412892145 -0.033227596 0.246740184 9.425035549 -0.144938863 -0.015795585 -0.115297098 5.238559696
8.961635015 -0.196075656 -0.010833429 -0.117172836 8.754969393 -0.068699514 -0.005149947 -0.054649625 5.337418123
8.910131335 0.018611882 0.154031014 0.011122273 8.664625477 -0.056352214 0.073222569 -0.044827499 5.282925160
10.364078592 0.025115395 -0.001696141 0.015008707 6.184479415 0.002251147 -0.000806304 0.001790760 5.013858236
8.184864625 0.372211048 0.155487068 0.222429571 9.261121547 -0.508192714 0.073914742 -0.404261105 5.162523738
8.902337614 0.035935141 0.191499513 0.021474478 8.635310006 -0.032332250 0.091034176 -0.025719911 5.257694228
9.381519744 -0.692550339 -0.346038407 -0.413861103 8.859045605 0.154585452 -0.164498179 0.122970842 4.976979228
9.191427388 -0.051602485 0.163281141 -0.030837125 8.847650168 0.204751358 0.077619853 0.162877208 5.299542053
10.404728244 0.000413821 -0.000403537 0.000247296 6.217351330 -0.000177014 -0.000191831 -0.000140812 4.947506843
8.089700516 0.421482767 0.052838666 0.251873854 9.324314521 -0.462894774 0.025118207 -0.368227147 5.181699093
9.028793203 -0.437352522 -0.418739509 -0.261357459 8.762632475 -0.083113282 -0.199058501 -0.066115602 5.122559691
9.543949356 0.092812611 -0.160250163 0.055463881 8.804900085 0.304494689 -0.076179000 0.242221812 5.180317739
10.402856130 0.001356720 -0.001114599 0.000810762 6.215782912 -0.000253905 -0.000529853 -0.000201979 4.948541579
9.534779437 0.058800904 -0.131332928 0.035138828 8.901780726 0.356734740 -0.062432455 0.283778134 5.187712974
9.601654375 -0.658841710 -0.318870393 -0.393717166 8.735158520 0.261873818 -0.151583170 0.208317428 4.969520216
8.451962630 0.233787824 0.328909923 0.139709247 9.115937869 -0.451282404 0.156355717 -0.358989648 5.143876059
9.554940757 0.271577711 -0.077263873 0.162292103 7.936579420 -0.095385533 -0.036729352 -0.075878028 5.273091973
9.534128800 0.055578387 -0.128083750 0.033213084 8.910211500 0.361242133 -0.060887876 0.287363711 5.188482080
8.625759864 0.151502737 0.383670538 0.090536508 8.992922715 -0.326166000 0.182387572 -0.259461075 5.151316159
8.924720790 0.006773062 0.267054738 0.004047513 8.817675841 -0.057927386 0.126951278 -0.046080529 5.190388890
9.562200088 0.124678515 -0.167454746 0.074506624 8.703026083 0.245839164 -0.079603883 0.195562056 5.183764008
9.446616707 -0.126228394 0.145558696 -0.075432816 9.067497388 0.429091811 0.069195037 0.341337302 5.322394848
10.373908981 0.021045932 -0.004420990 0.012576837 6.191814397 0.001962355 -0.002101630 0.001561030 4.994461823
9.429724145 -0.694510065 -0.314195503 -0.415032215 8.838684967 0.193556700 -0.149360842 0.153971994 4.956585209
8.926739014 -0.095062282 0.086058890 -0.056808262 8.733683339 -0.077957575 0.040910287 -0.062014300 5.330481999
8.407094442 0.255852501 0.308288314 0.152894876 9.143810135 -0.474867266 0.146552709 -0.377751118 5.137545123
8.035858375 0.476727506 -0.100664228 0.284887553 9.427376072 -0.332286032 -0.047853307 -0.264329486 5.223764310
8.980375377 -0.242662348 -0.071860086 -0.145012574 8.757490686 -0.066723882 -0.034160524 -0.053078035 5.325208100
8.653655595 0.138454696 0.383483648 0.082739131 8.972072482 -0.304119290 0.182298728 -0.241923185 5.149460604
8.333189471 0.291684394 0.061985199 0.174307654 9.229094586 0.099770232 0.029466245 0.079366002 5.283695900
9.490940152 0.326182540 -0.133242709 0.194923398 7.670353252 -0.187879429 -0.063340319 -0.149455794 5.275745528
9.758490635 0.200619396 -0.011402994 0.119888129 6.749764668 -0.222073785 -0.005420704 -0.176656987 5.310792825
8.717508910 0.107755320 0.371719670 0.064393493 8.926448768 -0.253612047 0.176706422 -0.201745290 5.149076830
9.520764671 0.001518000 -0.074592538 0.000907142 9.019410231 0.424245308 -0.035459465 0.337481968 5.204864652
10.4063 0 0 0 6.2187 0 0 0 4.9469
9.537437076 0.071459125 -0.143705339 0.042703253 8.867022058 0.338249981 -0.068313996 0.269073735 5.184703248
8.096853992 0.454237018 -0.074066884 0.271447464 9.463101998 -0.221927656 -0.035209582 -0.176540744 5.228950205
10.382186674 0.016903795 -0.005828917 0.010101538 6.198579991 0.001569624 -0.002770924 0.001248617 4.978990763
8.113889359 0.439526783 -0.056561485 0.262656776 9.452421622 -0.194666836 -0.026887944 -0.154855094 5.224720651
9.600580135 0.177622353 -0.131921706 0.106145328 8.430786123 0.113789472 -0.062712346 0.090518137 5.238891107
8.621152307 0.141126177 0.147797669 0.084335581 8.885215807 0.165892099 0.070259390 0.131965141 5.292936363
9.191631060 -0.637070350 -0.542846558 -0.380706821 8.822607339 -0.024673581 -0.258055951 -0.019627532 5.002692602
9.039167851 -0.495663964 -0.492371634 -0.296203789 8.754559225 -0.094358494 -0.234061408 -0.075061031 5.033035735
8.363643601 0.273504724 0.075963353 0.163443667 9.196987495 0.124317683 0.036111116 0.098893200 5.280200885
9.776829294 0.193866398 -0.002674991 0.115852606 6.722095861 -0.215200305 -0.001271625 -0.171189218 5.317360349
9.014141595 -0.370984310 -0.307515497 -0.221696485 8.767432791 -0.074123283 -0.146185331 -0.058964168 5.212962118
9.459894790 -0.690877908 -0.309659663 -0.412861675 8.822430985 0.212465414 -0.147204615 0.169013645 4.950599000
9.365702089 -0.690048017 -0.363917055 -0.412365741 8.863585869 0.140104360 -0.172997250 0.111451309 4.983823262
8.791570090 0.069535643 0.343107178 0.041553799 8.880469418 -0.191716206 0.163104744 -0.152507903 5.159865966
8.040151841 0.456807676 -0.057511594 0.272983663 9.392836340 -0.392672044 -0.027339602 -0.312365822 5.210814556
9.469333084 -0.133117087 0.136939341 -0.079549430 9.116674840 0.452957457 0.065097607 0.360322132 5.306842585
9.513729587 -0.031554135 -0.037660496 -0.018856433 9.067080075 0.452440216 -0.017902877 0.359910674 5.221697773
9.314589140 -0.080856858 0.147539292 -0.048319243 8.915570924 0.304664003 0.070136564 0.242356498 5.344745717
9.230009635 -0.059608492 0.157512312 -0.035621434 8.861809332 0.235038271 0.074877493 0.186970077 5.313357120
8.928246390 -0.101046241 0.081597438 -0.060384215 8.735521178 -0.077946988 0.038789422 -0.062005878 5.331425926
9.554729893 0.113688208 -0.167553162 0.067938928 8.740618574 0.267632953 -0.079650667 0.212898749 5.180252571
8.047897927 0.446843935 -0.028514563 0.267029432 9.376121280 -0.414045058 -0.013555124 -0.329367794 5.203361930
8.984977369 -0.255324348 -0.090855966 -0.152579257 8.757857580 -0.067020909 -0.043190700 -0.053314315 5.319070996
9.064165505 -0.028890498 0.188705750 -0.017264671 8.808910793 0.089402318 0.089706089 0.071118454 5.246919411
9.397244578 -0.694244721 -0.331559379 -0.414873649 8.853383826 0.168307568 -0.157615203 0.133886617 4.969625561
8.910421484 0.016451458 0.151292826 0.009831226 8.667889483 -0.057525593 0.071920902 -0.045760908 5.285744413
8.037297708 0.463145802 -0.073419991 0.276771263 9.402375987 -0.377796274 -0.034902064 -0.300532328 5.214372491
8.660313034 0.123252585 0.156104838 0.073654503 8.841714596 0.152271832 0.074208414 0.121130385 5.296544424
8.061925338 0.436246188 0.006217341 0.260696325 9.354980624 -0.435914830 0.002955572 -0.346764930 5.193500403
8.988264057 -0.012272150 0.226241350 -0.007333713 8.801994408 0.009939409 0.107549593 0.007906678 5.211103806
8.747472913 0.088938042 0.182018268 0.053148477 8.750341294 0.108600802 0.086527024 0.086390614 5.291071650
8.150640584 0.409904197 -0.031162909 0.244954617 9.421548319 -0.139178048 -0.014814083 -0.110714440 5.241101950
9.288699836 -0.073582223 0.149586985 -0.043971995 8.894634306 0.281878393 0.071109987 0.224230824 5.335636952
8.784732016 0.076512570 0.195239941 0.045723141 8.714172331 0.084111342 0.092812283 0.066909547 5.287424184
9.009216587 -0.017329966 0.213921953 -0.010356213 8.800954496 0.032209472 0.101693254 0.025622243 5.220048339
8.542816223 0.190127843 0.366602894 0.113618483 9.054236723 -0.390354250 0.174274032 -0.310522045 5.153903192
9.043146653 -0.510589429 -0.509403308 -0.305123097 8.754372497 -0.095361032 -0.242157849 -0.075858538 5.012851405
8.847150723 0.057424622 0.212536161 0.034316375 8.660830255 0.037281351 0.101034482 0.029656860 5.278456045
8.896216148 0.017865072 0.285164679 0.010675987 8.828798421 -0.088243120 0.135560300 -0.070196326 5.183339393
9.065351533 -0.552478952 -0.553011024 -0.330155853 8.761044930 -0.089666642 -0.262887889 -0.071328720 4.976952096
8.575168665 0.163387841 0.139496044 0.097638927 8.939953975 0.177223151 0.066313001 0.140978855 5.284865921
9.176038025 -0.048636085 0.165525891 -0.029064434 8.842731001 0.192289438 0.078686952 0.152963903 5.294095898
9.274660202 -0.069984682 0.151194695 -0.041822141 8.885065880 0.270253235 0.071874253 0.214983152 5.330288494
9.582193158 0.149529664 -0.157905089 0.089357420 8.593363626 0.187458461 -0.075064210 0.149120919 5.205203073
8.950847464 -0.169462974 0.018853068 -0.101269365 8.751768233 -0.071574393 0.008962286 -0.056936556 5.338667198
8.907041663 0.030136159 0.175497950 0.018009065 8.644425701 -0.045095010 0.083427424 -0.035872531 5.265052780
9.511090414 0.314370457 -0.109410433 0.187864617 7.740260108 -0.165544449 -0.052011039 -0.131688590 5.272527636
8.311996348 0.304606654 0.051517756 0.182029866 9.251657445 0.079557436 0.024490279 0.063286970 5.285648583
10.376849265 0.019662507 -0.005033896 0.011750116 6.194166284 0.001843426 -0.002392991 0.001466423 4.988853728
8.570405634 0.177229653 0.374893875 0.105910655 9.034204511 -0.369482079 0.178215361 -0.293918487 5.154143449
9.892602067 0.147203738 0.043720724 0.087967470 6.565364702 -0.167716119 0.020783761 -0.133416127 5.351767743
8.294352772 0.312041677 0.246864919 0.186472961 9.208143736 -0.511089064 0.117353533 -0.406565116 5.139932677
8.552015160 0.185814223 0.369609449 0.111040707 9.047614370 -0.383477218 0.175703274 -0.305051450 5.154143421
8.806994673 0.061347659 0.335690175 0.036660743 8.871934348 -0.177709692 0.159578883 -0.141365892 5.163207453
8.698324460 0.107311021 0.165991185 0.064127985 8.801127101 0.135695099 0.078908142 0.107943796 5.295953510
8.206173316 0.360241547 0.175078020 0.215276718 9.250809461 -0.512239812 0.083227800 -0.407480523 5.158626114
9.450112107 0.321334657 -0.214400975 0.192026353 7.364947031 -0.275585259 -0.101920969 -0.219224712 5.272208926
9.466422619 -0.689727263 -0.309478412 -0.412174061 8.818695881 0.216011862 -0.147118453 0.171834802 4.950154807
8.672169883 0.129705572 0.381621224 0.077510743 8.958440996 -0.289501769 0.181413378 -0.230295126 5.148593811
9.603371135 0.201824559 -0.102233915 0.120608322 8.301264372 0.056124188 -0.048599498 0.044646107 5.260183946
9.585260795 0.153250491 -0.155411352 0.091580949 8.572675825 0.177538980 -0.073878748 0.141230093 5.209911952
9.517522828 0.309555354 -0.102773223 0.184987160 7.764227629 -0.157606548 -0.048855872 -0.125374086 5.271773423
8.903364571 0.014923672 0.280684911 0.008918236 8.825850931 -0.080669914 0.133430728 -0.064171932 5.185030625
9.261480060 -0.664364901 -0.489420991 -0.397017769 8.858748183 0.038513950 -0.232658745 0.030637377 5.002987364
9.866322964 0.158355264 0.033973425 0.094631510 6.599255049 -0.179428466 0.016150134 -0.142733156 5.345161355
8.074356695 0.468993490 -0.092888782 0.280265783 9.465420813 -0.251868515 -0.044157051 -0.200358331 5.238961235
9.386755998 -0.693213026 -0.340800747 -0.414257118 8.857281220 0.159240163 -0.162008324 0.126673607 4.974547460
9.354971614 -0.688007490 -0.377299185 -0.411146342 8.865952437 0.129994692 -0.179358786 0.103409192 4.987797132
9.498594380 -0.120380748 0.088725245 -0.071938322 9.146609361 0.476734721 0.042177807 0.379236656 5.276535261
9.813347397 0.179928634 0.013221164 0.107523538 6.669840346 -0.201204290 0.006285017 -0.160055559 5.329672933
9.687953154 0.224968098 -0.050899655 0.134438668 6.862719251 -0.247985959 -0.024196449 -0.197269806 5.284941795
9.086405307 -0.573800380 -0.567398651 -0.342897324 8.769123932 -0.081762826 -0.269727414 -0.065041330 4.974916428
10.379617428 0.018275406 -0.005502858 0.010921199 6.196434907 0.001712023 -0.002615924 0.001361893 4.983683068
9.470524549 -0.133435808 0.135922415 -0.079739894 9.119496856 0.454765617 0.064614185 0.361760502 5.305681005
8.084771816 0.462992076 -0.085195661 0.276679398 9.466004650 -0.238841439 -0.040499929 -0.189995451 5.235066041
8.598024857 0.164393827 0.380723466 0.098240094 9.013719840 -0.348014545 0.180986606 -0.276841325 5.153115586
9.038080461 -0.490641236 -0.486549205 -0.293202258 8.754876806 -0.093727304 -0.231293568 -0.074558927 5.040347243
8.873248701 0.048972381 0.214239546 0.029265401 8.642814268 0.012015270 0.101844230 0.009558000 5.268823193
10.333118419 0.033748474 0.010695255 0.020167748 6.168556416 0.002639561 0.005084262 0.002099739 5.076673477
9.471200360 0.333614295 -0.160541586 0.199364540 7.601476038 -0.209694267 -0.076317536 -0.166809232 5.278873583
9.593397672 0.164117570 -0.146426414 0.098075006 8.508359900 0.148126732 -0.069607529 0.117833008 5.223930233
9.654399348 0.235399799 -0.072891042 0.140672548 6.917008009 -0.259758240 -0.034650615 -0.206634512 5.273956609
8.882494674 0.045702119 0.212096913 0.027311126 8.637554350 0.000996224 0.100825675 0.000792484 5.264027556
8.800875905 0.071472015 0.200530767 0.042710956 8.699411900 0.072785675 0.095327413 0.057900117 5.285972766
9.576024413 0.246708591 -0.074163017 0.147430568 8.057773138 -0.047533426 -0.035255281 -0.037812261 5.275788471
8.837286410 0.045543126 0.319868497 0.027216113 8.856102448 -0.148783818 0.152057644 -0.118355712 5.170027829
8.733895103 0.093773068 0.177270763 0.056037840 8.764118347 0.116751071 0.084270176 0.092874053 5.292586870
8.170798999 0.380007789 0.142212443 0.227088825 9.268344684 -0.504459358 0.067604311 -0.401291267 5.164887160
9.510349413 -0.085579670 0.036113345 -0.051141548 9.133253606 0.477186981 0.017167399 0.379596423 5.255364392
9.556546634 0.116521754 -0.167785143 0.069632226 8.731297586 0.262203741 -0.079760945 0.208579878 5.180863709
9.482012168 -0.132904400 0.120810824 -0.079422330 9.137765642 0.469153178 0.057430505 0.373205631 5.293172756
8.079649106 0.466107931 -0.089189015 0.278541402 9.466036260 -0.245349470 -0.042398272 -0.195172511 5.237259074
9.260118227 -0.066450329 0.153109848 -0.039710047 8.876384334 0.258580052 0.072784670 0.205697277 5.324693168
10.403529990 0.000966200 -0.000831877 0.000577392 6.216342195 -0.000240862 -0.000395454 -0.000191603 4.948123577
10.401394927 0.002384296 -0.001815015 0.001424831 6.214590778 -0.000228701 -0.000862814 -0.000181929 4.949653501
8.913974553 -0.019106901 0.126793270 -0.011418091 8.703175864 -0.067996566 0.060274413 -0.054090439 5.313202906
9.592155917 0.162294734 -0.148113713 0.096985697 8.519265333 0.153009708 -0.070409630 0.121717357 5.221652813
9.077250177 -0.565454326 -0.562794604 -0.337909806 8.765547172 -0.085262107 -0.267538763 -0.067824966 4.974350886
8.053746905 0.477450847 -0.103540915 0.285319814 9.456703822 -0.279181998 -0.049220814 -0.222085874 5.238426113
8.191947129 0.368246325 0.162065344 0.220060292 9.257625061 -0.509745914 0.077041893 -0.405496657 5.161279465
8.286366033 0.316213015 0.241255110 0.188965711 9.212312988 -0.512285420 0.114686767 -0.407516804 5.141364061
8.220449711 0.352201856 0.187855515 0.210472280 9.244143031 -0.513946245 0.089301908 -0.408837970 5.155732302
9.848741685 0.165687122 0.027284977 0.099012954 6.622217800 -0.186908232 0.012970610 -0.148683218 5.340347963
8.071691779 0.470329690 -0.094599649 0.281064282 9.464874887 -0.255130613 -0.044970355 -0.202953291 5.239563460
8.089716389 0.459651821 -0.080926709 0.274683295 9.465325949 -0.232229001 -0.038470574 -0.184735338 5.232600948
9.473069543 -0.688462341 -0.309461043 -0.411418156 8.814834492 0.219446649 -0.147110196 0.174567133 4.949984922
9.749392301 0.203911935 -0.015953444 0.121855717 6.763837908 -0.225461602 -0.007583876 -0.179351954 5.307465680
8.636857707 0.133804110 0.150940686 0.079959987 8.867487809 0.160842699 0.071753503 0.127948405 5.294861071
9.479313903 0.296177169 -0.196314413 0.176992491 7.239583545 -0.291030946 -0.093323061 -0.231511568 5.263111726
9.525203418 0.274553395 -0.164510533 0.164070342 7.130603144 -0.292528537 -0.078204276 -0.232702883 5.256861565
9.525936176 0.020952447 -0.093811742 0.012520971 8.986553353 0.404144752 -0.044595803 0.321492221 5.197659277
8.042198882 0.479596657 -0.105708781 0.286602128 9.444395940 -0.302482893 -0.050251364 -0.240621452 5.231896744
8.040799378 0.479540884 -0.105502167 0.286568799 9.442009129 -0.306652034 -0.050153145 -0.243937953 5.230650414
9.575112451 -0.665250722 -0.315672188 -0.397547127 8.752387158 0.255960192 -0.150062822 0.203613211 4.965718400
9.530496213 0.038883477 -0.111323180 0.023236374 8.950333520 0.383172869 -0.052920312 0.304809344 5.192562675
10.405231729 0.000238616 -0.000253567 0.000142595 6.217780410 -0.000133662 -0.000120539 -0.000106326 4.947289299
9.402522194 -0.694600512 -0.327585838 -0.415086266 8.851250555 0.172723063 -0.155726280 0.137399090 4.967197226
9.457570251 -0.129270515 0.142833711 -0.077250757 9.088461017 0.438316309 0.067899646 0.348675277 5.315637363
8.038516987 0.479064446 -0.104584390 0.286284084 9.437133184 -0.315106506 -0.049716856 -0.250663382 5.228213249
8.336058051 0.290854737 0.272829252 0.173811859 9.185338807 -0.501726365 0.129696340 -0.399117204 5.135102525
9.053193627 -0.534472879 -0.535632010 -0.319395606 8.756771217 -0.093730166 -0.254626331 -0.074561203 4.987703210
8.135274563 0.421612490 -0.039734686 0.251951375 9.434719542 -0.161435201 -0.018888896 -0.128419734 5.231885827
9.252703312 -0.064711049 0.154155391 -0.038670671 8.872401921 0.252729323 0.073281695 0.201043094 5.321857116
9.297275714 -0.674484177 -0.450922100 -0.403064947 8.867780717 0.073729789 -0.214357316 0.058651148 4.999710516
8.838717906 0.060020009 0.210808733 0.035867352 8.667339844 0.044330393 0.100213305 0.035264287 5.280497014
9.267367961 -0.666161741 -0.483650304 -0.398091542 8.860789723 0.044276121 -0.229915502 0.035221114 5.002550305
8.834351847 0.061347792 0.209804453 0.036660822 8.670819003 0.047838669 0.099735895 0.038055078 5.281400397
9.804445143 0.183392008 0.009501329 0.109593215 6.682246629 -0.204669251 0.004516699 -0.162811893 5.326782032