4.0138373994 5.0726814206 4.8217794374 2.6702214745 7.7581406641 5.4163284862 2.0172092559 2.8051693407 1.8594822165 6.4531113868 1.2774521534 0.3980002830 7.1593863851 5.5350815548 2.9216677172 1.3728624607 5.9238683010 2.8381475190 3.4885523140 2.0216348495 4.5414698556 7.6638160805 2.3573906235 2.9985370756 5.7952636359 6.9918714087 0.2794156549 2.1063997936 6.5119438458 4.0533401020 2.9245655010 3.2518872336 0.0332923793 6.9081459936 1.2478026135 2.2235989623 5.8469147373 6.3075003135 4.1255558698 4.3015365832 7.1545232592 0.8178179468 0.1285781607 2.5140201829 2.4447809436 4.9694493458 1.8088553260 4.9257856340 8.9301970810 5.6696245477 3.4203878235 1.5634452968 6.7606839321 1.5275092425 2.6217712611 0.8998935117 5.2887184224 6.8690245344 3.6377093418 2.8184402422 6.5034585788 6.0142570364 1.2431470661 7.7188958663 2.0253326138 4.4959707007 6.5356544921 8.2579853891 -0.0474399829 2.1410864738 4.5593922746 2.6875213765 3.4143589074 1.9828426126 2.9794861569
5.3836019244 2.9520736551 2.8521999735 2.6750164751 5.4395784419 4.8200518682 2.2694584333 1.8058307061 2.8523967096 7.3430714813 1.5530446437 -0.3539277129 7.6154901888 4.7203271650 2.6457432149 1.0859607560 4.6820839958 2.1042556323 3.8496079637 1.7676739726 5.1879018830 8.6682810669 1.4197796180 2.6206774641 5.9440626320 5.5326624601 0.1403360161 1.4807370606 5.1864186985 3.5106322622 3.7412226006 1.8002394072 1.4762653870 8.5832722372 1.7296715961 1.1123545131 6.4691482337 4.9463209854 4.0555711115 4.4505386759 5.4540636490 0.2850409932 0.4003007739 1.0889161789 3.1247495945 5.3120004578 2.0961446991 4.9333667313 9.2742038835 4.9172713859 1.8891970206 1.5224807801 5.6200304754 0.9880722364 3.1570582424 0.4984870059 4.3131696981 7.8149438781 2.6415648798 3.2706778606 6.5706219986 4.3538469046 1.0170642882 7.8667112286 0.2257463184 3.4102303184 6.6119094236 6.8125131973 0.5838291718 1.6300437047 3.2876242938 1.8887520855 2.9469691335 2.9119144960 4.7303869572
4.7590235869 4.2691949052 4.8733441135 3.0686735762 7.0598949930 5.7891602901 1.4123831775 2.8004094256 1.9810705789 5.8068589501 1.3857976830 -0.3975288716 7.6584022885 5.8399738330 3.1842265481 2.0030448540 5.5873019434 3.1455642057 2.6365361348 1.3547039090 4.6967004945 6.9629037529 2.9681008913 2.0762221196 6.4963143395 7.0215641258 0.5667018004 2.9132806044 5.7627878834 4.4399460731 2.5937118057 2.3473148544 0.6140558588 6.0807645047 2.5080876446 0.9004799137 6.8531264834 5.7772200932 4.9251092965 4.9332450699 6.8853306268 0.8445885534 -0.4740035283 3.0682392831 1.4183044898 4.0806513249 1.1942214267 4.1468562242 9.4247882196 5.5143260895 3.8821824599 2.0845940938 6.8313322415 2.2328577303 2.1797233820 -0.0139159917 5.3226771107 6.4296687316 4.4287183473 2.4573436279 7.2647761531 7.0735334391 1.8735804596 6.8113336814 2.1933215766 3.3440045247 6.7059889584 8.3641014112 -0.1203493277 2.4624420301 4.3637597724 2.3495136817 1.6438372535 1.7059540906 3.4980828609
4.1120504456 4.7417112970 5.0054877556 2.6199735865 7.6593309514 5.2616173385 2.0018098325 2.6848540609 1.6970565874 6.3110179461 1.2500917567 0.4421093649 6.9898402232 5.5668811246 2.8039314135 1.5239644702 5.7817308263 2.6337882785 3.3572889756 1.8216168195 4.4968598849 7.6065219571 2.5064442005 3.0185007649 5.7676045903 7.1216024167 0.1823235809 2.1990521039 6.5548036870 3.7952344990 2.5436637804 3.2350977697 0.0406799587 6.9655129614 1.2887246230 2.2965861799 5.6712354158 6.1214980026 4.0707812524 4.3754892472 7.4755392697 0.8744742088 0.2128187891 2.5428502138 2.1152150934 4.8509783771 1.7892473224 4.8790454780 8.8259133233 5.5608045315 3.2773854872 1.4117294412 6.7265777383 1.3951094158 2.4427035181 0.6387944151 5.1087948880 6.6364632038 3.7057001723 2.6765242796 6.6353606801 6.2437352727 1.1157381574 7.6389935484 2.4099291506 4.5965934238 6.5660761261 8.3425278075 -0.2297311047 2.3120282313 4.4639720386 2.4530291728 3.2164451673 1.9661046375 2.9500194033
3.8666410195 5.5895873044 4.4538229887 2.6910348593 8.0240567088 5.7465275155 1.9445006578 3.0434930383 2.1228082585 6.6547875658 1.2327702286 0.5042166935 7.4078945385 5.6321580710 3.1569422373 1.3888999593 6.2507592564 3.0980325276 3.5503221483 2.1443258743 4.8253741082 8.0990030662 2.3660792638 3.0917472577 5.9556663189 6.9278379490 0.3422999030 2.2002645181 6.9192246097 4.2361820293 2.8736286947 3.1464655248 0.2416292414 7.1416138136 1.3682799369 2.3483932409 6.0951858414 6.4288986491 4.3140001997 4.3684305704 7.0302102447 0.5221751535 0.1464326504 2.4821877588 2.2046434927 5.0776174554 2.0438921329 4.9864459750 9.2169804695 6.1370361554 3.5597894768 1.6337031035 7.2173263209 1.9029984123 2.8275430002 0.8375419368 5.3444871455 7.3451719174 3.7328493392 3.0257668312 6.5822136675 6.0037157147 1.4486522668 8.2205435737 1.8218086417 4.5492059082 6.6260031801 8.3127082652 0.4700802630 1.9777247327 4.8579116768 2.7464491239 3.2376587374 2.1717041499 3.2912547762
4.3411814423 4.8721357099 2.9526429699 2.8682942375 7.9724194685 5.4184240276 1.7404671913 3.5094888260 2.4606808654 6.7420075979 1.0553465669 0.0734701553 7.6245901827 5.7477686934 2.9179678137 1.2320758879 6.7650608233 2.7574643391 3.5920337583 2.3090296029 5.0865780720 8.3794934729 2.4394839377 2.6281565548 5.9165911828 6.6442628836 0.3322186342 2.1262779658 6.9648625619 4.0260348286 3.1881278612 2.7307009726 1.1986964267 7.4885832998 2.1717696106 1.3917066330 6.5143751532 6.3437048116 4.2961344802 4.3597336648 6.4894984077 0.1020458070 0.3864573149 2.1919788141 2.4374829002 5.1423407215 2.4411515908 5.1447752050 9.2262694456 6.8934442718 2.8506375593 1.6659810846 7.7257394173 1.6547960286 3.1702435192 0.8110877457 4.8678848659 8.1710625182 3.9379452426 3.0481252689 6.1901414007 5.7011409650 1.5808626561 7.9026659912 1.4816911530 3.8048525421 6.2224780187 8.1520765533 0.7071895399 1.5620767392 5.3249345850 2.2257385811 3.2591370198 3.1830473449 3.8114996695
4.0977713781 4.3320394848 5.2572379974 2.4372294478 8.0515425577 5.3016432864 1.6745653731 3.2772563117 1.8856654242 5.7813820683 1.5243540701 -0.4139756153 6.6217594434 6.2640789859 2.5066641633 1.8192561765 6.3341060135 2.6049760149 2.3809808082 1.5998391663 4.3931974518 6.5605764383 3.2304606291 2.3311551158 5.8648434524 8.0263476121 0.0222818326 2.7246798810 6.7171273553 3.8394967494 1.9137479570 3.1635526998 -0.1670000270 5.8339417536 2.2460000675 1.4167299276 5.7020814418 6.5830891170 4.3084912992 4.4546174783 8.4435837912 0.5261759249 -0.1051806965 3.0902034636 1.9648878016 3.8853085260 1.4911000993 4.7097142822 8.5051294833 6.4263238572 3.1307201389 1.9199484781 7.5043827203 1.6431048741 1.5145790382 0.2912761422 4.7712326202 5.8235508158 4.6255907594 1.9546282334 6.7847484803 7.5682829973 1.2550347505 6.3695165489 2.8661566398 3.8701633184 6.6323727778 9.1916608596 -0.6603397576 2.5382763410 5.0619579411 1.9653777319 2.1790390280 1.8892624956 2.8653238365
3.9075285737 5.5512741198 4.5274956636 2.6923805298 7.9798982677 5.6890564274 1.9580841878 3.0061957930 2.0921386613 6.6213865465 1.2585597377 0.4967261260 7.3621597693 5.6099405122 3.1294276730 1.4136411193 6.1805764377 3.0788164920 3.5247618805 2.1102302989 4.7743595773 8.0053281401 2.3689108008 3.0814831831 5.9469270697 6.9210885060 0.3032712846 2.1702549498 6.8471059698 4.2181557911 2.9341223947 3.1300927381 0.1498121396 7.0827983193 1.3496994918 2.3277439574 6.0067559987 6.3878929698 4.2529216399 4.3584751185 7.0348968090 0.5649979709 0.1576367288 2.4841885192 2.2669789875 5.0830483605 1.9960763436 4.9984992498 9.2022618308 6.0456142298 3.5615405274 1.6486730621 7.1191997784 1.8345257921 2.8175715322 0.8593310925 5.3342720507 7.2556401825 3.6830955858 2.9661209393 6.5497419087 6.0358047396 1.4160166273 8.1524890101 1.8138870183 4.5175668618 6.6035387184 8.2643103171 0.4103944921 1.9738925362 4.7725034005 2.7197888161 3.2755460066 2.1272802618 3.2371897815
5.6914909820 2.4439743024 2.5284584600 2.7889102560 4.7978445595 5.0276249164 2.3514801806 1.4920561844 2.9138488047 7.6984873895 1.3091839016 -0.1113939142 7.9835885269 4.6649146045 2.7782929920 1.0953908516 4.3207659236 2.2221314455 4.0342678823 1.7024723828 5.0850001021 9.2537180772 1.4666084967 2.7625078778 5.9800337772 4.7905033250 0.2521340095 1.2807923323 4.8490042174 3.6998248613 3.9436595641 1.6919707596 1.4108547590 8.9703848336 1.6788974088 1.2770412490 6.3236331859 4.4107045757 3.9787356366 4.5136324882 4.8656565122 0.7130318576 0.4376078807 1.2841849200 3.1992484644 5.5193587168 1.7442206508 4.6219790903 9.8538804957 4.1197872948 1.9907517826 1.6625180159 5.4607059078 1.2603908694 3.1055512913 0.6663478436 4.3866113044 8.4885717486 2.5762987585 3.5730472268 6.8126302046 3.8765786166 1.2539457536 8.4563623507 0.2854084640 3.3948013457 6.8849793752 6.0576203967 0.7531363317 1.9422487151 3.0921041343 1.7122295349 3.3650618053 3.0239770173 4.4270227426
4.8378498013 4.5396788910 5.3328939948 2.9027478852 7.8424343434 5.7681312736 1.4797230455 3.3588219154 1.9721218545 5.8413020164 1.2411269318 -0.3780943072 7.1369243439 6.2045302603 3.3810607421 2.0311483223 6.0942033892 3.0903024044 2.5258488509 1.6884266666 4.6453181225 6.4714286642 3.2898059365 2.3717282186 6.1351519877 7.3883008292 0.5850664812 2.6335055705 6.4924845230 4.5067094634 2.2789802485 2.8041112295 0.2952765016 5.9732396226 2.5148591129 1.1209655801 6.2448607883 6.2268290950 5.0035661171 4.6669508470 7.8806434967 0.9806307976 -0.4827337578 3.4287175496 2.0948140651 3.9972844180 1.2096349926 4.5591378339 9.0261604139 5.8441234169 3.5105789102 2.2468631956 7.3330811288 2.2236894871 1.7901059950 0.3218868381 5.0612207010 5.7907737741 4.7631778060 2.4118251774 6.8329047681 7.4927796678 1.9187629199 6.1334360529 2.7368369166 3.7446970757 6.6410749919 8.5010209093 -0.3546335294 2.7135859688 4.8341842438 2.5066402868 1.9751045886 2.1257240188 3.1971101398
4.4852697628 4.4023517010 4.5965371142 2.9514666248 6.9095561209 6.0158055020 1.2731849014 2.5245431480 2.0618112892 5.7993365397 1.3879964185 -1.0257699553 7.7077215145 5.8704560859 3.0907418452 1.8652715764 5.6190989971 3.2226459486 2.5194436102 1.1868653877 4.6899932268 7.0338800748 2.7230981797 1.9275577977 6.2881466237 7.1757510567 0.4450267796 2.8113676191 5.7229872863 4.4202170996 2.3108870170 2.3492017489 0.5016858948 5.9488845638 2.6790915021 0.8353258779 6.6294420064 6.1297320632 4.5850209139 4.8587598226 6.7068633964 0.9050334204 -0.4542147937 2.8536160406 1.3000615949 3.9162325485 1.3374800525 3.9555983796 9.4015320705 5.5462181255 3.7894658582 2.0340060774 6.8863218735 2.3285782006 2.4474570807 -0.2324349537 5.2436715692 7.0017682811 4.0237512248 2.7521088359 7.1627385069 7.0788300507 1.7386345758 7.0949173949 1.5420511865 3.0672830691 6.1558823464 8.6118255751 -0.1649347136 1.9814686278 4.2407669128 2.4612114879 1.4550862706 1.5023463855 3.6452307450
4.9202544990 4.4561526323 5.2872174307 2.9497950563 7.5935102771 5.8255715327 1.4665207812 3.2158167273 2.0213064879 5.8538901882 1.1062867904 -0.3237169812 7.2918908936 5.9685619888 3.3285360661 2.0150547895 5.9037004763 3.2232235028 2.5513975868 1.6221509020 4.6684133029 6.6077606917 3.3960622872 2.2514247156 6.1729199951 7.2968152602 0.6645346491 2.7382058702 6.3019662120 4.5175468989 2.4497099511 2.6898796911 0.4178609702 5.9356853695 2.6139909969 1.0874917556 6.4542113638 6.0480314087 5.2269427787 4.7154276632 7.5257145281 1.0490446842 -0.4218939225 3.2850106264 2.0556707276 4.0441341229 1.2086093419 4.4080927045 9.1486534775 5.6994039404 3.5307009268 2.2098758958 7.1206450248 2.2709284212 1.8659853333 0.3092369757 5.0538505475 6.0179416859 4.7870096201 2.4715916339 6.9953629137 7.2579145652 2.0316420842 6.2936782017 2.6576361105 3.6381573510 6.6778073938 8.3482832760 -0.4329313254 2.6347335522 4.6394400145 2.4961818799 1.9404781366 2.0416556340 3.3768601659
4.8761732649 3.9759595252 2.6533978793 2.7784205224 6.9582972994 4.8607792227 1.9697522741 2.5735223425 2.6691919328 6.8448619728 1.2393194863 -0.1759331040 7.9228145151 5.3104945778 2.8607893372 1.2911185264 5.7561835797 2.1766075091 3.6290216948 2.1325937492 5.1584421454 8.4155379085 2.0360745390 2.6682381503 6.0224551501 6.0740075494 0.2497042602 1.6516890736 6.1787580436 3.5988512839 3.4013058349 2.1160560994 1.4450661127 8.0828773143 1.9004559908 1.1515609942 6.4672676230 5.4342598355 4.1277811644 4.5087553454 5.9764388954 0.3065116352 0.3216549314 1.5176410372 3.1280638076 5.2018740444 2.2772667554 5.0900006786 9.3012115287 6.1626213865 1.9925016145 1.8538135201 6.7437357394 1.1299454748 3.1677042316 0.8754431762 4.3859447885 7.9447440375 3.4818231973 2.9597909280 6.6286698224 5.2950164008 1.4081310063 7.4340882587 1.0282253861 3.3387780305 6.3110940958 7.5795913519 0.3940199629 1.7504061525 4.3108949795 1.8689565333 2.8624834989 3.1964569390 4.2757890835
4.1169643683 4.3322010569 5.2556527700 2.4423572566 8.0585715405 5.3056107602 1.6651224207 3.2929158787 1.8832595510 5.7807766437 1.5206024326 -0.4122218073 6.6280146702 6.2803352650 2.5341560040 1.8269299556 6.3383687528 2.6108425277 2.3799928620 1.5958882378 4.4028645836 6.5518772770 3.2346909830 2.3303030088 5.8791661071 8.0141972841 0.0272065488 2.7313723543 6.6958813250 3.8501517770 1.9109736078 3.1532487307 -0.1602932294 5.8416839031 2.2450734417 1.3972666814 5.7271905628 6.5874990159 4.3177294464 4.4633966722 8.4447041148 0.5334065831 -0.1166606488 3.1058632557 1.9598380941 3.8894248054 1.4820566768 4.7174511488 8.5075437175 6.4202136359 3.1314053335 1.9351915404 7.5055345647 1.6501549083 1.5054219207 0.2926104681 4.7898872542 5.8191962248 4.6421419370 1.9383879383 6.7897545145 7.5684207221 1.2549986493 6.3655477570 2.8608178997 3.8631180835 6.6437574212 9.1757071457 -0.6460018056 2.5412211237 5.0710330774 1.9795589724 2.1700140557 1.8959824785 2.8552093458
4.8762269452 3.5642745837 2.6701048553 2.8298200887 6.4804275913 4.6995511113 1.9230630589 2.2344092292 2.7526116640 6.8086848848 1.4982571853 -0.3118918960 7.7205632436 5.1559087898 2.7155190815 1.2183222365 5.4177736076 1.9886811577 3.5894620367 1.8898490403 5.0768287609 8.2930506929 1.8346470980 2.4346732838 5.9081612094 6.0112982323 0.1024386224 1.6361297667 5.8257714588 3.4464099200 3.3932483385 1.9982012373 1.3384531956 8.2549553012 1.5819980991 0.9170295547 6.3253594614 5.3213210474 3.9943081935 4.4212970348 5.9108859617 0.1983962418 0.3209605111 1.4352133849 3.0700866417 5.0880125419 2.2912450942 4.8271402330 9.1291605365 5.8023632923 1.5853525959 1.8979837019 6.4141113469 1.0354871731 3.0692527771 0.6073874843 4.4201504955 7.8010522565 3.2178464046 3.0488649761 6.4727949836 5.0430717779 1.1552488005 7.4455039343 0.7535085218 3.2514974530 6.4740975151 7.4139595218 0.2177203984 1.6972687865 3.9553018955 1.8974354491 2.9580696934 3.1054392585 4.3753071627
4.0244245390 4.3300538033 5.2587148113 2.4257694709 8.0170581708 5.2698337729 1.7200000806 3.2224632913 1.8797093057 5.7877940229 1.5398955665 -0.4134071407 6.6015039075 6.1919773627 2.4076068450 1.8055687722 6.2994634768 2.5983701776 2.3712181159 1.6097911346 4.3624708926 6.5716793584 3.2179406292 2.3410398570 5.8098691876 8.0517418078 0.0057413836 2.6896355792 6.8015659215 3.8022210616 1.9338450178 3.1743623449 -0.1742554142 5.8076331682 2.2161622423 1.4878321291 5.6168718305 6.5657187118 4.2542284003 4.4147341366 8.4335053349 0.4955655532 -0.0551819611 3.0168629666 1.9867904433 3.8670149078 1.5186504930 4.6729216073 8.4860422773 6.4387064226 3.1050856663 1.8372069149 7.5017239513 1.5991049848 1.5872175663 0.3066837978 4.6971229162 5.8367865823 4.5544870742 2.0377270217 6.7413253571 7.5831998363 1.2253720950 6.3987596468 2.8873656413 3.8627047820 6.5840340558 9.2433515947 -0.7149459091 2.5063470653 5.0219631640 1.9109080915 2.2355804892 1.8262573461 2.9008817006
3.8974220826 4.3241070516 5.2691160279 2.4430514564 7.9412626935 5.1833492614 1.8543468191 3.1237228492 1.8130929980 5.8120269268 1.6091687676 -0.3606899961 6.6106199176 6.0572276651 2.2765416746 1.8003070196 6.2559902134 2.5710947570 2.4162997440 1.5903873313 4.3730275681 6.5670876841 3.1093699546 2.3875222984 5.7224630601 7.9904664279 -0.0933556014 2.6238741260 6.8715280140 3.7085321821 1.9603636153 3.1456675644 -0.0820996260 5.8195836236 2.0067818896 1.5815648154 5.5443815751 6.5762476143 4.1101960658 4.2784535489 8.4241589718 0.4554232783 -0.0101567125 2.8151188504 2.0429928151 3.9636076043 1.5539740205 4.6505615979 8.3964829350 6.3671217488 2.9930143130 1.6039997036 7.3873722131 1.4924617767 1.7629512448 0.2267546946 4.6954743542 5.7391123546 4.4706239697 2.2141618478 6.5745726708 7.6339438874 1.1239812345 6.5239895953 2.8308381671 3.9189036767 6.4458256010 9.1813081943 -0.7707406483 2.3981620989 4.9973199991 1.8855297122 2.4054205962 1.6537881763 2.7366850376
4.4702314484 4.3960501058 5.3036051503 2.6744959780 8.1064667674 5.4229397585 1.5207520216 3.4964652846 1.8217073666 5.7885768726 1.3713588829 -0.3777383862 6.8296756122 6.4189007309 3.0113197804 1.9904717144 6.2729393419 2.9102060971 2.3735949273 1.6038993918 4.5175228584 6.4197406998 3.3981343426 2.1925109205 6.0216061183 7.8570463893 0.2562010829 2.6951505390 6.5525143567 4.2921531904 1.9710844716 2.8770502331 0.1582822001 5.9645213411 2.1898000181 1.3183538044 5.8914730778 6.4715953208 4.7281430855 4.5072986792 8.1689789060 0.5628621312 -0.2641142473 3.2585453650 2.0368499389 3.8945278321 1.3039861222 4.7690810463 8.6873508073 6.2813383695 3.1100370623 1.9697833836 7.4371250968 1.9368430812 1.6266234161 0.3162477643 5.1492682685 5.5901204040 4.7820437084 2.1295475310 6.8120319837 7.4428650032 1.4868528276 6.2040736116 2.8071787901 3.6660716533 6.7116384756 8.9953701532 -0.5051150905 2.6003818469 5.0106574526 2.1751942753 2.1435284058 1.8619531879 2.9693103824
4.1534483466 4.7110886924 5.0505213415 2.6017664823 7.6304771380 5.2522553436 1.9706994613 2.6642614990 1.7057838328 6.2851093007 1.3055331860 0.4683388901 6.9451468500 5.6068410034 2.7751883728 1.5468511340 5.8393555393 2.5656521769 3.2768562213 1.7413827816 4.4606050426 7.5344223462 2.5796945711 3.0691696833 5.7502018079 7.1645425189 0.1362996134 2.2525936294 6.5784686719 3.6980550403 2.4541922876 3.1784324559 -0.1140886037 6.9537651209 1.3368685971 2.2808029948 5.5517206903 6.0733544338 4.0332524611 4.4010834238 7.6080785802 0.7897364943 0.2025030413 2.5827936151 1.9871588712 4.7793574036 1.7971046941 4.9261785227 8.7968731643 5.5392793920 3.2920317095 1.4948345332 6.7813419798 1.2986485460 2.4392144829 0.5941425763 5.0496319792 6.6419035451 3.7213763149 2.5924046934 6.6694378719 6.4018575909 1.0957380777 7.5870243132 2.4652830310 4.5753745795 6.6057681728 8.3944828914 -0.2832467221 2.3700610229 4.5171609862 2.3455379473 3.0936194033 1.9331322496 2.9554494601
4.5324757136 4.4264672989 5.3231873821 2.7296808562 8.0950764148 5.4855845340 1.4937413115 3.4980218010 1.8390972520 5.7876103099 1.3546190989 -0.3878454346 6.8794112854 6.4129660776 3.0849041934 2.0144426475 6.2479373523 2.9531493651 2.4068960841 1.6019536160 4.5582945911 6.4317519868 3.4011292705 2.2291065763 6.0339113650 7.8117377585 0.3212816762 2.6607188440 6.5297877825 4.3430148964 2.0094014240 2.8302439312 0.1507465635 5.9626170777 2.2127178001 1.2947024277 5.8924554296 6.4374170723 4.8331210945 4.5063774855 8.1117129554 0.5897374248 -0.2944751805 3.2951821497 2.0534066087 3.9157258751 1.2939549843 4.7649563780 8.7168417973 6.2267700570 3.1808281509 2.0064786120 7.4526321642 1.9848632786 1.6451625972 0.3459704805 5.1752623983 5.5637482422 4.7739664900 2.1906845837 6.8084627131 7.4545401271 1.5431000014 6.1495725221 2.8057296001 3.6615340413 6.7069497869 8.9330062208 -0.4818477769 2.6533120525 5.0213948632 2.2490919930 2.1140527300 1.9052653155 3.0067189389
4.0726049036 4.7793928120 4.9694924279 2.6347391692 7.6794768739 5.2826312602 2.0133589568 2.7107450888 1.7109433588 6.3396486035 1.2278467565 0.4229722305 7.0310467911 5.5428055772 2.8252632555 1.4795342713 5.7662103565 2.6763895306 3.3941677799 1.8812551079 4.5134819764 7.6372850898 2.4508063716 2.9873005776 5.7489458545 7.0981126357 0.2341161457 2.1748713405 6.5456693752 3.8786698249 2.6373654341 3.2703509525 0.0966427106 6.9432825626 1.2424180176 2.2896194729 5.7492090909 6.1669718793 4.0948965562 4.3737124843 7.3677242216 0.8871429183 0.2204048764 2.5284044482 2.2177660189 4.8661411891 1.7810531077 4.8449487307 8.8336146854 5.5858645345 3.2800561897 1.3956836152 6.6983833745 1.4574507202 2.4878161524 0.7186524008 5.1378790946 6.6428846657 3.7224298308 2.7296133246 6.6003756116 6.1329877455 1.1377104486 7.6579089030 2.3321514237 4.5903718024 6.5547093995 8.3462974985 -0.2096018623 2.2717495996 4.4614652094 2.5226395826 3.3251492387 1.9524586050 2.9840203452
4.0421214272 4.3308445054 5.2588204925 2.4273338451 8.0264904055 5.2798571846 1.7073915565 3.2351949247 1.8834303305 5.7856708290 1.5354886485 -0.4147662475 6.6055916258 6.2108661652 2.4304565766 1.8062238537 6.3098691628 2.5983821086 2.3750596553 1.6085613262 4.3671573265 6.5718050238 3.2212748274 2.3369474138 5.8223115222 8.0494795208 0.0103483334 2.6992911689 6.7814620997 3.8111185333 1.9278626643 3.1756727364 -0.1756624035 5.8134507177 2.2293433356 1.4719929020 5.6352776340 6.5688441900 4.2693921767 4.4262033039 8.4362269965 0.5028683071 -0.0680690059 3.0368016220 1.9811757219 3.8696232933 1.5131682862 4.6820638980 8.4928324498 6.4379915146 3.1143869536 1.8609234729 7.5033666101 1.6117771934 1.5646284977 0.3011743695 4.7143541802 5.8348984296 4.5716556741 2.0151090846 6.7558024534 7.5768473554 1.2375838274 6.3892633793 2.8828757874 3.8684477685 6.5968059849 9.2342757785 -0.7024899404 2.5172136854 5.0314290909 1.9232834319 2.2191683879 1.8458413638 2.8974102882
3.8460952912 5.6015841805 4.4071945696 2.6888668510 8.0425621982 5.7763815112 1.9381446763 3.0636760253 2.1375434098 6.6736650920 1.2172515621 0.5071329100 7.4330043764 5.6444839528 3.1686347809 1.3710203879 6.2978862533 3.0976490559 3.5608075573 2.1648055848 4.8491109347 8.1488586896 2.3587686351 3.0966615660 5.9539383003 6.9298507416 0.3733419391 2.2143141763 6.9578017655 4.2510607218 2.8393737875 3.1455663630 0.2971902417 7.1740970017 1.3789135817 2.3469496762 6.1508689092 6.4574170903 4.3515215405 4.3880205621 7.0267481733 0.5019286158 0.1340296708 2.4832050140 2.1723141760 5.0754755567 2.0728863459 4.9825614239 9.2191205145 6.1854926349 3.5580560331 1.6223337860 7.2729101689 1.9340080544 2.8352872750 0.8513921519 5.3492309153 7.4002208930 3.7687377319 3.0624064997 6.5950172417 5.9881314018 1.4611726407 8.2535823281 1.8350772548 4.5674057229 6.6334671403 8.3337652248 0.4981936576 1.9818387875 4.9117092316 2.7657031689 3.2119085247 2.2059519825 3.3202720834
4.4600940720 4.3916054937 5.2999895445 2.6656192812 8.1074642901 5.4133583090 1.5257302249 3.4956182514 1.8196241756 5.7887450945 1.3747271998 -0.3763120516 6.8212681142 6.4191079348 2.9995140752 1.9855350762 6.2766794059 2.9027228442 2.3684745001 1.6036160614 4.5094763046 6.4164542701 3.3972757576 2.1888955676 6.0169897412 7.8627311737 0.2460808804 2.7004097508 6.5556933941 4.2818693460 1.9654702343 2.8851156632 0.1574286338 5.9648975106 2.1882820041 1.3217614152 5.8933086344 6.4758035700 4.7064263622 4.5097464231 8.1793744340 0.5598358000 -0.2603674779 3.2531781574 2.0334118208 3.8905326961 1.3063780462 4.7686712122 8.6833184708 6.2893032294 3.1004225513 1.9654291591 7.4366614980 1.9272902278 1.6238136894 0.3143701158 5.1419999174 5.5984850047 4.7795754559 2.1192534031 6.8138292241 7.4425570999 1.4801168899 6.2133692082 2.8076209709 3.6672768111 6.7131072167 9.0058242897 -0.5091967832 2.5923011543 5.0082345778 2.1638450936 2.1483526836 1.8553285784 2.9671050454
4.8859644543 3.4757453759 2.6798669350 2.8124439180 6.3545233567 4.6755671655 1.9206184944 2.1616785399 2.7738990183 6.8123009634 1.5493441473 -0.3395692814 7.6548442708 5.1216591373 2.6722781869 1.2035655717 5.3545483587 1.9851938398 3.5592987390 1.8500459835 5.0830924843 8.2878872153 1.7877390923 2.4096529306 5.9171808518 5.9803357132 0.0482029622 1.6121466818 5.7777735900 3.4075788075 3.3982115568 1.9672599721 1.3240901990 8.3142538205 1.5373717719 0.8789707015 6.2947139372 5.2818251015 3.9038017092 4.4126935755 5.8856027945 0.1803362672 0.3157637165 1.3871807343 3.0225885932 5.0888464147 2.2746051355 4.7470867620 9.1045811511 5.7028871223 1.5366437508 1.9005440327 6.3535601865 0.9935545625 3.0965766419 0.5867721648 4.3979993395 7.7439192430 3.1205295491 3.0452511351 6.3832933668 4.9979504436 1.1177577221 7.4924193111 0.7001809617 3.1769756310 6.4795887700 7.3824584826 0.2396489927 1.6568875376 3.8805748406 1.8541048089 2.9330501293 3.0923003337 4.3526778093
3.9800856450 5.0986913982 3.4270948239 2.8381289879 8.0890085698 5.7261857205 1.8041585461 3.5315139887 2.3059281374 6.8133461985 1.0515390311 0.1749936148 7.6543413996 5.7682552600 3.0282720218 1.1299584659 6.8571505545 2.9453040783 3.6022861087 2.4019157584 5.1323575855 8.3364433764 2.4501084167 2.8995659603 5.9842417647 6.8194563270 0.4892459855 1.8749098839 7.2341006510 4.2777688037 2.9164976179 2.9492819688 0.9684624006 7.2380599029 1.9802338754 1.9093511347 6.6130271884 6.6727333409 4.4567919633 4.3927906201 6.6221666690 0.3432170277 0.3146570291 2.3293546658 2.4071675624 5.1308056935 2.3233725677 5.3012476387 9.1528863356 6.7484539760 3.3926682121 1.4753441075 7.8313297559 1.8232663764 3.1347007328 0.9153852209 5.2125571024 8.1658099577 4.0092413590 3.1669178193 6.3629699428 5.9171034543 1.7260382701 8.2365688891 1.6474873393 4.2621225555 6.4349799012 8.2954682720 0.7937837857 1.6821037130 5.4580047309 2.4069215602 3.1055365157 3.0295931950 3.7622553511
3.8717986842 4.3801629729 5.2900827152 2.5424261315 7.7929422621 5.1442611292 1.9829730172 2.9787939857 1.7406785775 5.9645485519 1.6491615125 -0.0157035959 6.7258668183 5.9805081582 2.3403713905 1.6431800568 6.1675548931 2.3333121599 2.8046541164 1.3642553032 4.3061258686 6.7080914966 2.8374562550 2.6164289890 5.6667951879 7.8242377691 -0.2117146990 2.5095301447 6.6149849035 3.5234155978 1.9658632251 2.9768462957 -0.3370366148 6.0909775372 1.6047840809 1.8573946913 5.6226439386 6.3479393904 3.9019533863 4.2619380602 8.2369294599 0.3997401567 0.0193399431 2.6830260892 2.0028078469 4.2637323225 1.6772544760 4.8154737058 8.4332427926 6.0656535350 3.0464958925 1.4253918975 7.1646873829 1.1322341113 2.0224390316 0.1878254663 4.9733976163 5.7823901343 4.0414123315 2.3225117896 6.2783674005 7.2377256088 1.0535758468 6.8327988168 2.5269173873 4.1113888501 6.3013734415 9.0727127349 -0.8154097250 2.4664027318 4.8650875733 1.9663097517 2.6932555693 1.4742208010 2.6884509659
4.8915276626 4.5115180888 5.3145329206 2.9279175825 7.7108752500 5.8005596604 1.4780291459 3.2877847296 2.0026202810 5.8570128070 1.1620065593 -0.3445994706 7.2194117072 6.0891364558 3.3674122325 2.0444903237 5.9887950052 3.1748216649 2.5272618673 1.6838636844 4.6715199638 6.5368909053 3.3460314741 2.3164140137 6.1607361812 7.3329173376 0.6367364225 2.6719667105 6.4344144242 4.4995548557 2.3800794339 2.7406656704 0.3443782637 5.9434083563 2.5558494377 1.0767951731 6.3464058640 6.1357422937 5.1222280706 4.7117120241 7.7129739409 1.0419082861 -0.4656125206 3.3690277299 2.0989101100 3.9792907563 1.1991508656 4.4729827202 9.0792300334 5.7544718919 3.5209589005 2.2478332850 7.2345183704 2.2610102062 1.8497909147 0.3277201419 5.0248044231 5.8968379735 4.7778489254 2.4545320440 6.8882647179 7.3776701211 1.9896359617 6.2125184422 2.7262295942 3.6906701726 6.6475536267 8.4197926943 -0.3999740180 2.6546219838 4.7491354253 2.5111098733 1.9633527535 2.0979712915 3.2777407383
4.2496291938 4.3477028615 4.5112809183 3.0097423590 6.9673366300 5.8262295193 1.0317365493 2.3936755106 1.8849112809 6.1379553392 1.1708855166 -1.1826682908 7.9527135437 5.5343347162 2.8433039161 1.3908171086 5.6006958573 3.3632922858 2.8815402190 1.3709748615 4.4298794907 7.5053706224 2.5403207192 1.3626912654 6.4303052036 6.7635251408 0.3698165855 2.3600853973 5.6395123645 4.6455640677 2.3667218137 2.0728363540 0.4964021112 7.2544349126 2.3714526466 -0.1853040056 6.5841439330 5.8539764684 4.2069282853 5.0637579415 6.4398338958 1.0295792721 -0.8571516883 2.5170102503 2.2444265415 4.1904542039 2.1548827903 4.0131268634 9.6695739001 5.6847568465 3.4420346052 1.9559870816 6.5694431475 2.2750836312 3.3258138582 0.0318366589 5.0356935536 7.6952909377 4.0176542074 1.8018328113 7.6235830556 6.7057772224 1.3800400916 6.1902558269 1.8232523707 1.9329820620 6.5632432084 8.2151279887 -0.1637301391 1.2099525908 4.1482344697 2.9770387172 1.8520866725 1.1458102303 3.2498487048
4.1303953012 4.6283767593 5.1425348475 2.5785711696 7.6139660921 5.2376191744 1.9079501751 2.7021117020 1.7195947388 6.2438849509 1.4151894128 0.4636118543 6.8756212631 5.6885605161 2.6920879182 1.5540047191 5.9087784926 2.4557230650 3.1644635948 1.6379613904 4.4080897966 7.3743827608 2.6301394523 2.9782851898 5.7181638733 7.3579312793 0.0123773079 2.3397805226 6.6829800453 3.5822205462 2.2192676985 3.2606353683 -0.2172016000 6.8194541568 1.3833030452 2.2627166877 5.4542233259 6.0637103579 4.0019744420 4.3434473924 7.8210267757 0.5799057738 0.1342687239 2.6873811908 1.8815977633 4.5920406435 1.7301178922 4.9683113013 8.7054215658 5.6152245684 3.2578821760 1.5848953722 6.8148969922 1.2444925338 2.4131832617 0.3668295900 5.0192543985 6.5492841046 3.9039887086 2.4414751564 6.6552589494 6.6060020807 1.0573517711 7.4316577075 2.4516931372 4.5566858612 6.6016789808 8.5495583546 -0.4777099418 2.4357328538 4.6911502058 2.0837522818 3.0077610701 1.6694835752 2.8407038806