-28926.4887006633
-28925.3077331954
-28926.8519200698
-28926.5170370873
-28926.9414318711
-28926.6815132195
-28926.1998155084
-28926.8001837725
-28924.8345891063
-28925.9954156706
-28926.4590127866
-28926.1089069474
-28926.6759338002
-28926.2247941854
-28926.2550224799
-28926.06800717
-28925.901492634
-28925.926332261
-28926.3158241091
-28925.9468893625
-28926.2895033673
-28926.1180453418
-28926.9279441475
-28925.9634621752
-28926.0289387177
-28926.4130552318
-28925.5931637308
-28926.427085006
-28926.5558659434
-28926.0739203367
-28926.9046865896
-28926.3600356463
-28927.0256170468
-28927.0369145273
-28926.1590638968
-28925.9543011954
-28926.317362912
-28925.4925876504
-28926.4228701008
-28926.6842553093
-28926.7956151195
-28926.8580445328
-28926.2999128047
-28926.3650577767
-28925.9534962831
-28926.5392381637
-28926.7095873259
-28926.7959363497
-28925.5164769202
-28926.2158317125
-28926.7425291382
-28926.1955863173
-28926.4769358275
-28926.1937602983
-28926.9092517051
-28925.1976523195
-28926.1636260191
-28926.2101354204
-28926.2041596675
-28925.9737356919
-28926.5244346343
-28926.6979335125
-28926.4286106114
-28926.7659925501
-28926.3407823776
-28926.4893907436
-28926.5909154124
-28927.0969415849
-28926.1551885896
-28926.540928398
-28926.1236682993
-28926.3679263993
-28925.6446232885
-28925.8651230055
-28926.3556702623
-28925.1885653546
-28926.4563255278
-28926.1844785
-28926.2137282736
-28926.6023198336
-28926.6375721633
-28926.6339458401
-28925.3161291275
-28924.9656355263
-28926.7839512379
-28926.1365719309
-28925.4583315289
-28926.5030264972
-28927.1968874499
-28926.0069590058
-28926.5670881845
-28925.2565714661
-28927.1599111439
-28924.9308358577
-28926.3533232816
-28926.6826676619
-28926.0971607514
-28925.5531012472
-28927.0874482182
-28925.496262818
-28927.1924092748
-28925.5748261247
-28926.1857879111
-28926.1261112
-28926.4721732935
-28926.8105262699
-28925.2784820612
-28925.697424911
-28926.2970737064
-28926.4388475288
-28927.194858162
-28925.377953496
-28925.7951348178
-28926.9409885979
-28926.2371408003
-28926.7385381826
-28927.1576866144
-28925.571682123
-28927.0060154726
-28926.916778506
-28926.776635325
-28926.7173118175
-28926.5248704243
-28926.2280249913
-28926.6857666287
-28926.7046677823
-28926.0289402144
-28926.3256566655
-28927.0105408594
-28926.6238672929
-28925.2672990045
-28926.1541546936
-28926.543963282
-28926.1308272025
-28925.9427375877
-28926.6300784241
-28926.0444479741
-28926.253869262
-28926.7377192565
-28925.2747523347
-28926.2644248245
-28926.5046701999
-28927.4831365034
-28926.7657232936
-28926.6421951029
-28925.3436119308
-28926.604252249
-28927.1864246782
-28926.102793505
-28926.0938672233
-28926.9882000526
-28926.1539508804
-28925.2972746414
-28927.0489226328
-28926.0373079827
-28926.2426696064
-28926.5680282013
-28925.9840441751
-28926.5725537242
-28926.230388843
-28926.8846752121
-28926.7849323438
-28926.5866418667
-28927.0461608148
-28926.1113401881
-28926.7126612583
-28926.5325614459
-28926.1991942728
-28927.1400433063
-28925.9143495981
-28926.1773546994
-28925.953019812
-28926.3528918453
-28926.2761089786
-28926.2781837095
-28926.7731284597
-28926.578481313
-28926.3720217105
-28926.113032055
-28926.8546797109
-28926.5813446294
-28926.2758761853
-28926.361726969
-28926.3030467382
-28926.6574444907
-28926.7358009909
-28927.0207539668
-28926.4817409473
-28927.2374123908
-28926.9374414598
-28926.3535522653
-28925.2701789198
-28926.05946797
-28925.5399127126
-28926.1844387714
-28926.0918798409
-28926.5415443273
-28926.213336702
-28925.9241916785
-28925.8823219518
-28926.0059000753
-28926.0765292268
-28927.0303965879
-28927.0669976492
-28926.947563001
-28926.283349516
-28926.0595312364
-28925.6345126319
-28926.2721803371
-28926.2257823663
-28926.2212282714
-28926.3778684815
-28925.4782165096
-28925.4746820248
-28926.1516806358
-28925.2961808804
-28926.5458765135
-28926.4351888241
-28926.0346838543
-28927.02807056
-28926.8280171943
-28925.5373725312
-28926.4213834076
-28927.1892596948
-28925.4654478464
-28926.8917954752
-28926.6882434076
-28926.6999765422
-28926.4213560602
-28926.2296968579
-28925.7143848055
-28926.4367375592
-28927.0421657775
-28926.2876446947
-28926.3451370131
-28926.7305897415
-28926.905393677
-28926.540389885
-28926.6393094732
-28927.1774204359
-28926.2008095397
-28926.1590985913
-28925.8367449481
-28926.2021211277
-28926.0155594314
-28925.633021721
-28926.2451912841
-28926.5288323998
-28925.9771720797
-28925.2853057203
-28926.1213394142
-28925.681114688
-28925.7376473974
-28926.5960795862
-28926.0239500573
-28926.0073090801
-28926.3590186213
-28926.6514941804
-28927.2683064114
-28926.1879758413
-28926.6147725728
-28925.9834794031
-28926.097624025
-28926.6191884339
-28926.3510708605
-28926.7396919447
-28926.0638002922
-28926.5741385144
-28926.0513423828
-28926.5872418774
-28925.4255034601
-28926.0865143029
-28925.7376754251
-28925.3729632029
-28926.9344782777
-28926.5261143921
-28926.6633865015
-28926.1967370861
-28925.7084061954
-28925.8953881714
-28926.897531632
-28926.3883579204
-28926.1660764029
-28926.4479573512
-28927.0085050408
-28927.0938057466
-28925.8544907069
-28926.1069059593
-28926.4307551395
-28926.9535413389
-28926.2071115569
-28926.1920044846
-28926.9864722667
-28926.6910812814
-28926.9412019351
-28926.472449625
-28926.3298227262
-28925.6741855847
-28926.0741204763
-28926.2370246077
-28926.2246914625
-28926.1399125347
-28926.8863976918
-28926.7007619984
-28927.0025038453
-28925.5936845564
-28926.0068742424
-28926.5657337386
-28926.4217666798
-28925.8763566753
-28925.4464160782
-28926.9596474343
-28926.5590434151
-28926.3305125344
-28926.7657690087
-28926.4658846099
-28926.4589714253
-28926.2952044214
-28926.3406761171
-28926.6537157167
-28927.1860892981
-28925.1693348074
-28925.4454145637
-28926.812802365
-28926.3828219032
-28925.4594916857
-28926.4764004438
-28926.1918627134
-28926.7506126838
-28925.5819156389
-28926.959345116
-28926.0404669506
-28926.523220599
-28927.1030772045
-28925.6403170892
-28926.9764597071
-28926.3064376831
-28926.1004372725
-28927.0293005139
-28926.611925175
-28926.1917352281
-28926.3671672021
-28926.1405356751
-28926.7340436807
-28925.5770555522
-28926.1735957208
-28926.5114676002
-28926.6316249824
-28926.8651526869
-28925.8397730293
-28925.8724083055
-28926.6701656701
-28926.8328220419
-28926.9114118797
-28926.6713280037
-28926.2444161682
-28927.0446828292
-28926.3506312608
-28926.5281469454
-28925.4070680291
-28926.4609684677
-28926.9677315241
-28926.2186384293
-28927.0912550888
-28926.699389729
-28926.8291697319
-28927.2017035903
-28926.5556980493
-28926.7919014478
-28924.8957935998
-28927.3030576438
-28926.7380657933
-28926.233861422
-28926.0403250434
-28925.9573856042
-28926.1723484876
-28926.1717960968
-28926.2924208343
-28926.6069954272
-28927.104610021
-28925.0087894936
-28926.09842091
-28926.9019381052
-28926.0862590603
-28926.4406448398
-28926.2786668474
-28925.2628268158
-28925.9440999249
-28925.2617299255
-28926.1900830898
-28927.1348087912
-28926.2038859211
-28926.063893219
-28925.2696930608
-28926.1070998403
-28925.2717379952
-28925.4800705563
-28926.8285815581
-28926.4820579597
-28926.6806995995
-28926.921232327
-28926.8214051035
-28926.0874411222
-28926.0444565456
-28925.9951349853
-28926.0648691548
-28926.6710692236
-28925.0896094392
-28926.1685353584
-28926.9780002788
-28926.3014526962
-28926.6208492799
-28926.9808132541
-28926.0963518934
-28925.9055129779
-28925.9081732975
-28926.4452952629
-28926.6471954643
-28926.1479460114
-28926.1763763146
-28926.0950208493
-28925.7192665252
-28925.1806033078
-28927.0248442439
-28926.1870250761
-28926.7784318197
-28926.2835129203
-28925.9063144888
-28925.6411414577
-28926.4825574244
-28926.9707500814
-28926.0429174706
-28925.2867643858
-28926.1097175741
-28926.2784322854
-28926.6027703178
-28926.8085984804
-28925.6005327058
-28925.3953593848
-28926.0376577849
-28927.0925571529
-28925.8797427221
-28927.0673503085
-28926.5638678549
-28926.6178489542
-28926.1794593628
-28926.8779867934
-28925.7385607471
-28926.0484077726
-28925.9322141346
-28926.0358792497
-28926.2134033699
-28926.1938471026
-28926.1561460216
-28925.9999976571
-28925.046544317
-28926.4123618861
-28926.9355782973
-28926.177023537
-28926.3778763728
-28926.2526106001
-28926.3058636592
-28926.7364452201
-28926.2837239444
-28926.1790136406
-28926.2200326038
-28926.855141896
-28926.0309866454
-28925.7934271683
-28927.1612366097
-28925.2651648167
-28926.0000707196
-28925.6593432791
-28926.8889653567
-28926.9608450067
-28925.4553620882
-28926.4569700291
-28925.670246875
-28926.1051164036
-28926.6097584697
-28926.9919338607
-28925.7529152889
-28926.1030599043
-28926.1920855745
-28926.7089362939
-28926.7933662358
-28926.2449964506
-28926.2125330142
-28925.6256214528
-28926.1281713728
-28925.9332545613
-28926.3863704019
-28926.9424918901
-28925.936771903
-28926.046130181
-28926.8483020461
-28926.5452456179
-28926.5113986193
-28926.0102845073
-28925.4749975406
-28926.7703191579
-28926.3750525129
-28925.4451911584
-28926.450362156
-28926.1075504606
-28926.2062724943
-28926.1158257103
-28926.9282508196
-28925.9315039179
-28926.0901232109
-28926.7301006171
-28925.2060843067
-28925.0966959602
-28926.0916771162
-28926.3137669295
-28926.3905066662
-28925.4816750747
-28926.6303584291
-28926.2463994689
-28926.4542210004
-28926.4667692515
-28925.2357316385
-28926.0540908672
-28926.9026857376
-28926.1686744085
-28927.1202451299
-28926.3308559419
-28926.104452038
-28925.8856349361
-28925.4885437687
-28926.4118939866
-28926.0580988299
-28926.9148752068
-28926.7212970587
-28926.9068671727
-28925.9675588469
-28925.4634380146
-28926.8598803479
-28926.13948967
-28927.1480975997
-28925.4499996796
-28926.0446545084
-28926.8436822357
-28926.6417633946
-28925.1552938766
-28925.0062426455
-28926.1698820491
-28926.4551948953
-28926.8580242604
-28926.7289313446
-28927.3045877391
-28925.6349198501
-28926.9883405993
-28926.1401436953
-28924.8953771297
-28926.7510030309
-28925.2888417018
-28925.9019602614
-28926.4477368031
-28926.3592613467
-28925.4110127254
-28926.5718896307
-28926.4180091978
-28926.0603768297
-28926.2123926035
-28926.1795641266
-28927.1410610116
-28926.1392545638
-28925.7464515001
-28927.002141798
-28927.0826342547
-28925.5162761003
-28926.3017593683
-28926.3386145838
-28926.6611381621
-28926.7680083684
-28926.5194925053
-28927.2002762179
-28926.7535693352
-28926.9871118699
-28925.5236741915
-28926.1218667705
-28926.7825784243
-28925.6734930554
-28926.9474868091
-28925.0268394756
-28926.1605037865
-28926.6619501493
-28925.3302614885
-28927.0339241338
-28927.0345460497
-28925.4367292387
-28924.8708577807
-28925.6138850529
-28924.8351995933
-28926.3772933692
-28926.1449036442
-28925.6819742951
-28927.2774514726
-28926.6088355961
-28927.1702850705
-28926.1237542872
-28926.524766749
-28926.8862730637
-28926.0576486178
-28926.2117089179
-28924.9272000105
-28926.8946845064
-28926.3818096403
-28926.3538936319
-28925.529390484
-28925.484964113
-28926.625834811
-28926.0175681747
-28926.9005817544
-28926.5315580267
-28926.306892249
-28926.7543068994
-28926.0277988334
-28925.899211641
-28926.1409820776
-28926.3623673886
-28925.9825946254
-28926.5521022028
-28926.3300658598
-28926.2238228755
-28926.6251464994
-28926.15650113
-28926.8539614668
-28925.9942044925
-28927.3604292798
-28926.1837881476
-28926.753966213
-28926.8759602267
-28925.5782539409
-28926.4300777124
-28926.0767764421
-28926.9397468071
-28926.2487287621
-28925.1733405932
-28926.5651359048
-28926.1691991797
-28926.5462274041
-28926.4955651395
-28925.6452928243
-28926.924238231
-28926.7702494968
-28926.5535742019
-28925.7545305558
-28926.1839677426
-28926.688612802
-28926.7873473529
-28926.7925560173
-28926.5720500417
-28925.7688657776
-28925.4843187954
-28926.0937187852
-28926.58291146
-28926.9098672263
-28926.9853306137
-28926.9205021099
-28926.6233215689
-28926.3231368926
-28926.6377616905
-28926.6133201659
-28925.2049838789
-28926.5097044394
-28926.2725589833
-28926.4103652518
-28926.9378063643
-28925.8980237286
-28924.9966070994
-28926.5952680071
-28927.0878207418
-28927.0589468933
-28926.4251611621
-28927.0824596938
-28926.8577488813
-28926.1016190623
-28926.9034290161
-28926.210208619
-28927.2008049348
-28926.4438692511
-28926.0411285951
-28926.8873728113
-28925.9444335363
-28926.4675759326
-28926.6715179391
-28926.8934135993
-28926.758350645
-28926.6754861732
-28926.1628372975
-28926.4299919966
-28926.3868577575
-28926.3093797764
-28925.4476993664
-28927.1791139355
-28926.087634459
-28926.3603947003
-28925.8561708729
-28926.4638679753
-28926.1859883229
-28926.7179594481
-28926.1577842822
-28926.4899571483
-28926.6103821543
-28926.4487126028
-28926.2035427858
-28926.6259508675
-28926.9464651582
-28927.1243728226
-28925.9183099409
-28926.4528081861
-28926.6704547909
-28925.3522844665
-28926.1164034077
-28926.6318666193
-28926.4842367741
-28926.7944790448
-28926.0274425006
-28926.4949746528
-28926.3466408494
-28926.66845666
-28926.0976200793
-28926.1426110863
-28926.0695470614
-28926.654489472
-28927.0929552552
-28926.2035993854
-28927.0508161359
-28925.0558677487
-28926.2130317986
-28926.3589821581
-28927.1037430668
-28925.2535199831
-28926.8895929869
-28925.8878762006
-28925.9534213158
-28926.3098963842
-28925.7061107803
-28925.9648468258
-28925.0537151932
-28927.4707232207
-28926.910309275
-28926.5851342208
-28926.5249947803
-28926.3304381113
-28926.1287226752
-28926.5816677644
-28925.7642685527
-28926.63524287
-28926.0959313417
-28926.4702173403
-28926.8621356262
-28927.0477163527
-28926.3887380632
-28926.8822059163
-28926.8291645617
-28926.1896111086
-28925.3348845642
-28925.5464673874
-28926.5141766281
-28926.6998221176
-28926.6672223523
-28925.9495413826
-28925.6571422874
-28926.5883350942
-28926.3742024297
-28926.1021979842
-28927.0511185903
-28926.1031235789
-28926.0973817077
-28926.2120014401
-28926.8641987923
-28926.2173348686
-28926.1335179988
-28926.5160101302
-28926.4721228164
-28926.9709513094
-28924.8407173789
-28926.1019998854
-28925.9973766579
-28926.299056599
-28926.5340458262
-28925.9697376613
-28925.374361187
-28926.4815715565
-28926.4376484598
-28925.1274273929
-28926.1042325783
-28927.0099714615
-28926.4576362994
-28925.0322384835
-28927.117746582
-28925.4811870388
-28925.2019200147
-28926.9448021354
-28926.142557888
-28925.4091739171
-28926.4942247074
-28927.0030222219
-28926.6759721683
-28926.4876777879
-28925.3383907492
-28926.91517494
-28926.2630993587
-28925.8484244762
-28926.2118872884
-28925.5996626223
-28927.2807052721
-28926.2546775758
-28926.1991563129
-28926.0874699662
-28926.0310169861
-28926.3678359215
-28925.9290812896
-28926.313279982
-28926.7840649814
-28927.4291152673
-28926.0930231266
-28926.3677952405
-28926.4400701356
-28924.8533023654
-28925.0172323654
-28925.5535341801
-28926.8677915095
-28926.4694707963
-28925.3254212661
-28927.1082343034
-28926.6687089094
-28925.7495908759
-28925.9415747098
-28926.3574187288
-28926.4817900638
-28927.0228874743
-28925.1239655624
-28926.4957971164
-28926.1759821579
-28926.2277230812
-28926.679530327
-28925.981571614
-28925.2681218763
-28926.9071338441
-28927.083678491
-28926.3770579908
-28926.6631983349
-28925.9035898143
-28926.6661122644
-28926.9714933599
-28925.6756524136
-28926.1707424726
-28926.4382396268
-28925.9092335885
-28926.6327162943
-28926.3652656716
-28925.9226263445
-28926.4181926024
-28926.6019154726
-28926.3044317969
-28925.0985528641
-28927.3123462449
-28926.8618299065
-28926.5279110228
-28926.2815811851
-28927.2430232392
-28925.6103707045
-28925.9260453171
-28926.4507337273
-28926.4371130761
-28926.4075147248
-28926.1497991057
-28926.2739791447
-28926.976576852
-28927.0729283672
-28926.1085587779
-28926.0801462982
-28926.1250171669
-28925.271263565
-28926.3503844537
-28926.263193374
-28926.1733597982
-28926.1612248878
-28926.442643651
-28926.9352419648
-28926.2444475973
-28926.6710492233
-28926.8113060117
-28926.2032855023
-28926.5600128201
-28926.667444397
-28926.0899555888
-28925.4374593197
-28925.7304325748
-28926.9982411842
-28926.2655086534
-28924.8417651527
-28926.1150425671
-28926.6091075737
-28925.9608213118
-28926.0536973908
-28925.8808636945
-28926.2253536512
-28926.1853511686
-28926.7515808644
-28924.8520926839
-28926.4660368575
-28926.6727099332
-28926.0684073132
-28925.9516480868
-28926.3760742998
-28927.1970684055
-28927.0619571511
-28926.5677193522
-28926.8354747423
-28926.8979642928
-28924.8699305532
-28926.1733093211
-28925.6336923452
-28926.244023236
-28926.478064283
-28926.7274424744
-28926.3783559732
-28926.5024045813
-28925.9006409182
-28925.4857933795
-28926.8609764219
-28925.5814518211
-28926.6926830787
-28926.8996492208
-28925.134097716
-28926.0614980742
-28926.5576950917
-28926.7164960206
-28924.8328728852
-28926.3233721349
-28926.9642886055
-28926.9667920516
-28926.7017799757
-28926.4050297825
-28926.2484087564
-28927.0281277039
-28926.9960808735
-28925.9719117137
-28925.9660912017
-28926.6133405744
-28925.4601370033
-28926.9561529501
-28926.7322237843
-28926.4259545096
-28927.0677803842
-28925.8776169699
-28926.5325581806
-28927.022602027
-28926.1470914383
-28925.8207858878
-28926.1925100719
-28926.8266038357
-28925.4431912588
-28926.3562282314
-28927.0426060575
-28926.3906024502
-28926.8957758184
-28926.9524564216
-28926.4638358658
-28925.9145223904
-28926.4156790882
-28926.1079444813
-28926.6980635829
-28926.3917079121
-28925.1654050774
-28926.1182713322
-28926.5093517801
-28926.7665869825
-28925.0847810537
-28926.0471990436
-28926.1070077299
-28926.2394283241
-28926.0343837128
-28926.9679809163
-28926.0685201043
-28926.6853440362
-28926.4068439645
-28926.006229605
-28926.4852480847
-28925.8993447046
-28926.090824856
-28926.8793777026
-28925.7969019242
-28926.9777964656
-28927.0699748452
-28924.9761611563
-28926.8052015491
-28926.2448978094
-28925.9638910264
-28926.413718509
-28925.0000998148
-28926.3898304637
-28926.644772836
-28926.029080489
-28926.5480224021