-0.0964466577063538 0.463547805966791 -0.425949812545059 -0.727139994008391 0.0921472612226723 0.298981862099718 -0.755386890066679 0.366149583472368 0.231615908775812 -0.0793976814575246 -1.12443873328715 1.23859462619282 -0.487033792762532 -0.192141782347177 0.250562101066567 1.18011697190258 -0.59425542402696 -0.978780415183351 -0.508818481475954 -1.40876994292705 0.386203663542586 1.89756699732605 -0.350101022946419 -0.449982158480127 -1.1393783775929 -1.32751721149764 -0.347515522944033 0.538181235729386 1.30170617731511 0.637532467175493 -0.864508822695232 -0.314235695049357 0.49117763758537 0.197395057610577 -0.114934165430258 -0.0819104192780616 -0.336065892265208 -0.687779510280736 -0.0571005721489592 1.46120962167473 -0.05863243462054 -0.724044644512694 0.443236358603177 -0.108293266508059 -1.09348061034689 -0.75626492134235 0.39078819521945 -0.386644350396612 0.304732902677818 0.390887182639987 -0.251290494215608 -0.612295302921891 -0.0342977271100147 1.02509932890947 0.255784523107982 -0.171351338712238 -0.739568186044523 -0.690950964390664 1.57181970804372 -0.339974481270406 0.176496113478322 0.361464521713867 -0.0150715418297409 0.979319318127365 0.240617850510452 0.499263495737224 0.675205793880906 1.15298053472558 0.570794891139358 -0.386043226788261 -0.0607978165835568 -0.712122959537491 -0.669513888644945 0.21543750760734 0.973610700729495
-0.0679218255400122 0.069746279400089 -0.609373759910046 1.17600166631008 0.106748548527317 0.853181319353434 -0.477298829895552 -0.472062523904244 0.378289040772752 -0.988717980874702 -0.42116319226419 0.987691339913134 0.516423029364834 0.195494756246453 -0.721138271001658 -1.6877704871384 0.339976538151872 -0.0766260336824925 -1.33458439910361 -1.32656976047251 2.10124814180599 -0.0949250796421015 0.324605205848505 1.01889320330709 2.45288025589344 -1.79264624509119 0.996289104439765 -0.617169340665053 -0.131143162710531 -0.877014147786328 -0.221747762833928 -0.810596673928293 -0.704371601733997 -0.0455663522198576 -0.747309002330505 -0.330861467936618 -1.15691509185929 -0.178807791135587 -1.21275453855959 -1.62261311028829 0.045855858286155 -0.185881920716499 -0.204579487460088 0.448984056748895 -0.372183702362185 1.18950792134442 -0.712915116011969 -1.04846370258855 0.570678677336546 -0.403198903763124 0.512900362744638 1.17649223253965 1.10740029855583 -0.487819007262063 1.04339374688578 1.57803791782471 1.0418235749969 0.453708456365427 -0.20513587389656 0.464484458364235 -0.197805919683351 0.229994829070656 1.4858361492432 0.648348064142515 0.972935015168012 -1.14996103273394 0.104395476130555 1.46127467055108 -0.20901900899362 0.112099782770522 -0.48173320922542 0.0211431988063071 -0.726313641879545 0.802227737464722 -1.87631144136968
0.151804794143681 0.348816243360905 0.0634527363354104 1.10098282838285 0.107986791169669 0.98199274981241 -1.21048142742981 -0.0204214905220292 0.516263621051242 -0.354881729693074 -2.3029755060037 -3.01982260804754 0.0129686376412448 -1.21676674296862 0.280110488872278 -1.09567607420134 1.37519675231333 1.31339157803194 -0.657437937559814 -1.74281006405872 -1.6530696112611 0.43653555300829 3.56372223136176 0.569534794131433 -3.44028234685046 -0.130837201592508 0.0399808905997465 -0.174469313904057 -0.746603749097953 -1.06221318385621 0.131403872436309 1.07191343684846 -0.388452349204964 -0.405366342607606 1.31549216822879 1.39490193386492 0.542544138428321 -0.0782931361104431 -0.241302020707981 -0.578271912377364 0.185050683494173 0.20333841660572 1.25661573604438 -0.484967912440418 -0.0193100032000011 0.646305323736891 0.379705203661887 0.0398407655498957 0.529629751035734 -0.24710422621254 -0.67237063989062 0.480285936004117 0.145826725273804 -0.368053484379057 -0.151034234924593 0.482147156620393 -0.597964238419803 0.57759211305295 -0.361921149399253 -0.204553005111217 0.846920429282023 0.176229490218331 0.6491263366671 -0.367902046481145 -2.07137656649999 1.5451828359527 0.492783547789716 0.971744337909554 -1.02463293103712 0.274546367397373 -0.591211496567906 0.0598796761193045 0.954884337645387 -0.128542493207336 1.5947475086317
-0.100184782660082 0.238803681057704 -0.121655796949985 0.177755439155698 -1.24566232801916 1.00550779005885 -0.916070727277425 0.316659472746502 1.84194635139166 1.17568902032729 1.2435419403382 0.352985027871515 1.01136476003244 -0.431981617443228 0.130500644362683 -1.21461807316751 1.10042824171766 -0.383137624607775 -1.23486781408716 -0.237103154305935 -0.489586125551284 -0.976678025215222 -0.109247916618327 0.855614095906992 -1.46270137495773 -0.399671866269813 1.0723278984638 0.363797539516339 -0.148573690471248 0.0892645418484923 0.882843349860125 -0.643176292807193 -1.83037356493508 -0.609775623126407 -0.416781777632064 -0.446458463419198 -0.291932929316761 -0.10055836375629 -0.148082095800945 0.566869075751884 -0.453494797803178 -1.25796813560808 0.0950518349624253 0.275687165280288 0.0305223211797205 -0.822085128244783 -0.130018048548793 0.0592548983740978 -0.243594157991321 -0.1633724383966 0.437920348455073 1.18506325760722 0.185661320179303 -0.423294635683023 1.21695983271621 1.34410518918797 -0.493077167618945 0.560811559835395 0.192683256393023 -0.145193462892552 -0.191034923008447 0.0682288150987681 0.0903868277982154 -0.329074037942924 -1.02822373185587 -0.735120179874944 0.604417961128623 0.807241900257735 -0.424353158307309 0.152692595606314 0.663656918671361 -0.229040950290937 0.399301627605987 -0.928831362780451 1.1611113871595
0.486445267553158 -1.10961350301293 -0.0728794240927181 -0.334559226591582 -1.92755504354506 0.483590830299132 0.550569318576937 -0.277250395194221 -0.326507821204279 0.556275364872974 -0.0987778757375427 -0.58431631567451 0.263639239205127 -0.0832558768668132 -0.660383134708515 -0.422707396024565 1.11562319643534 -1.11378074486244 -0.959010956085949 0.292169213575133 -0.198227837494003 -0.507608520953756 -0.632161949668547 0.120877781535584 -0.498852376554267 -0.211742577164392 1.30175708513139 -0.37904443049103 -0.282919417623876 0.580950486266073 0.292307281743518 -1.11112685355132 0.0335739619442711 0.0478664599188778 0.0518724936835137 -1.00310895204948 0.474892278580682 0.401767571373179 0.393851920162612 1.23654211560024 -0.0908568252131281 0.398335150427291 -0.421019724781957 0.198337366432052 0.468012010077912 0.321275114755535 0.167129332393703 0.600315253935099 -0.239948849813733 -0.3241902300128 0.11153619724892 -0.171992828619353 -0.0427013734483193 -0.642943608091386 0.271769320308494 2.37704406469378 0.215687418705423 0.579277727414092 0.327264496473473 0.311059870066314 -0.370419155174797 0.353371464476883 -0.548911215005398 -0.298791086343774 0.766149008115593 0.10142431085335 -0.378746954009053 -0.893072478499239 -0.51957674287212 0.152588723092296 0.284488561072022 0.477694265357333 -0.25074644906793 0.750008145033871 0.0719692540441454
0.414455958914722 0.369978982541136 -0.111920062752456 -0.803288059860291 -0.394671330316511 0.125018026815857 1.05040308470053 -1.62412414683503 -0.165613667863665 -0.0116450344180663 0.0949009112848795 -0.280805200587318 0.928963260304439 -0.0128663077883262 -0.608489300879795 -0.450967918922564 -0.791311610416064 0.486011779784262 0.0902171350772951 1.52812177552526 -0.292374901721703 -0.241338273243814 -0.0617529809141917 0.823749145350535 -1.27801887324592 0.553404986787589 2.17369304968908 -1.36128914828299 -0.0579063554631476 -0.935738884962641 -1.046618937024 -0.44159753829538 -0.423180221651493 0.597085178703399 -0.249401505699545 0.286085215309773 0.454953383872543 0.210976131708235 -0.341417383618596 1.17211004657697 -0.0420441998200279 0.366659690075862 -1.05619603423849 0.0621558725712859 0.354075946378886 0.647664922385719 -0.832664440953433 -0.230117470628048 0.0264872339643815 -0.177852883915135 0.265710261730905 0.251814998989362 0.709950892709711 -0.446085910763723 0.246878483471679 1.91583364740258 0.0794318771118918 0.140301941656931 -0.248096928629924 0.0615874019562028 0.429805951072882 0.740486583618958 -0.324941505968147 0.494941473557419 0.656182211425004 -0.842425886169283 0.260479869273811 -1.14138666523398 -0.547694312508253 0.387853796698445 -0.260614595009814 0.0500899487833006 -1.34505443998439 -0.505700249173952 0.478692109978381
0.0521928529717966 0.326418603970704 0.0416508212397125 1.27915735713718 0.128142943982623 -1.30797606624293 0.975584535606018 1.91228192733168 -2.03631136549308 0.504281772293168 0.213360314437165 0.540208035303651 0.331123206103128 -0.0168520298484884 1.78081429156993 1.3106674956408 -1.36292951125189 2.19560963592649 -1.58504597008854 -0.0594965819463177 0.428061458479785 -2.44173890032429 1.17797190164404 0.250140954586464 -0.199044162325703 -1.06157812170368 0.560585559984351 -0.468675097240418 0.441094887887199 0.590680049819206 0.481301521227806 -1.32740588278831 0.783138334801917 0.142697437233923 -1.10449495348553 -0.115588253736351 0.465130319144465 0.0675891249629351 -0.774218925436088 -0.00692012058116782 -0.0700069891258666 -0.198705291104229 0.17066408319251 -0.350613700651745 0.280868706802572 -0.690493822484912 -0.189180387256934 -0.214699344271337 -0.360190540756049 -0.0348975651674497 -1.06592276957961 -0.972624426066691 0.614452200248862 -0.681111100568934 1.65633053971479 1.28306517481183 0.0848887836403966 -0.0986732318929751 -0.220766887484972 1.00608345975907 -1.01515276436171 0.927175573200562 -1.19764314465145 0.414833653773862 0.394342486392182 -1.72726312550022 -0.0241215631686421 0.284577264085231 -0.17496810765949 -0.91719558432898 -0.194682288067501 0.0317968163579054 0.995911409580625 -1.77756801839669 0.91988058597227
0.0921076662544575 -1.20538833181055 -0.157879793552629 -0.256428841227112 -1.50098019614461 0.689521945992368 0.346629007032315 -0.623071047810515 -0.400782839371475 0.482919772720947 -0.552008878492744 -0.744740214490028 0.433627893946338 -0.0994738730034992 -0.769974550531614 -1.16426278667514 0.706363434323345 -2.30707332810375 1.52302173793106 -0.162349396977597 -0.831765583752921 1.08277839897066 -1.66776371534189 -0.34785465127569 -1.82651459819524 -0.953851526039421 1.03323866597943 0.465569977557759 0.0342259933688983 0.952276983277427 -0.810835786398681 0.743929031861992 1.206545327635 0.194518251770611 -0.10121142362165 -0.918595549276573 0.764807921399956 0.441659758959717 0.634026512717205 1.16250466724233 -0.051034828706607 0.0995844303822807 -0.865125887134943 0.101679878375464 0.283750654846202 -0.622790026380264 0.162507776850456 0.123040335286585 -0.520807015098793 -0.228814436219527 -0.0849450907705202 -0.279152239219444 -0.300361515342837 0.131364534578277 -0.416820087049362 0.789702614889519 0.470375109771819 -0.112789352281898 1.90338282967032 0.307554686938577 0.184907473122123 -0.573958374833606 0.00398032274631466 -0.378969868537899 0.629384645469485 0.770872636401576 0.491710112774803 1.11384296552678 -0.571959343159128 0.359439521910885 0.857119476029702 0.634586241586059 -0.330045400215101 0.536469139019373 -0.205147700964988
0.0778393366370728 0.173325173588761 0.099109547873887 -1.26314479203688 -0.118962053560467 -0.0455216150479786 -1.27078379269031 1.57512383100818 -2.73383303772593 -0.387847626054048 0.695875909950102 -0.0917559395238226 0.390470149922816 -1.47337247600178 -1.00368282197841 -0.225840185620123 0.592149691626449 -0.149103851669032 1.38101875530199 2.92768614545257 0.616811186179838 0.602858330757255 1.52321045680554 0.427513813789542 3.123444696747 0.175065038198561 1.69107023922975 0.881491978737159 -1.03009009467581 -0.635696186246988 -0.318404993780333 -1.06603949760278 0.42372658079082 0.15001839259072 -0.763318224998423 -0.67020654347852 -0.359713087145823 0.806616094071795 0.412099801195762 0.83980541918198 0.421366309308928 -0.556294905246899 -0.117021900117944 0.229487036458811 -0.551288969979749 -0.460414918384346 -0.702579029536638 0.0254410526288893 -0.249255981335847 0.973023718181221 0.415331161978378 0.0913599898416752 0.239176747933545 0.282541722764736 0.624140111952314 -2.22448825170494 0.552837544613238 -0.844951222388798 0.935023604432944 0.800578375639413 -0.272155756913862 -1.3602766483815 0.0717890198057133 -0.860575808222629 -2.14439277321017 0.339012117854641 -0.916202624801413 0.552708218191083 -0.75425611948091 -0.642382850781799 0.296777656499036 1.45454661127677 0.026248378604177 -1.23309658203501 -0.420769042353325
-0.454504726602837 -0.236000408730136 0.0488285662244594 0.222991147679944 0.661895971026538 -0.450296347124013 -0.637564863058578 0.459303173952134 -0.0310661092172152 -0.554288931597474 -1.59100655546596 1.2004021940275 0.164183363914453 -0.434259099446125 -2.33580281997593 -0.451359240621414 -0.324972616300316 1.9888033171696 -0.656054427663947 -1.08333324274603 -1.15276044840875 0.473928886724184 3.75233311956288 -1.77762792506938 -2.31535253311338 2.12670179283386 0.280321062112329 0.254873067508493 -0.68514515934354 -0.368394412481997 -0.017134593939839 -0.658452751452955 -0.130919476851136 -0.210115069704656 -0.281085964907386 0.831449852447936 -0.322560665671598 -0.221982247321018 1.22450987324625 0.0969621636236951 -1.26995101280689 -0.73210504875641 0.903740751331281 -0.838860796368857 -0.140443609367882 0.0720813540840261 0.782193969098977 -0.0678583193247587 -0.0990444989975342 0.815828609046487 -0.392485379538837 -0.828711114776355 0.134235169773846 -0.211898385935418 0.145206061291529 1.58048432121798 0.0164234271730729 0.830264831613509 -1.00974727986985 0.156593728416199 1.5434614832761 -1.25604829387003 1.37938199187566 0.400368634866319 -0.0839259060042653 -0.280146998518294 0.673669817646394 1.27026237323876 -0.684178939275027 -0.0128315979135925 -0.262911360276452 -0.49069427044093 0.777790700101278 -1.34555580484166 2.11996422048277
0.820788007370475 -0.398454963772668 0.287881387049696 0.42618275437105 0.598978538092576 -0.620639042587507 -0.614614950994835 0.285755342944711 -0.282434507818337 -0.834257495648618 0.0263787334670658 1.51035417631436 -0.293203053621831 -1.0107343258632 -0.425103405821923 -0.864830467534431 -0.314902124644244 -0.807330860381126 1.13002290935635 1.13501753177543 0.809543293507671 2.2472049648325 -0.460959220642207 0.294641585096906 -1.47881781257204 -0.0524751599529641 -0.414970436391331 0.784188115679974 -0.234842384464947 0.683138928583932 0.869112380525654 -1.40233293238014 -1.04577073052958 0.0546168877791253 -0.575958692059 -0.317415890905514 -0.13726701305429 0.63554911922219 1.59061549087729 -0.462220603201048 -0.135665730833241 -0.0095853247403499 -0.309774062040068 -0.556706795760405 0.105747361473887 0.224318864666054 0.761032001249296 0.607292967197306 -1.42804292226067 0.0740333345949763 0.533257318610681 0.614493080767993 -0.647931031425344 -0.675181111303318 -0.380270588954771 -0.460393835349322 0.503744669120436 -0.861618647125739 1.22536013662214 0.380851915079015 0.241216145906788 0.218963516659918 -1.39599079549083 -0.505173944628916 1.14239993646602 -1.9947258502399 0.789287124833447 -1.27743060514673 1.07838130061736 0.879370819725655 1.56877835168649 0.641659599836422 -0.910710494177808 -0.143458483376233 -1.03796203715523
-0.588280183369099 -0.271910988019444 -0.227575422246625 -0.663308277262925 1.42623338079122 0.616712198759301 0.0740531320790837 -0.377663748807179 -0.400721132927504 -1.13141361833734 3.02930508871461 -1.08655071957876 -0.21138390845881 0.455135160772074 0.959132826312792 0.407441993116682 0.27669735119013 -2.18831259181674 2.30047999456544 -0.264257074975387 1.56397553346408 1.01826225491748 -3.74260227045883 2.25201446791968 1.95359799111285 -1.58651921143835 0.0849967699173459 0.266005424221233 -1.18331439414101 0.401700979835727 -0.466130477757162 -0.793841060398509 -0.255072842120849 0.435859096116257 0.150696649254035 0.0597722040627216 0.264853570600441 0.591930376640169 -0.843704238000216 -0.540730997416306 0.344970132130228 -0.0866613012434645 -0.87516398290793 0.212365298028133 -0.900168719555908 0.600816618792363 0.300692159038448 0.655958782675792 -0.505357264189546 0.143711479796514 0.85095217406498 -0.308772103656088 -0.0140279315960809 -0.267730119330223 -0.429841432278166 -1.2877001000846 1.42172186840638 -0.428285401449363 0.74482840328287 -0.312248233333123 -0.477569824028658 1.24208798225213 -1.98361071990944 0.269093060411433 -0.13712303135169 -0.508973261806248 0.106781715740952 -0.835966507036432 1.5881924845107 0.187631041292895 0.772511713819556 0.689338369321554 -1.2586386789659 0.803760885487219 -2.08313987160233
0.202847079045601 0.100296882699963 0.0504324195473398 1.51394729112475 0.313222680927499 0.174644663049008 -0.492132030585455 -0.408783079832319 0.210464482443642 -0.261158640157492 0.0100568648163619 1.21780161145605 -1.1910107303653 0.404636149687282 -0.19614755900163 -0.451051736842291 0.142762743220459 -0.870808793514491 0.768677943877673 -0.438078728327932 0.12211473862702 -0.955254062088846 0.0408884895464871 -1.5653996667689 0.0436092295052431 0.267667641555703 -1.46520948479497 0.622057519468291 0.106353884396086 0.550478301572079 -0.408213066556136 0.444748166480467 -1.00046688780679 0.311812431572578 -0.518088074911319 -1.07046050720313 0.216391129276876 0.546208215649284 0.747533973740816 -2.32584879923285 -0.244305324758087 -0.432930611129465 0.701178550368679 0.456448222477741 -0.346466770506708 -0.684372029022619 0.525946647661213 -0.441637133263595 0.00222863106808704 -0.0939796854984286 0.0992856683493876 0.011433175627099 0.157102035248411 0.522770565567988 -0.420171775397722 -2.44212610826021 0.456092381984175 0.490734379629511 -0.536849662090528 1.05504957993154 0.144626020718201 -0.633717466276984 0.418224937090436 0.323985570306963 -0.12087109667082 0.7813650458683 1.08381455300901 1.12765235346713 -0.211122684512666 -0.166349517208019 0.0688255678340046 0.136362756539931 0.91821913996835 0.723983195178906 1.05802948695498
0.0361828589733296 0.337757420160564 0.0525648914069053 1.37200935737204 0.0381386961370281 -1.28213726416062 0.946110452643256 1.78692451507398 -1.88716406220309 0.616358929367567 -0.122599905542742 0.489888744236925 0.297691683200357 -0.134055449755781 1.47573171904294 1.0528739135612 -1.45422445221721 2.36963234944231 -1.56068426600878 0.0731252214278693 -0.110908591291698 -2.30278832979033 1.3594266421158 -0.218047690187315 -0.629432725073745 -0.5729767281541 0.910487836759146 -0.493506798735093 0.634570814975067 0.688932906562628 0.51359841689206 -1.2793974980483 0.743972226372772 0.208374947984673 -0.828438320871967 0.229309116212028 0.294165931257962 -0.308112616036148 -0.979412649123871 0.138193123934221 -0.225035687856851 -0.342895510061885 0.0808410980260802 -0.386054282526139 0.366098675656092 -1.0347707855612 -0.156909716831368 -0.327423904787065 -0.115154251747088 0.0888464806905886 -1.0880172760638 -1.00234842012754 0.702781118140643 -0.651468353325984 1.73324042303955 1.35446904356309 -0.0509702940506206 0.0174966050778024 -0.461547231631214 1.19667718169312 -0.846427291950621 0.679504161923855 -0.828511597274182 0.370557994673731 0.479458555434538 -1.73645095789733 0.0563104725559468 0.757390806834639 -0.392200758566021 -0.835501908935367 -0.484592274462745 -0.181603607267841 1.08660805514961 -1.87844982676346 1.55391712598662
0.136441175145811 0.248011053828731 -0.0037733490488285 -1.74972529954641 -1.58639656988096 0.80338164796698 1.10254760095788 1.20016745243023 -0.460915769021244 0.278413047442708 -0.73670526415445 -0.333851916477564 -0.544480435218095 -0.098299393686584 -0.93567075076409 -0.181214342450457 -0.0399834617015787 0.719043594339025 0.338657562911991 2.18375042872581 2.28934069587776 -0.100245717773504 0.17603331514854 2.08079528384161 2.97142161605777 -1.12753279723193 -0.717562896793904 -0.355878288763206 0.358314921969513 -0.0839917262111678 0.321051686006323 -0.27556812326546 -0.174948824395749 -0.181468624421655 0.926999966945428 0.258385963941727 -0.170416486086077 -0.207354220557319 -0.697194885189983 -1.81895658724952 -0.22366066259703 -0.0535138850931431 -0.0517164278023036 -0.672679172110476 -0.111546224546065 0.869919192280576 -1.12521366337935 0.158370359782199 0.49152422211234 0.0135281093999155 0.926838758860553 -0.0532410911887545 0.0763928347463186 -0.387199708392352 0.308701912576071 0.528315917999517 -1.33068146652244 -0.245184898694858 -0.608324493252355 -1.05957189094407 0.210427458577259 -0.315436656715143 1.1695304601088 0.462691114836327 0.788555646362207 -0.622593594200289 -0.287141166832227 1.23156600511434 0.531906718818265 -0.0703237488715846 -0.377310736525628 -0.524715604103991 -1.68180321689621 -0.337170180502106 -1.43986073472185
0.124526432145554 0.247501718555787 -0.0289588341556045 0.862524446301197 0.64022132547153 -0.889154376417262 0.859276373356672 1.30616523922257 -1.86443680755801 -0.298591568841601 1.53602045746374 0.591617987767565 0.615282151920272 1.0667912877785 2.18891165854362 1.30749372753923 0.315070531814248 0.348090935534062 -0.327689756716507 -0.524980941813067 2.78390010370292 -1.40620629729023 -0.367692244571643 0.623912312329987 1.05738259773402 -1.9171947887125 -1.02736626939486 -0.162391820157827 -0.495722574294019 0.0820433452427825 0.0204651992531754 -0.713360430849293 0.996756016532479 0.145075192208274 -1.39688091094511 -0.954723900891062 0.850351050456629 0.956733731193235 -0.144983146762684 -0.659394031833696 0.403735749825672 0.258494207328859 -0.24988050197087 -0.287039865420041 0.111731343877978 1.08145376730675 -0.221775787843898 0.378223734786216 -0.956366320741424 -0.47871679255597 -0.74970629767878 -0.631476236809919 -0.585546587901182 -0.0358905246950169 0.433931798182895 -0.225245489766352 1.05178248083346 -1.02941440911433 1.06275620056316 -0.0430916667064361 -1.0806796085451 0.93925769493009 -1.24896465121234 0.288344442489662 -0.325977402896311 -0.403655274338326 -0.304785353155193 -1.43268941749168 0.473988793396873 -0.699438685758879 0.712486770446737 0.726135207412396 0.16020715493107 -0.21391772931437 -3.22465612036865
0.322012763871172 0.286708193283697 -0.116214574142657 0.0207313082928004 0.515284031253202 1.41000741423885 -1.04995082788826 0.580759453399947 0.347161996442115 0.321852841337214 -0.0850474206234388 0.629163016491555 0.846900374687733 2.82930781893974 1.31899683713616 -2.74689783457569 1.33495335221652 -1.58075762934274 1.9432544484422 -1.92851149342661 -2.50947380676111 -0.496124951730747 -0.297914854839386 0.0900273877620842 -1.01028618281386 0.743020404474519 0.101070013020883 0.527784985471183 -1.37426729900101 -0.114414545749985 -0.252304536778199 -0.225710859197967 -1.31153318562768 0.556076104480985 0.491436033319498 -0.0379312082191755 0.108481728272354 -1.34151197588009 -1.09196957380014 0.820478960930254 -0.30031215018766 -0.321201324132953 -0.426605700622435 0.407939758431381 -0.307751376228734 -0.932247842894981 0.407880623089242 0.163424631763792 0.271093891857194 -0.375610466884043 0.031779332865447 0.819014461326674 -0.0778838166987686 -0.632383321536294 -0.398253132278846 0.812648156080147 0.700289720465313 -0.189293258627364 -1.33722466357502 -0.772471861741158 0.19280384106895 -1.32041968489006 1.25539574822504 -0.2723236498635 -0.701558559219467 0.276443583439299 0.158045629620801 0.987624491265499 -0.402430915645868 0.99199510726993 -0.271968837810667 0.385546747024478 -0.126238528855567 0.24038002359098 2.48922715116366
-0.0850070543246744 0.416736526239818 -0.151077943655739 0.290113617660348 -1.28237123442734 1.56494561018534 0.590792664079453 -0.907133834419138 1.4969890747706 -0.27806106360189 1.38123704184754 -0.983430509956935 -0.645812443515672 -0.997773915747817 0.185452546710534 -0.788939511865744 -0.442792843537135 -0.3802808733621 0.385334888233511 -0.796731750188369 -0.649690693519251 -1.09330089032882 -0.288772016724345 2.51899279707419 -2.38424957757832 -1.2366591007336 0.522297997051243 -0.374321830645781 -0.297595781102019 -1.08617456738072 0.445310466451153 -0.0409936476114211 -1.55100843848394 -0.159932818365582 1.07770921459844 -0.434443961667855 0.781864868064465 -0.687193556173195 -2.12174162317932 0.97989833025996 0.661638860843325 0.462496225317452 -0.668911479485678 0.378916903840157 -0.319642722202318 -0.422500422327079 0.359057456178631 -0.420219083671433 0.0340812403357496 -0.471978705984517 1.05327500544701 0.888244463478872 1.43432360981618 -1.06332878494117 0.0100452948581173 1.59695197134257 -1.35422915976215 1.77360132249008 -1.78230244531037 -0.174522792822165 0.286470109254042 1.13283183810794 0.632413917648096 -0.050348087407246 0.169875526260597 0.154677743330899 0.293357062621575 0.256554825216887 -0.382795668064103 0.370303712702534 0.0341522027463163 0.537036838303907 -0.178032861043384 0.332313112031036 1.9440095810503
-0.600169215351034 -0.421207415215703 0.0524916150046897 0.941192963279131 0.0531742425411192 -0.142373735513259 -0.118234174631792 1.47304928850149 0.0692914514859859 0.414992290756904 0.312239491586894 -0.0165746079608019 0.834425388598256 -0.310388812488129 -0.0945391572570993 -0.685661436591431 -0.752094851280825 -0.684837398454234 1.52813668791589 -0.0790140730641713 -0.29444746690858 0.303644041051913 -1.68779234150397 -2.45610261781965 -0.577184593412558 1.60275751927951 -0.0666858968893091 0.410730689470154 0.502501541384603 0.595865962214604 -0.863309146580362 2.0703838640826 1.60951900287763 -0.581233050357424 -0.286186516721958 0.225581532775811 0.79846852947597 0.327687185614675 0.281774763088213 -0.33787157708191 -0.464737197674333 -0.528033096797984 -0.350135989931336 0.183508536615264 0.734140847187087 -0.584988915913794 -0.627667149445624 -0.34796032356099 -0.013847954467832 0.615596083453975 -0.136482312775125 -0.0751196251190497 -0.726173259719511 0.947842089727193 0.0356110459258647 -1.34872160252756 0.462746393525718 -0.831261904904008 1.83882837619984 -0.0964019205344748 -0.0716244692884573 -0.928178560025274 0.57870617147681 -0.156581901347772 -0.963316266103845 1.08444524428843 -0.327488953663418 0.402208258227206 -0.466117365137818 -0.177993266075169 0.726109753504258 -0.5283897086221 1.08550453824326 -1.51256583811035 -0.783459722530933
-0.113970259353394 0.376189221906454 -0.137375513551605 -0.620482462485931 -1.12707462688545 1.31669878631861 1.34054472737084 -0.906663837004225 1.05621788860406 -0.0447556838121882 1.16323074639972 -0.668895024433952 -1.0219960089981 -0.879837988928552 0.280081178311392 -1.65120710509391 0.60519083433936 -0.648190969820572 -0.30803034077752 -0.391030393012037 -1.82697713941484 -2.16303737525602 -0.205532594909257 1.3643981246184 -2.82118416559095 -1.4086863821175 -0.853931309757865 0.0159372318166178 0.0649362620925472 -0.437723916275098 0.0408401528320431 1.11932224064122 -0.0209022865646368 0.152117697236651 1.38755398193889 -0.0806986589845805 1.14338775378992 -0.405467644019792 -2.29125642385287 1.37232534578721 0.79623167088202 0.664603341255767 -0.531008632948303 0.323621759397717 -0.284033476047736 -0.0712105218934849 0.139549637260851 -0.410806022753836 0.81649632419229 -0.216976054943685 0.551279714013153 0.634225258888829 0.478281505015791 -0.409927991478165 0.0702723268349421 0.66164246038589 -1.10121731286994 2.2173624429772 -1.73267349508557 -0.25541068490159 0.936760897940912 0.711820083741666 1.94827863853236 0.26809881533295 -0.113740402849601 0.602190101391085 0.171746517063836 0.42562893903641 -0.376700356950681 0.0335839892414164 -0.904265513215218 -0.0330857097063503 0.133182560683774 0.0387495899323413 2.05338476720932
0.306258337394819 0.757086131267532 -0.307749062237085 -0.281532308185444 -0.981182338514923 0.99859846810538 -0.688053332625858 -0.26319289592707 2.14305091516399 0.848826387070178 1.86221409002413 0.410969030609993 0.577923528079111 -0.0503606858062235 0.459263321873736 -0.599525154342086 1.91762107739627 0.708096871178564 -1.74774555113567 -0.268363381711476 0.0196311338188336 -1.43918453494 0.754384417462333 1.65799764214274 0.896925017484497 -1.19129149468537 -0.227489804555615 -0.0950317803681347 -0.687926577305534 -0.692280481148056 0.800326407659865 -1.40406508368444 -2.24241294523779 -0.116208660608443 0.260673216131586 -0.371543755116168 -0.708101242051679 -0.0442201233005563 -0.0675752410130416 -0.316577711708241 0.100100193409805 -0.672374753653552 -0.415123416950342 0.125127298643722 -0.226638769849182 0.703410266758965 -0.0378175655181955 0.914717299272994 0.0706214824637448 -0.451145324948981 0.720661588721982 1.3625464170789 0.715226022338684 -1.09900359419248 0.773278416385896 0.846199492328295 -0.179080585039976 1.41536739022828 -1.59513034569451 -0.206593688635376 -0.476133863655416 1.09708323823406 -0.455075254099386 -0.25651908690142 -0.783277688521219 -1.17445540566824 0.0207966142793365 -0.952821028425105 0.233737324897499 0.195264642632478 0.303476919432824 -0.105158322044147 -0.831808521153518 -0.0283978197358345 -0.239291676185441