0.509828015835194 1.29798050970287 3.74307405503492 1.29798050970287 7.81389469167818 -0.353758215069318 3.74307405503492 -0.353758215069318 -0.436995442144452
2.42668377201675 -1.97058942997404 -2.43323058075421 -1.97058942997404 1.71526388921328 0.641587256270617 -2.43323058075421 0.641587256270617 -0.966745423564228
-8.23093020975132 -0.173839664668761 -3.98067637937162 -0.173839664668761 10.7427873934434 2.85449768216965 -3.98067637937162 2.85449768216965 6.94602834046048
-5.46890177090768 2.15083303317666 -1.37351442820404 2.15083303317666 4.46517968875857 0.97605054604976 -1.37351442820404 0.97605054604976 -1.25779709542495
-8.60390600314519 0.0417260232936236 1.1572017126765 0.0417260232936236 -1.1711103871077 -1.74414777367347 1.1572017126765 -1.74414777367347 -8.17830056555023
-2.8431238725263 -1.20709030951552 0.68465942384821 -1.20709030951552 -8.92256959994957 -1.46280647986847 0.68465942384821 -1.46280647986847 -1.32532466785075
0.66931695724317 -2.61008731653563 2.19953974053146 -2.61008731653563 -9.25100537929407 -0.98531418241002 2.19953974053146 -0.98531418241002 -7.14352782247264
-7.71050962797821 -0.393505666238717 1.64281736184975 -0.393505666238717 7.61970062807697 0.148596545292942 1.64281736184975 0.148596545292942 -5.10181472172434
-7.84022316392797 1.66195431922508 -0.055604419602326 1.66195431922508 9.19944230976261 -3.43717690060304 -0.055604419602326 -3.43717690060304 -3.37333478920778
-2.52152210184092 1.80650130542711 -2.57458018214018 1.80650130542711 -5.40939761527196 -9.04766597864964 -2.57458018214018 -9.04766597864964 3.20369741997424
1.22690538076787 -0.31325243764286 -4.14798436178754 -0.31325243764286 -6.23111307211256 -0.897990321242865 -4.14798436178754 -0.897990321242865 -6.51826113995184
-0.758436101378917 0.955629487737436 1.17051971646146 0.955629487737436 3.70369629506705 -4.33319825921155 1.17051971646146 -4.33319825921155 -4.12842051183924
-1.694667616885 0.637374988651438 -2.87443622333002 0.637374988651438 3.29185435315272 2.88943328188652 -2.87443622333002 2.88943328188652 -0.897324003630849
-0.503057691353375 -2.42812499539377 1.96740384242162 -2.42812499539377 -9.43606728979178 -0.460721152972151 1.96740384242162 -0.460721152972151 -7.16234614025895
8.30460910224512 -3.8803503829033 3.61663725008463 -3.8803503829033 5.11650569299082 2.03906761625865 3.61663725008463 2.03906761625865 -3.4164978189276
4.94848978363023 -3.48052858218314 3.17604421830794 -3.48052858218314 -6.06493245117261 -1.31448127819292 3.17604421830794 -1.31448127819292 -2.43587491100157
0.95846228996478 -1.53697149822997 4.35107561301147 -1.53697149822997 -2.63760978005653 1.78210251868132 4.35107561301147 1.78210251868132 -1.44627302066297
0.242218424961304 -0.398651157748812 0.973919917031909 -0.398651157748812 -7.62231106050103 3.24219454245078 0.973919917031909 3.24219454245078 -4.60467318285812
-3.05204134052235 -1.44242019200484 -3.8805595130926 -1.44242019200484 5.50515388159632 0.776111902618521 -3.8805595130926 0.776111902618521 3.46630042680748
1.52334591824297 -1.32849934730492 1.92316095990807 -1.32849934730492 -8.03931890740519 2.55324922177269 1.92316095990807 2.55324922177269 -5.15963841743758
-3.41596605751695 3.46661047645715 -0.992630611228053 3.46661047645715 3.17793728849798 0.412752014362685 -0.992630611228053 0.412752014362685 -0.774859609785164
4.24901750782057 -3.3193899900652 2.98720309038727 -3.3193899900652 -7.36264994062258 -1.40807581356014 2.98720309038727 -1.40807581356014 -3.92674663499871
-7.69385627025622 0.673771570178688 0.24322874110185 0.673771570178688 -5.04070597938662 -3.47789142449082 0.24322874110185 -3.47789142449082 -8.29214305871364
0.249635670878964 -0.292502402242019 0.743863867770651 -0.292502402242019 -7.58993302369376 3.35369133605073 0.743863867770651 3.35369133605073 -4.29171628117169
10.0388446182475 -3.8285306398599 5.87770165669865 -3.8285306398599 3.50289619904557 3.47033275496414 5.87770165669865 3.47033275496414 -2.57716400301626
-3.52292045354005 2.68615593357683 -2.11602146404257 2.68615593357683 -14.4178781524509 -4.29160921594694 -2.11602146404257 -4.29160921594694 -4.30295517553966
4.72385063053842 -3.93532908204074 0.371211682831217 -3.93532908204074 1.79297669027627 4.96889886561001 0.371211682831217 4.96889886561001 -1.48727295147409
-0.891360589687616 0.00757530246193441 -1.29285162017014 0.00757530246193441 0.378765123096721 -5.38604005043537 -1.29285162017014 -5.38604005043537 0.45199304689542
-7.59915268949604 -0.403907263905071 -1.64152054689625 -0.403907263905071 -4.14781690240977 -1.55090032743037 -1.64152054689625 -1.55090032743037 -5.67800403681936
-1.11328680367922 0.515731971414871 -5.11516854340807 0.515731971414871 -4.14321213574158 2.34558867768494 -5.11516854340807 2.34558867768494 -5.59866726660951
-6.44159139854801 1.8007239801436 -0.828726324715074 1.8007239801436 -7.18323122812354 -5.48925843557035 -0.828726324715074 -5.48925843557035 -6.80117434622099
-1.15004306371664 1.53682884747784 2.83642908091547 1.53682884747784 10.8377376609888 -0.435778649704286 2.83642908091547 -0.435778649704286 1.97518606907387
-2.80782045075264 0.484374930157513 -2.13435798101492 0.484374930157513 0.124331532874656 0.484374930157513 -2.13435798101492 0.484374930157513 -4.53033022912027
1.83866766407381 -1.02058205142423 4.40362255521935 -1.02058205142423 -2.72695204216526 -1.13128010462104 4.40362255521935 -1.13128010462104 2.98884743631381
-2.59764704226047 2.39529868453814 1.44426140324316 2.39529868453814 3.41209918209287 -3.56638980485615 1.44426140324316 -3.56638980485615 -6.01227557882487
-2.31124228473076 2.53629760567281 -2.55399858597163 2.53629760567281 -7.11579408012293 -9.46243832545132 -2.55399858597163 -9.46243832545132 1.65377730220341
4.85122432464345 -1.90601917039283 -0.26613299586602 -1.90601917039283 -6.16668170420977 -5.34547131696606 -0.26613299586602 -5.34547131696606 -3.21387275007727
-5.11351601667311 1.41488388088455 -1.52755457277735 1.41488388088455 3.2631165767414 1.01186948296031 -1.52755457277735 1.01186948296031 -3.97380863329597
1.97608808398361 -3.40901059514449 -4.79796255993402 -3.40901059514449 -1.94763655397861 2.84515300049996 -4.79796255993402 2.84515300049996 -1.69674578938906
-5.94228206278917 1.48935701658692 -1.93363978763658 1.48935701658692 5.13449520633524 0.719435169029275 -1.93363978763658 0.719435169029275 -3.06959005452491
-7.84942407986235 3.03511064421344 -0.806157067661538 3.03511064421344 -3.3745451990183 -4.98685933434137 -0.806157067661538 -4.98685933434137 -0.763727748310931
-8.30474189278596 -0.358915041908968 1.70346600659872 -0.358915041908968 5.26776846124854 -0.140805131825826 1.70346600659872 -0.140805131825826 -6.23131730452723
2.18385034962807 1.16602509064649 2.11953721513198 1.16602509064649 -7.05766745513604 -5.11429230405857 2.11953721513198 -5.11429230405857 -0.215309189399951
-1.7426815294595 2.68321700197662 1.1686217315199 2.68321700197662 8.93636837239012 -0.479237420601363 1.1686217315199 -0.479237420601363 2.15784977618368
3.66394912158239 -3.07298958584329 3.83138765670847 -3.07298958584329 -0.251157802689115 -0.209298168907596 3.83138765670847 -0.209298168907596 -0.0911062617597772
0.755521893457403 -3.2979948864574 -1.67865103290365 -3.2979948864574 -6.8538470744361 0.871557679141987 -1.67865103290365 0.871557679141987 -4.86576727970689
-6.65278533915803 0.930582937888292 -3.85347081055098 0.930582937888292 4.81936041816945 -0.683436249777038 -3.85347081055098 -0.683436249777038 -3.42474696382737
-1.98204698706336 -0.688585806132367 0.0297037014410041 -0.688585806132367 5.77601976202797 -1.26915815247927 0.0297037014410041 -1.26915815247927 -1.42847800566283
5.81198044654429 -4.35413393219824 0.13826497723415 -4.35413393219824 2.07397465851226 4.24255166986893 0.13826497723415 4.24255166986893 -0.953300632509142
-2.29091906095051 -1.51066044715561 -4.87599312646268 -1.51066044715561 4.70149439494305 0.605759882275271 -4.87599312646268 0.605759882275271 3.60963090343454
-0.402212007548974 -0.210682480144701 1.65809848009985 -0.210682480144701 -7.1112177389101 -1.74291869937889 1.65809848009985 -1.74291869937889 -1.60611189409012
2.87292871862133 -1.75061176769607 1.68727559665062 -1.75061176769607 -8.20836776748952 1.59353806350337 1.68727559665062 1.59353806350337 -5.21383360046094
5.26969911942932 -4.10287105158088 1.39924504071256 -4.10287105158088 4.53213097085033 1.29726616486401 1.39924504071256 1.29726616486401 -2.68939640028481
-0.161303967455821 2.26570034287945 6.33800512126409 2.26570034287945 3.50153689354097 3.74721524397368 6.33800512126409 3.74721524397368 -2.31781393236518
-7.94332648459527 0.48330347600089 -3.32855781052226 0.48330347600089 -7.68868271767007 -0.587239707398931 -3.32855781052226 -0.587239707398931 -4.49004519639537
-7.81993417638565 0.398198164994719 -1.18824026894701 0.398198164994719 2.64971225749146 -3.44187243678946 -1.18824026894701 -3.44187243678946 -10.1074555497596
3.44009675565477 -0.689481148619192 -2.67508940347658 -0.689481148619192 -8.15195732607709 6.95815604401559 -2.67508940347658 6.95815604401559 2.41683851388777
0.0622334492998739 -2.51174201374291 2.07859720661579 -2.51174201374291 -9.35244276078504 -0.751780067542476 2.07859720661579 -0.751780067542476 -7.22405879472936
2.70905008926716 2.15097455327941 1.25356665621369 2.15097455327941 -7.60833632731036 -5.99580651227039 1.25356665621369 -5.99580651227039 -1.39939543948687
4.48183934828267 -3.30591120244613 3.59927692436342 -3.30591120244613 -1.30165631237252 -0.596592476504074 3.59927692436342 -0.596592476504074 -0.184894362552915
-5.8934764947982 2.38365116156362 -1.80288869635215 2.38365116156362 6.20153310677993 0.636313657536052 -1.80288869635215 0.636313657536052 -0.89639423978293
-6.02835444994655 1.61816382010709 -2.00187817370503 1.61816382010709 5.23820581391921 0.941614828237044 -2.00187817370503 0.941614828237044 -2.8576621596899
7.69700760609176 3.47321949337984 6.38473894157325 3.47321949337984 4.00548547506305 3.23529414672882 6.38473894157325 3.23529414672882 12.8700442667825
-8.00567723812838 2.83269102699417 -0.727274319617884 2.83269102699417 -3.04776047559712 -4.48532994783792 -0.727274319617884 -4.48532994783792 -0.339583339899401
-1.27720786175137 4.54720209708355 -1.75045898909674 4.54720209708355 -6.18362466995249 -3.45815432210806 -1.75045898909674 -3.45815432210806 -1.53378979826392
1.15644057212297 -3.31185994203967 -2.77752244554535 -3.31185994203967 -5.23754000186944 1.32939038982886 -2.77752244554535 1.32939038982886 -3.77650124333908
-4.25928511339316 0.645425412888411 -5.31234762915846 0.645425412888411 -3.10431332190864 -3.07818273839089 -5.31234762915846 -3.07818273839089 -10.3633894231394
-1.03356017027208 0.59796997382325 1.9846417234651 0.59796997382325 -3.56204527510229 -0.515491356744182 1.9846417234651 -0.515491356744182 -4.0801140886302
3.19151746681136 2.68097332799378 7.61869973336962 2.68097332799378 3.25071099015253 3.09779438818784 7.61869973336962 3.09779438818784 3.71685998646423
-8.10693082109415 -0.670829099892455 -1.78197073639386 -0.670829099892455 -5.89759791681514 -0.709680206063833 -1.78197073639386 -0.709680206063833 -5.00920262236297
-3.40057926939387 2.04393791682271 1.44127115339318 2.04393791682271 -10.5376924720508 -1.95417903716299 1.44127115339318 -1.95417903716299 -4.54949292903825
-2.35175860674998 4.25597042409421 -1.29132927134272 4.25597042409421 -6.13167607650813 -2.85061649303028 -1.29132927134272 -2.85061649303028 -1.26567372290544
11.5205609063772 0.742252323096687 3.51675573563581 0.742252323096687 -1.56051843831773 4.3752644466874 3.51675573563581 4.3752644466874 0.236984175446533
8.85498070376037 -2.4309127817976 4.65943899897406 -2.4309127817976 -6.1011590211066 3.51106579522497 4.65943899897406 3.51106579522497 -1.78509498008523
-1.60287760753724 2.16542599864406 1.86231773311618 2.16542599864406 10.0899090423177 -0.4777808253236 1.86231773311618 -0.4777808253236 2.28872427614692
-10.6599090121987 0.826807347206548 -0.314271160035142 0.826807347206548 2.21677173957674 -3.89991526781864 -0.314271160035142 -3.89991526781864 -7.92849188303422
-6.14967684404249 0.0724099880711479 -1.05770304003927 0.0724099880711479 -1.86972933483714 -2.64555063559944 -1.05770304003927 -2.64555063559944 -5.2988594842065
-4.03978300174432 1.92703440271047 0.137787952110904 1.92703440271047 -3.40276333908667 0.131797171584343 0.137787952110904 0.131797171584343 2.49216469904939
3.07486046291208 -0.533170579079767 -2.15459343600728 -0.533170579079767 -7.93669446484037 6.54168651135769 -2.15459343600728 6.54168651135769 0.486913770849102
-7.78597349533862 1.11593274386144 -0.261236163957386 1.11593274386144 -4.66249762193509 -0.931363714978508 -0.261236163957386 -0.931363714978508 0.522472327914773
2.72543117014131 -4.14895033774793 -0.283750051834485 -4.14895033774793 3.84850910639377 1.26137628084406 -0.283750051834485 1.26137628084406 -1.79072511703948
-6.01710980633728 1.3257556358171 -0.529164266656612 1.3257556358171 -8.52352765001725 -0.80512627668721 -0.529164266656612 -0.80512627668721 -1.12091785517583
-5.95227484073396 2.92855382789018 -2.5240932918374 2.92855382789018 4.23493973043499 0.374180068113 -2.5240932918374 0.374180068113 -4.36687605502975
-12.8126225089653 1.82321425433198 0.532553991815183 1.82321425433198 3.75502775405372 -4.10797530157045 0.532553991815183 -4.10797530157045 -2.85699553256145
-6.31664006265844 0.932554528010749 -4.1501252613959 0.932554528010749 -6.63350251278364 0.100468581747014 -4.1501252613959 0.100468581747014 -4.853405333625
-1.63908650089322 0.859158634154001 -4.0011537544463 0.859158634154001 -4.41463932189217 3.1840864654814 -4.0011537544463 3.1840864654814 -5.88040851906557
8.22893783971011 -3.96890987787905 -0.701109385517754 -3.96890987787905 1.12323060724817 2.09605020445446 -0.701109385517754 2.09605020445446 -0.451233030125613
-4.48612202923739 -0.537934320293385 -2.27683828589293 -0.537934320293385 5.86723712133948 1.03083227888779 -2.27683828589293 1.03083227888779 1.86150295022455
-3.55287883320735 0.956646507071538 1.89734890569188 0.956646507071538 -3.47050093954286 -0.231189572542288 1.89734890569188 -0.231189572542288 -2.51119708106279
0.340195847276715 -0.214197385322376 0.509033786295529 -0.214197385322376 -7.56746762497759 3.46243773450523 0.509033786295529 3.46243773450523 -3.8883125359109
-5.24586839233948 0.629403903669794 -1.66252903638675 0.629403903669794 5.41136902039608 1.08076925291507 -1.66252903638675 1.08076925291507 0.265804038999993
-3.67825046945037 2.647307242495 -4.93303105674678 2.647307242495 5.27739622650222 -0.492872649212483 -4.93303105674678 -0.492872649212483 -8.21741386328935
-5.87752904476785 0.910120072012975 0.994537006228671 0.910120072012975 -3.89109306150475 -1.32692868470297 0.994537006228671 -1.32692868470297 -2.08931912183848
-2.39015070453835 0.00204286385003278 -1.09906075131764 0.00204286385003278 10.5656918323695 -2.68228023509304 -1.09906075131764 -2.68228023509304 -4.53107201937271
-1.82224674789113 3.45818535489143 0.00510433262714602 3.45818535489143 6.13030348520237 -0.319020789196626 0.00510433262714602 -0.319020789196626 1.48280862818592
-2.48515106581188 1.30451469985649 -3.42814328101822 1.30451469985649 -0.27303796043508 1.89104068893926 -3.42814328101822 1.89104068893926 -3.1020146060541
3.57334771165324 5.06373896827243 -5.02269549132595 5.06373896827243 -7.53917367160723 -3.43995641157717 -5.02269549132595 -3.43995641157717 5.2202172241309
3.47242481900782 -0.36598255235257 1.49038677945986 -0.36598255235257 -3.40407867971306 3.3445513971015 1.49038677945986 3.3445513971015 4.38958591406004
0.0248596075382203 1.72277080239867 3.27898223429126 1.72277080239867 3.64690442585692 2.80167776955743 3.27898223429126 2.80167776955743 3.62950270058016
-8.51917469522471 -0.646822506923451 2.32414174071563 -0.646822506923451 0.295288535769402 -0.554419291648673 2.32414174071563 -0.554419291648673 6.82779410258637
-4.53455945891431 1.19386241446022 1.80535291942765 1.19386241446022 -2.9039181123345 -0.817967818333054 1.80535291942765 -0.817967818333054 -2.3374290731006
-0.682372877875413 -1.33214832527907 -1.15177587666869 -1.33214832527907 3.9442890870824 1.5233865840467 -1.15177587666869 1.5233865840467 -3.71393391174866
2.66119683775628 2.40293722902888 0.892679951905587 2.40293722902888 -7.95271164700795 -6.17577325217702 0.892679951905587 -6.17577325217702 -1.80220292177166
0.787561244883196 1.21046390692658 -1.53713722072058 1.21046390692658 -7.24505698267146 -8.20481811389567 -1.53713722072058 -8.20481811389567 -1.17247863788077
-5.45223598034916 2.64644022010685 -1.36875026437784 2.64644022010685 -12.4325777652116 -1.67607880606767 -1.36875026437784 -1.67607880606767 -2.93669495392502
5.26888884683943 3.21796155271922 2.82895013318622 3.21796155271922 5.39938001921442 4.78877981640312 2.82895013318622 4.78877981640312 11.6383353172944
3.09219650572996 -1.95904486162878 -2.03967295938213 -1.95904486162878 3.58686078113567 0.882550799732653 -2.03967295938213 0.882550799732653 -1.99173192828554
10.4022424679235 0.839752764541151 3.57061984498532 0.839752764541151 -0.592504603098001 4.71330729381718 3.57061984498532 4.71330729381718 1.0847734650704
3.12285993744043 -0.814550144195938 -1.19049636459406 -0.814550144195938 -6.95249876922933 3.80708205856501 -1.19049636459406 3.80708205856501 1.804541857911
-0.634901349198367 0.182893392773192 -4.6690070412242 0.182893392773192 -5.76636739786336 -2.08759744036829 -4.6690070412242 -2.08759744036829 -8.18056018246949
-2.41764315164322 -4.4637327241918 2.11225664827776 -4.4637327241918 0.442810429879917 2.81210071849027 2.11225664827776 2.81210071849027 -1.24953977627034
-9.58984598160478 -0.204594078670506 2.62562400960482 -0.204594078670506 -1.66683999387441 -0.605758938808752 2.62562400960482 -0.605758938808752 8.8757725305587
2.74415335607923 -2.2293210450272 0.359411236017457 -2.2293210450272 0.0437121773534745 5.75057977627931 0.359411236017457 5.75057977627931 -3.04528168895872
-7.29022083362309 -1.03137333827459 -3.11933696685983 -1.03137333827459 11.1206758478996 3.97419164088204 -3.11933696685983 3.97419164088204 7.63064968610981
-2.02679422926454 3.45762361545003 -7.12588997716075 3.45762361545003 -7.23891779222747 -2.52257532717082 -7.12588997716075 -2.52257532717082 -2.67413535191937
0.0241851678503784 -0.967406714015135 -0.0564320583175495 -0.967406714015135 2.84041360198333 -1.45917179363949 -0.0564320583175495 -1.45917179363949 -1.74133208522724
-4.27889500608047 1.77188602726115 -1.10468204405345 1.77188602726115 -2.95647273996223 0.0799046686476278 -1.10468204405345 0.0799046686476278 -0.291652040563841
8.85022705718912 -2.94683917921766 -0.810744881267462 -2.94683917921766 -0.932113875469178 1.0680471489751 -0.810744881267462 1.0680471489751 -0.466056937734589
-4.04356059868428 0.700816612490168 5.07713905595395 0.700816612490168 -2.16043106800027 -1.06635045713432 5.07713905595395 -1.06635045713432 -3.74861259990244
3.31924093845821 0.018982587066346 4.39311300678293 0.018982587066346 -2.89891222484627 -1.76266879901784 4.39311300678293 -1.76266879901784 0.9491293533173
-2.29075514849755 2.24482021526699 -1.08446385844304 2.24482021526699 -1.96122193184358 0.287592625443458 -1.08446385844304 0.287592625443458 0.365482294834395
-1.5709750588816 -0.600425022504485 1.11860004192616 -0.600425022504485 -8.06050030211501 -1.6532250619644 1.11860004192616 -1.6532250619644 -1.61758339396186
-7.01827295169579 -0.147507949205996 -1.37674085925596 -0.147507949205996 -2.91134110274991 -2.12204418155994 -1.37674085925596 -2.12204418155994 -5.70364070263183
-1.63897775408108 0.184569566901023 -0.629997455022157 0.184569566901023 -4.91447233468456 5.6847426605515 -0.629997455022157 5.6847426605515 -1.08772998093669
-1.75316015471345 0.433925841991665 -2.86790067982997 0.433925841991665 3.79809803076612 3.01753028051675 -2.86790067982997 3.01753028051675 -0.468839415485247
-2.06650828224344 -0.804099504246118 0.91936291441109 -0.804099504246118 -8.42520640967775 -1.59722154085748 0.91936291441109 -1.59722154085748 -1.55605603722713
-0.241046713193932 -0.492033497035035 -6.94810938237353 -0.492033497035035 -1.77430261052028 0.864786146304002 -6.94810938237353 0.864786146304002 -1.64259667444524
-1.92072876476216 3.61474020848476 -0.379560458819048 3.61474020848476 4.91900165086968 -0.168127451557431 -0.379560458819048 -0.168127451557431 1.05207026504877
-1.10502297232123 -2.04335148166456 3.01663205582584 -2.04335148166456 -4.25877466704824 0.131742398159952 3.01663205582584 0.131742398159952 3.33926650029919
-8.18736803109142 1.57678442164421 -0.380016389389072 1.57678442164421 -3.08267026317852 -1.88873817412777 -0.380016389389072 -1.88873817412777 0.822423529274857
-10.384109879654 0.334389963344046 2.76322245158553 0.334389963344046 -4.16085235825706 -0.700817288445606 2.76322245158553 -0.700817288445606 10.2739814486126
2.73732568536054 5.10779328917792 -7.03443957756196 5.10779328917792 -7.4782608929953 -3.05030950318059 -7.03443957756196 -3.05030950318059 3.80198375417463
2.85773053330026 -3.11705272325492 -5.77769839218965 -3.11705272325492 -1.46257715134424 4.38254501023362 -5.77769839218965 4.38254501023362 -1.0424752036177
-0.198574776756598 -0.914424589261863 -0.269669449916367 -0.914424589261863 -5.10655876523448 6.50393682389202 -0.269669449916367 6.50393682389202 2.68443679689475
3.20664911614718 -2.94824684661882 3.9621681327682 -2.94824684661882 0.0467585059146558 0.0147658439730492 3.9621681327682 0.0147658439730492 -0.0861340898427869
-4.66324005855822 0.653114854139806 -5.30851753444835 0.653114854139806 -2.47661152689815 -3.01477816670935 -5.30851753444835 -3.01477816670935 -10.4367753691541
-0.517310091559164 -0.895344389237015 -6.94886728757839 -0.895344389237015 0.370573094434209 0.504874752819761 -6.94886728757839 0.504874752819761 0.778452205086626
3.99627621697724 -1.23157275932209 -0.562570272776758 -1.23157275932209 -6.21107990349475 -6.37579642480326 -0.562570272776758 -6.37579642480326 -2.58985053503534
1.09123220530269 -4.08254855755788 -1.30900003574687 -4.08254855755788 3.42445896006174 1.46454848606414 -1.30900003574687 1.46454848606414 -1.18456127549305
3.03912635073198 -1.96649352106187 -2.18232817581256 -1.96649352106187 3.06310797903761 0.782673141974735 -2.18232817581256 0.782673141974735 -1.661272797172
-2.66872693028377 -1.50645894008542 -4.37471685581096 -1.50645894008542 5.15787597366993 0.690876037092152 -4.37471685581096 0.690876037092152 3.60901669917814
-0.570102596768587 -1.04287060384498 2.39721189470499 -1.04287060384498 -7.48085846491463 -2.57797613270478 2.39721189470499 -2.57797613270478 1.15967211147561
-8.89157516975279 0.351666793230672 -0.829214313583687 0.351666793230672 -5.35692427642859 -0.657377130527791 -0.829214313583687 -0.657377130527791 -0.44357970509778
0.851945003240931 0.101031939486905 2.32646520115793 0.101031939486905 -5.99638213819579 -1.80492194596877 2.32646520115793 -1.80492194596877 -1.40898596689846
-1.15996209617141 -2.13782261595463 0.992827772637038 -2.13782261595463 -9.78109973997444 3.41253365067203 0.992827772637038 3.41253365067203 0.157156154965159
-10.295541674153 0.709968394390891 2.61188372697043 0.709968394390891 -5.76574332684208 -0.681969640809279 2.61188372697043 -0.681969640809279 9.40158147051149
2.44829339935154 -1.68959697386442 -0.960849091488628 -1.68959697386442 -7.94385106028131 3.7136193458054 -0.960849091488628 3.7136193458054 4.46732434744063
-4.83497424405807 1.1452646869131 1.66367549207469 1.1452646869131 -3.04698595686811 -0.960117970783961 1.66367549207469 -0.960117970783961 -2.25085507751281
-1.05183546565455 1.20859940524729 1.2743391218507 1.20859940524729 3.70670863617685 -4.21239876389538 1.2743391218507 -4.21239876389538 -4.60178016223865
-1.67867016412776 2.4362109728271 2.71556987570293 2.4362109728271 -1.59058402358133 5.06872820172911 2.71556987570293 5.06872820172911 -4.70631665205235
2.3878413954697 2.35814803096645 2.63033720557958 2.35814803096645 4.93652184866534 4.21645775946152 2.63033720557958 4.21645775946152 7.50252343115454
1.45380515066869 0.731968098507408 -1.32716707134215 0.731968098507408 -7.02081511786344 -7.90728167314923 -1.32716707134215 -7.90728167314923 -1.46900172018788
2.95360076271561 -1.93857277198886 -1.89065299560262 -1.93857277198886 3.98605412667372 0.993246274187551 -1.89065299560262 0.993246274187551 -2.30668378150135
-0.957109034791878 0.490101409236591 4.79067712588857 0.490101409236591 -5.90944264644958 -1.5857731461163 4.79067712588857 -1.5857731461163 -4.60592685643812
3.84591117708563 4.62330349640314 -3.55599258935335 4.62330349640314 -7.36855030059368 -3.54059868204014 -3.55599258935335 -3.54059868204014 5.77271524245675
-3.42221964795755 3.04968072231653 -5.0973601963572 3.04968072231653 -7.65117876247567 -2.87754204633068 -5.0973601963572 -2.87754204633068 -4.50129791533156
-5.39804320629867 1.04397302362634 -1.55090223221412 1.04397302362634 5.18724096114335 1.06906852900197 -1.55090223221412 1.06906852900197 -0.215821346230444
2.86172133176592 -0.606587085707648 3.63952251424589 -0.606587085707648 -5.52532349440959 0.848732736857073 3.63952251424589 0.848732736857073 -3.3019861520376
-2.97424249370248 2.2933574783817 -1.53555239856862 2.2933574783817 -10.9084047015199 -1.69793920138571 -1.53555239856862 -1.69793920138571 -2.58679327996346
2.64196217142804 1.85749832413233 1.58573763417632 1.85749832413233 -7.34874525520227 -5.75740430783098 1.58573763417632 -5.75740430783098 -0.994588092107055
-8.51158396818369 -0.31524385067347 1.67300464611798 -0.31524385067347 3.96543580583997 -0.373315086323846 1.67300464611798 -0.373315086323846 -6.74455922625082
-3.25388892561476 -0.495804890414239 0.243838470695527 -0.495804890414239 7.77844721518733 -0.983481831805294 0.243838470695527 -0.983481831805294 -1.46844945685529
2.99423915910383 -2.95791390067449 -5.70047091208934 -2.95791390067449 -1.92264403543842 4.4005455925824 -5.70047091208934 4.4005455925824 -1.23246412528104
0.835706139146778 -1.45035452535796 4.03565190420235 -1.45035452535796 -3.07593775731121 -0.711698131402418 4.03565190420235 -0.711698131402418 3.4290909967571
5.77529598714264 -0.224472847831484 2.705873785273 -0.224472847831484 -7.40516405617994 -0.380627872409908 2.705873785273 -0.380627872409908 -3.41101131813495
-5.21615078581479 0.618732600719772 -5.22920421620972 0.618732600719772 -1.17741942162286 -2.67073185880307 -5.22920421620972 -2.67073185880307 -10.2573856043375
1.60993068761174 1.17869925343002 3.57530061794296 1.17869925343002 4.90558425429747 -0.35282571887595 3.57530061794296 -0.35282571887595 -1.78765030897148
-0.256770086805151 3.95939473853543 -8.28083529946613 3.95939473853543 -7.127937609711 -2.31349848211441 -8.28083529946613 -2.31349848211441 -0.308124104166182
-2.05822278442274 -4.562224018442 2.28748027278666 -4.562224018442 -0.652110189124038 2.54475812083951 2.28748027278666 2.54475812083951 -2.05822278442274
1.32763758151576 -1.18066663153246 4.14213127369584 -1.18066663153246 -3.66692520208319 1.68526689314177 4.14213127369584 1.68526689314177 -2.09923506892805
-3.01761199304351 2.66096212630492 1.44936435206532 2.66096212630492 3.36414413306611 -3.40461503993006 1.44936435206532 -3.40461503993006 -6.10351864141994
7.95245667611729 -0.727596250354673 1.00500752975411 -0.727596250354673 -6.47049642037817 -0.209275175687297 1.00500752975411 -0.209275175687297 -1.21184927316598
-1.48654187527138 1.92376007388061 2.20666596709835 1.92376007388061 10.4932367666215 -0.465508787931004 2.20666596709835 -0.465508787931004 2.26067527398537
-5.40622016171664 3.01636769770545 -0.270311008085832 3.01636769770545 5.96199980450994 -1.23029402745608 -0.270311008085832 -1.23029402745608 -0.651777944730324
2.72614507202026 -0.644543959070109 -1.00568921240122 -0.644543959070109 -7.07995173717866 3.8246285509024 -1.00568921240122 3.8246285509024 1.00067330610495
-7.33188097085981 -0.390081340525325 1.55208420701978 -0.390081340525325 8.60101885341404 0.197787721956503 1.55208420701978 0.197787721956503 -4.51065888128581
-5.98910610442481 2.25475200305707 -1.96691132181574 2.25475200305707 6.0673785703764 0.898870899315023 -1.96691132181574 0.898870899315023 -1.22458535440389
-0.934715962995533 1.41240229767557 3.10108804297689 1.41240229767557 10.7492335744486 -0.420880392177546 3.10108804297689 -0.420880392177546 1.71192453996143
-1.47643068316579 0.76298766848165 -4.38470186107961 0.76298766848165 -4.34011167266185 2.89340778177457 -4.38470186107961 2.89340778177457 -5.89333656921378
4.61408709828055 3.02676226318831 2.61760710383223 3.02676226318831 5.41760867629308 4.80880551749217 2.61760710383223 4.80880551749217 10.8056398711869
-5.70730538087253 0.888139475714911 -2.6114328334231 0.888139475714911 4.87719774590035 -0.759460176676671 -2.6114328334231 -0.759460176676671 -3.74431528966173
-2.54868003601317 3.60216829791104 -0.807251246466322 3.60216829791104 3.45239526790628 0.167542711530746 -0.807251246466322 0.167542711530746 0.0431549408488286
7.64599720471717 3.37777932335436 6.88066158461073 3.37777932335436 3.79478911636107 3.05398348407856 6.88066158461073 3.05398348407856 12.414626837688
-0.247584159105962 0.111160234700636 0.0757910691140701 0.111160234700636 2.6324764672287 -4.65104527463343 0.0757910691140701 -4.65104527463343 -1.94277773829066
1.29649203429445 -1.05273010222669 0.0776823739556592 -1.05273010222669 1.29917073684465 -1.45721418730616 0.0776823739556592 -1.45721418730616 -2.07331577385104
-6.47142049097113 -0.353135889735734 1.27293169555904 -0.353135889735734 9.90422983770454 0.104024525658588 1.27293169555904 0.104024525658588 -3.38900954645612
-3.20423970344581 -1.0288843084459 1.21060932915843 -1.0288843084459 -6.40580698011643 0.451640125006123 1.21060932915843 0.451640125006123 -0.505088660509806
1.73528060446405 -0.503622791972274 -4.03420122481418 -0.503622791972274 -6.26005739866055 -0.430558345468525 -4.03420122481418 -0.430558345468525 -5.97040905716354