5.2031800151 0.0000002084 2.4734647830 2.8787385991 4.6358403824 4.9248424586 2.2190923106 1.5766974985 2.4242512479 7.5276215315 1.5828907629 0.0220883445 8.1872681408 4.6420333091 2.5226780004 1.1280969393 4.6712132109 2.2018400815 4.0782191489 1.5799026012 4.6764791365 9.2782642325 1.5475175090 2.7450874784 6.3281391945 4.6388276237 0.2704590784 1.3723503728 4.6745843368 3.7227349498 3.8622750382 1.5306321968 1.2582912795 9.0340098180 1.5441462169 1.2241965647 6.5440858168 4.6880985650 3.6886332188 4.8079984487 4.6951953324 0.6073625982 0.3883153489 1.5448232973 3.0465494129 5.5983631469 1.5235350725 4.3395667919 10.0180436587 4.6739073270 1.9003806496 1.8793554373 5.8688758314 1.4935508782 3.3650576091 0.3710560125 3.9343232688 8.5469979515 2.7669852701 3.4448954701 7.0521816394 3.4195325069 0.9470996211 8.5270039927 0.3498539500 3.4533794861 7.0413021233 5.8476736539 1.0126060301 1.8593615194 3.4517459535 1.5020347501 3.3541779660 2.7991993709 3.9998294208