0 0 0 -0.0725559794822366 0.00651671470370721 -0.0468166790408206 -0.0294463150629756 0.00244666050345135 0.00490926183826188 0.0725559794822366 -0.00651671470370721 0.0468166790408206 0.0294463150629756 -0.00244666050345135 -0.00490926183826188 0.045064987362593 2.64823488709005e-05 -0.0481863049867943 0.0185098763098434 -0.00419963773259503 -0.0116684314447386 -0.045064987362593 -2.64823488709005e-05 0.0481863049867943 -0.0185098763098434 0.00419963773259503 0.0116684314447386 0.0149522427047303 -0.000698311257605492 0.0235934588523234 -0.0101391400749899 -0.00166555976685139 0.0161143807328513 -0.0149522427047303 0.000698311257605492 -0.0235934588523234 0.0101391400749899 0.00166555976685139 -0.0161143807328513 0.0195378028223274 0.000764645684874349 0.0208894310554762 0.025475762503623 -0.00150872255509169 -0.0110148573590121 -0.0195378028223274 -0.000764645684874349 -0.0208894310554762 -0.025475762503623 0.00150872255509169 0.0110148573590121 0.0119250274075848 -0.0217330095665968 0.0136561502711554 0.00295522444584592 -0.0137481957167455 0.00320205022173004 -0.0142472465823612 -0.0203199319996602 -0.0202641390899031 -0.00430556712807863 -0.0107780588802733 -0.00257701536634015 -0.0119250274075848 0.0217330095665968 -0.0136561502711554 -0.00295522444584592 0.0137481957167455 -0.00320205022173004 0.0142472465823612 0.0203199319996602 0.0202641390899031 0.00430556712807863 0.0107780588802733 0.00257701536634015