10.106931947 0.040037191 -0.099561328 0.023925822 6.109993764 -0.037718638 -0.047329016 -0.030004717 4.995652124
10.082723783 0.029008239 -0.141749279 0.017335031 6.163044858 -0.055025548 -0.067384133 -0.043772152 4.986433604
9.971410385 0.044442097 0.011070348 0.026558149 6.217371320 0.034513202 0.005262572 0.027454831 5.012786830
9.963791678 0.039122137 -0.130078506 0.023378995 6.143300493 -0.030558059 -0.061836134 -0.024308563 5.019273376
10.110816991 0.045273169 -0.132907223 0.027054790 6.110494225 -0.032070558 -0.063180837 -0.025511738 4.980401542
10.397228222 0.000862570 -0.002102142 0.000515463 6.208415889 -0.000458943 -0.000999307 -0.000365083 4.946973771
10.024511149 0.059678156 -0.117993758 0.035663065 6.051949312 -0.107476032 -0.056091341 -0.085495873 5.018799248
9.990901693 0.030478402 -0.125393008 0.018213586 6.131357677 -0.024887133 -0.059608763 -0.019797411 5.015923709
9.944061104 0.062369062 -0.083121313 0.037271123 6.067238325 -0.094442930 -0.039513835 -0.075128199 5.078852179
9.969312554 0.042034731 0.013515844 0.025119532 6.211814360 0.023905511 0.006425101 0.019016542 5.012145590
10.040364328 0.067864956 -0.023912900 0.040555414 6.157988661 -0.053713210 -0.011367607 -0.042728204 4.985193780
9.977515785 0.044691094 0.008397590 0.026706947 6.197073629 0.005181516 0.003992008 0.004121833 5.008129241
10.082316001 0.022157686 -0.031566391 0.013241210 5.998814590 -0.047876754 -0.015005889 -0.038085374 5.066992557
10.196774626 0.039120421 -0.114128002 0.023377969 6.037113211 -0.058778456 -0.054253655 -0.046757545 4.936151835
9.838112458 0.115324297 -0.129836966 0.068916638 6.200221023 -0.100745077 -0.061721312 -0.080141480 5.071623171
9.856513082 0.100322591 -0.115660972 0.059951769 6.152761100 -0.109056536 -0.054982392 -0.086753144 5.067736275
9.970590980 0.042330279 0.013047297 0.025296148 6.208245047 0.019104831 0.006202365 0.015197660 5.011147800
10.227092308 0.097798714 -0.130565885 0.058443526 6.082719941 -0.083435556 -0.062067822 -0.066371967 4.984908523
10.019907621 0.039886923 -0.143306063 0.023836023 6.084716919 -0.103864680 -0.068124191 -0.082623086 4.995166827
10.083773794 0.029166743 -0.140389278 0.017429752 6.162108330 -0.054054709 -0.066737622 -0.042999862 4.987093358
10.059134141 0.064732771 -0.078063357 0.038683652 6.203354925 -0.004419864 -0.037109407 -0.003515948 5.032270850
9.971560200 0.042643499 0.012511531 0.025483325 6.206189449 0.016522348 0.005947675 0.013143326 5.010554079
9.968971083 0.042153143 0.013388501 0.025190294 6.213921748 0.027139259 0.006364565 0.021588950 5.012622311
9.859945188 0.098374569 -0.114050746 0.058787651 6.147881505 -0.109269742 -0.054216930 -0.086922747 5.068314199
10.057720460 0.064969272 -0.076076528 0.038824982 6.204513883 -0.003307000 -0.036164917 -0.002630678 5.032871027
9.867719171 0.089949147 -0.139372432 0.053752704 6.206497768 -0.078901759 -0.066254239 -0.062765387 5.069167590
10.227173915 0.060667266 -0.115359483 0.036254147 6.035727798 -0.066188915 -0.054839071 -0.052652475 4.943471562
9.865701464 0.095408295 -0.111727648 0.057015036 6.140693078 -0.109253196 -0.053112586 -0.086909585 5.069509335
10.237984757 0.079544390 -0.123993747 0.047534926 6.053311090 -0.072552990 -0.058943589 -0.057715019 4.959734943
10.006679357 0.059306482 -0.018536300 0.035440956 6.218208163 0.031309182 -0.008811703 0.024906073 5.029261253
9.993717436 0.029690524 -0.125014819 0.017742758 6.130352274 -0.024415806 -0.059428981 -0.019422476 5.015985029
10.029777229 0.021788328 -0.121046573 0.013020485 6.120309235 -0.019223543 -0.057542574 -0.015292094 5.017849292
10.000978156 0.043118420 -0.060554795 0.025767133 6.028735264 -0.075842865 -0.028786265 -0.060332074 5.083504757
10.183033962 0.014497149 -0.018074140 0.008663350 6.017443536 -0.019779168 -0.008592003 -0.015734087 5.027455803
10.187372581 0.104670347 -0.107793011 0.062549944 6.110960594 -0.090101874 -0.051242156 -0.071674942 5.004629488
10.232047823 0.093882447 -0.131484700 0.056103204 6.073667536 -0.080603414 -0.062504604 -0.064119033 4.978149281
10.093069835 0.031399707 -0.127550678 0.018764148 6.149552767 -0.046211112 -0.060634466 -0.036760376 4.993218953
10.039669766 0.031997705 -0.046386230 0.019121506 6.011126279 -0.062343180 -0.022050877 -0.049593240 5.078065621
10.120299387 0.018984307 -0.118804179 0.011344830 6.085967874 -0.028331441 -0.056476595 -0.022537316 4.980146731
10.102611214 0.036015386 -0.111443256 0.021522432 6.127556836 -0.040171059 -0.052977393 -0.031955587 4.997682773
10.154300600 0.059377134 -0.127573302 0.035483177 6.025373614 -0.000061418 -0.060645221 -0.000048857 4.940312441
10.186954285 0.106929977 -0.113396654 0.063900276 6.098532956 -0.040068382 -0.053905990 -0.031873909 4.976524153
10.127766115 0.100361618 -0.083932437 0.059975092 6.090442049 -0.102766175 -0.039899424 -0.081749239 5.011196127
10.098206308 0.019731779 -0.027420357 0.011791512 5.997349090 -0.042699500 -0.013034966 -0.033966931 5.062316611
9.847921627 0.106352887 -0.136642032 0.063555413 6.215624153 -0.091651805 -0.064956274 -0.072907893 5.073277842
10.173413699 0.081369362 -0.126085590 0.048625510 6.050422537 -0.004364029 -0.059938000 -0.003471532 4.958979617
9.969672760 0.043072909 0.012422683 0.025739936 6.216309262 0.031703630 0.005905439 0.025219851 5.012849730
10.035320452 0.065979800 -0.021320741 0.039428863 6.160715282 -0.050432086 -0.010135358 -0.040118109 4.986029262
9.837912999 0.115581880 -0.130915396 0.069070567 6.204623804 -0.099568815 -0.062233971 -0.079205778 5.072049814
10.196327008 0.104593718 -0.113156128 0.062504151 6.108349112 -0.089279589 -0.053791650 -0.071020824 5.002725197
10.013496539 0.061092494 -0.025018468 0.036508259 6.217386393 0.027920679 -0.011893167 0.022210559 5.031159417
10.186728173 0.107352007 -0.112620115 0.064152477 6.099409923 -0.041642219 -0.053536843 -0.033125877 4.976699279
10.071246921 0.061876200 -0.094772260 0.036976593 6.188904370 -0.013665423 -0.045052410 -0.010870677 5.023377830
9.857599831 0.098201283 -0.138783865 0.058684097 6.213250988 -0.085399231 -0.065974448 -0.067934046 5.073248642
9.991425006 0.049273198 -0.000414780 0.029445167 6.185200515 -0.012781467 -0.000197176 -0.010167501 5.003669106
9.896237793 0.069312696 -0.138525200 0.041420568 6.181982236 -0.061933568 -0.065851485 -0.049267398 5.047866532
10.184288428 0.097643893 -0.122497586 0.058351006 6.077945626 -0.018850915 -0.058232350 -0.014995673 4.973922835
10.109634074 0.043364997 -0.089235231 0.025914485 6.094461250 -0.034992603 -0.042420242 -0.027836189 4.991732868
10.201460013 0.013753112 -0.017065796 0.008218721 6.026775390 -0.016399444 -0.008112661 -0.013045558 5.018418361
10.145574840 0.099178107 -0.080291720 0.059267837 6.121930568 -0.089850969 -0.038168716 -0.071475350 5.001354730
10.058701819 0.028664412 -0.160830426 0.017129563 6.161164869 -0.076142872 -0.076454843 -0.060570726 4.971167290
10.151756761 0.024595237 -0.118135867 0.014697866 6.063701515 -0.041102279 -0.056158896 -0.032696362 4.953607735
10.102035402 0.049442127 -0.128949811 0.029546117 6.129237111 -0.031293123 -0.061299580 -0.024893297 4.990721137
10.163673321 0.110815066 -0.091572121 0.066221966 6.108773753 -0.084434782 -0.043531142 -0.067166840 4.992151731
10.180669588 0.032759601 -0.116312303 0.019576807 6.042511767 -0.054290496 -0.055292018 -0.043187427 4.938864172
10.023688471 0.036166076 -0.150291611 0.021612482 6.098390268 -0.101357951 -0.071444949 -0.080629014 4.984314717
10.204459685 0.104047841 -0.117902794 0.062177941 6.104980221 -0.088368377 -0.056048099 -0.070295966 4.999968380
9.969401674 0.042815866 0.012683089 0.025586330 6.215936987 0.030880225 0.006029229 0.024564843 5.012849964
9.979861584 0.049495998 0.005212492 0.029578310 6.218436417 0.037957439 0.002477891 0.030194680 5.014807003
10.379456084 0.003095610 -0.006067108 0.001849905 6.188372490 -0.000925769 -0.002884154 -0.000736438 4.948376284
10.195057020 0.038330127 -0.114370393 0.022905698 6.037513660 -0.058386445 -0.054368882 -0.046445705 4.936343145
10.204905031 0.043359401 -0.113159649 0.025911141 6.035570916 -0.060496014 -0.053793324 -0.048123842 4.935676117
10.093792340 0.089661701 -0.087920206 0.053580929 6.072526720 -0.106785902 -0.041795111 -0.084946883 5.013910328
9.928864517 0.052602498 -0.136123631 0.031434723 6.161507197 -0.044180356 -0.064709838 -0.035144935 5.031400085
10.032849964 0.065037973 -0.020069833 0.038866037 6.162081543 -0.048751286 -0.009540707 -0.038781053 4.986571672
10.167913786 0.028847363 -0.117417154 0.017238893 6.050261425 -0.049100654 -0.055817238 -0.039058971 4.943184983
10.091355280 0.017439713 -0.117905826 0.010421797 6.099936816 -0.020993690 -0.056049540 -0.016700224 4.998232766
9.841010876 0.112603478 -0.133839704 0.067290704 6.213116396 -0.096073563 -0.063624115 -0.076425348 5.072428454
10.090026834 0.055130357 -0.118123335 0.032945345 6.153498018 -0.026405989 -0.056152939 -0.021005642 5.003363265
9.974894279 0.043797556 0.010281811 0.026172978 6.200566261 0.009611596 0.004887721 0.007645907 5.009021552
10.185700085 0.108503769 -0.110237308 0.064840759 6.101722621 -0.046410508 -0.052404115 -0.036918993 4.977322539
10.184733569 0.098448763 -0.122092427 0.058831989 6.079662995 -0.020054624 -0.058039748 -0.015953209 4.974255085
9.955845224 0.041921595 -0.131673601 0.025051923 6.147327746 -0.032854564 -0.062594403 -0.026135405 5.021519548
10.110436882 0.044234066 -0.086377458 0.026433832 6.090070984 -0.033883172 -0.041061727 -0.026953650 4.990693121
9.971048992 0.042474591 0.012805279 0.025382387 6.207236306 0.017827616 0.006087316 0.014181651 5.010855534
9.985898024 0.047743903 -0.066061339 0.028531275 6.037082471 -0.081065590 -0.031403941 -0.064486688 5.083464728
10.231594591 0.065430208 -0.117005688 0.039100433 6.038518761 -0.067734952 -0.055621637 -0.053882328 4.947381189
10.094372031 0.053151230 -0.122687375 0.031762639 6.144675109 -0.028643557 -0.058322572 -0.022785600 4.998930248
10.125716611 0.040175077 -0.133877711 0.024008221 6.072344975 -0.026675526 -0.063642183 -0.021220056 4.964549971
10.186756648 0.102719924 -0.118997833 0.061384391 6.089188411 -0.028018346 -0.056568654 -0.022288253 4.975462865
10.116969052 0.042687684 -0.133921227 0.025509730 6.095708482 -0.031033236 -0.063662869 -0.024686561 4.973256609
10.198464506 0.039930897 -0.113897210 0.023862301 6.036748259 -0.059150849 -0.054143942 -0.047053779 4.935989207
10.202512123 0.104225701 -0.116770081 0.062284229 6.105912510 -0.088602097 -0.055509635 -0.070481888 5.000720932
10.103274831 0.036507611 -0.109967184 0.021816580 6.125392804 -0.039820404 -0.052275704 -0.031676646 4.997681611
10.124918166 0.040317286 -0.133926656 0.024093204 6.074510884 -0.027229526 -0.063665450 -0.021660756 4.965282498
9.970009640 0.043365383 0.012130927 0.025914716 6.216634872 0.032479679 0.005766745 0.025837189 5.012836373
10.106458208 0.047301105 -0.131358345 0.028266663 6.120058728 -0.031993845 -0.062444538 -0.025450713 4.985600883
10.067329955 0.062943780 -0.089479378 0.037614569 6.194487437 -0.010739855 -0.042536304 -0.008543424 5.026939104
10.139991797 0.016243639 -0.021032619 0.009707035 6.002239213 -0.030128946 -0.009998391 -0.023967209 5.047352648
10.020264648 0.037447989 -0.053572522 0.022378541 6.019362648 -0.069099789 -0.025467064 -0.054968039 5.081692637
10.237450048 0.084585623 -0.127216214 0.050547516 6.059519440 -0.074868885 -0.060475471 -0.059557285 4.965174316
10.060533664 0.064476058 -0.080030611 0.038530243 6.202105161 -0.005516069 -0.038044591 -0.004387966 5.031584132
10.087835673 0.056070145 -0.115627806 0.033506954 6.157976531 -0.025118084 -0.054966625 -0.019981130 5.005622594
10.117968768 0.018740593 -0.118775807 0.011199190 6.087230693 -0.027612590 -0.056463108 -0.021965478 4.981845286
10.027524926 0.064154229 -0.038799250 0.038337921 6.215166249 0.019504163 -0.018444212 0.015515324 5.033284024
9.931226027 0.067509656 -0.088752980 0.040343090 6.078590085 -0.097910283 -0.042190992 -0.077886436 5.077443204
10.219129544 0.101295849 -0.126482878 0.060533378 6.093705156 -0.085987375 -0.060126861 -0.068401908 4.992039475
9.889730913 0.084831548 -0.104181596 0.050694478 6.116760067 -0.106563949 -0.049525378 -0.084770322 5.073994451
10.214803790 0.049907060 -0.112957503 0.029823956 6.034334213 -0.062646300 -0.053697229 -0.049834367 4.936869655
10.031912280 0.034137553 -0.049277796 0.020400257 6.014275875 -0.065036052 -0.023425457 -0.051735386 5.079692388
10.141025384 0.042961270 -0.130326530 0.025673222 6.035310092 -0.011921036 -0.061954039 -0.009483038 4.946430145
10.167560237 0.103174921 -0.095044873 0.061656293 6.115696681 -0.091020148 -0.045182003 -0.072405417 5.005048736
9.838584953 0.114794076 -0.129012377 0.068599783 6.196822349 -0.101585304 -0.061329323 -0.080809870 5.071182514
10.145346582 0.046932052 -0.128627045 0.028046121 6.026868519 -0.006766344 -0.061146145 -0.005382544 4.941360092
10.357189633 0.005513266 -0.009690467 0.003294672 6.163540263 -0.001606772 -0.004606610 -0.001278168 4.953058482
9.840923078 0.112331053 -0.126417086 0.067127905 6.186819685 -0.103873036 -0.060095585 -0.082629733 5.069632201
9.870905698 0.087399533 -0.139343272 0.052229080 6.203810975 -0.076915772 -0.066240377 -0.061185558 5.067080249
10.168035479 0.075117870 -0.126798368 0.044889682 6.042288228 -0.001594531 -0.060276837 -0.001268430 4.951600047
10.110429403 0.018344349 -0.024933522 0.010962398 5.997548899 -0.038838559 -0.011852785 -0.030895600 5.058406964
10.019143575 0.048661353 -0.131309656 0.029079534 6.065657595 -0.107291276 -0.062421393 -0.085348902 5.013117788
10.070424252 0.028268497 -0.154562675 0.016892969 6.166605658 -0.066308027 -0.073475308 -0.052747227 4.978760128
10.020499131 0.062738868 -0.031765906 0.037492115 6.216339643 0.023948631 -0.015100733 0.019050844 5.032403350
9.915762652 0.073939743 -0.095190568 0.044185645 6.092843717 -0.101579775 -0.045251263 -0.080805472 5.076247013
9.846966939 0.106876720 -0.121424828 0.063868451 6.170218139 -0.107049205 -0.057722388 -0.085156336 5.067565901
10.044761841 0.029905275 -0.163214801 0.017871091 6.146981713 -0.087879235 -0.077588317 -0.069906859 4.965586397
10.236000271 0.071744941 -0.119630171 0.042874054 6.044321265 -0.069722340 -0.056869251 -0.055463271 4.952681287
10.084492902 0.057420366 -0.111653100 0.034313832 6.164778855 -0.023000534 -0.053077148 -0.018296644 5.009158200
10.105951271 0.093606853 -0.085650628 0.055938512 6.078848993 -0.105726261 -0.040716209 -0.084103951 5.013416918
10.018745623 0.043566147 -0.137828298 0.026034690 6.075305841 -0.105798128 -0.065520195 -0.084161120 5.004235591
10.252442666 0.011485132 -0.014710581 0.006863399 6.060514863 -0.009295764 -0.006993050 -0.007394667 4.994587649
10.014290590 0.057752551 -0.011203480 0.034512342 6.172472722 -0.034564487 -0.005325860 -0.027495628 4.993224051
10.018724449 0.059503292 -0.013237399 0.035558568 6.170016339 -0.038205111 -0.006292735 -0.030391700 4.991282411
10.235118916 0.089983349 -0.130320790 0.053773142 6.066947541 -0.077970392 -0.061951310 -0.062024496 4.972208160
10.4063 0 0 0 6.2187 0 0 0 4.9469
9.918806791 0.072663825 -0.093976726 0.043423169 6.090021544 -0.100900471 -0.044674232 -0.080265094 5.076452891
10.153538787 0.058360005 -0.127575786 0.034875351 6.024722073 -0.000287760 -0.060646402 -0.000228910 4.940006938
10.018739727 0.062344633 -0.030054141 0.037256524 6.216616417 0.024990958 -0.014287002 0.019880002 5.032138403
10.056573584 0.076512875 -0.098461859 0.045723323 6.053889249 -0.108714381 -0.046806355 -0.086480964 5.017017901
10.114568104 0.017956602 -0.024222853 0.010730685 5.997865462 -0.037560815 -0.011514951 -0.029879170 5.057003795
10.072399881 0.082282359 -0.093399377 0.049171109 6.061351655 -0.108250038 -0.044399775 -0.086111585 5.015564058
10.128045639 0.039890354 -0.133686656 0.023838074 6.066123229 -0.024892927 -0.063551360 -0.019802020 4.962389031
9.974145166 0.046267620 0.009201343 0.027649064 6.217950953 0.036510513 0.004374093 0.029043668 5.012992930
10.040880648 0.070205820 -0.105009664 0.041954291 6.048921919 -0.108299978 -0.049919021 -0.086151311 5.017832118
10.353515714 0.005851497 -0.010137183 0.003496795 6.159481188 -0.001750679 -0.004818968 -0.001392644 4.954104109
10.127167453 0.016985294 -0.022417720 0.010150240 5.999540851 -0.033780274 -0.010656835 -0.026871796 5.052449457
10.070615564 0.024419876 -0.035230982 0.014593072 6.001114619 -0.051775823 -0.016747945 -0.041187035 5.070242460
9.974925435 0.035374248 -0.127939881 0.021139294 6.137951761 -0.027904057 -0.060819484 -0.022197337 5.016980341
10.003383097 0.058376519 -0.015410753 0.034885219 6.218504955 0.032760774 -0.007325894 0.026060796 5.028012037
10.237914876 0.078482249 -0.123339482 0.046900201 6.052040003 -0.072123482 -0.058632567 -0.057373350 4.958699656
9.999501241 0.028147268 -0.124289132 0.016820524 6.128422189 -0.023480310 -0.059084008 -0.018678300 5.016258832
10.063291895 0.063908336 -0.083894753 0.038190978 6.199329421 -0.007657446 -0.039881510 -0.006091405 5.029957098
10.148100332 0.023736117 -0.118269841 0.014184464 6.066815245 -0.039313720 -0.056222584 -0.031273585 4.956671665
9.841586613 0.111669860 -0.125795277 0.066732783 6.184594717 -0.104348498 -0.059799992 -0.083007958 5.069284582
10.066665849 0.028324532 -0.157119940 0.016926455 6.165536851 -0.069532624 -0.074690969 -0.055312355 4.976291294
10.207914506 0.045171564 -0.112943601 0.026994071 6.035115836 -0.061116920 -0.053690620 -0.048617764 4.935764496
10.091381432 0.088857032 -0.088454710 0.053100067 6.071265530 -0.106977024 -0.042049201 -0.085098918 5.014034739
9.997168712 0.044267409 -0.061932070 0.026453757 6.030747237 -0.077169635 -0.029440988 -0.061387503 5.083615350
10.160739436 0.026878028 -0.117784023 0.016062039 6.055957543 -0.045626362 -0.055991638 -0.036295215 4.947079137
10.018687318 0.044947709 -0.135978015 0.026860298 6.072385025 -0.106339266 -0.064640616 -0.084591589 5.007087965
9.969546638 0.042062932 0.013470886 0.025136384 6.210998972 0.022754554 0.006403729 0.018100970 5.011929424
10.129558558 0.039817229 -0.133516042 0.023794374 6.062197243 -0.023616610 -0.063470254 -0.018786725 4.960915844
9.887443907 0.075047799 -0.138807788 0.044847808 6.189071184 -0.067028287 -0.065985821 -0.053320185 5.054168915
10.144379226 0.022914078 -0.118401920 0.013693222 6.069863727 -0.037567978 -0.056285371 -0.029884868 4.959925734
9.996584731 0.028912697 -0.124647197 0.017277936 6.129373565 -0.023947075 -0.059254223 -0.019049606 5.016099528
10.111882154 0.044797372 -0.133172526 0.026770458 6.108051540 -0.031992139 -0.063306955 -0.025449357 4.979132420
10.237993743 0.080589216 -0.124650064 0.048159303 6.054571704 -0.072993185 -0.059255586 -0.058065189 4.960786439
10.080607630 0.028741397 -0.144397754 0.017175569 6.164612181 -0.057003150 -0.068643154 -0.045345311 4.985123852
10.025210123 0.060442748 -0.117037179 0.036119977 6.051307180 -0.107468378 -0.055636607 -0.085489784 5.018755833
10.180210230 0.104384929 -0.103326983 0.062379381 6.112687688 -0.090603077 -0.049119116 -0.072073643 5.005343237
9.980620373 0.045718194 0.006203956 0.027320732 6.193645049 0.000547604 0.002949209 0.000435612 5.007208794
10.200505928 0.104376394 -0.115602006 0.062374281 6.106781938 -0.088832006 -0.054954360 -0.070664777 5.001434381
10.048274707 0.073310317 -0.101633174 0.043809507 6.050810738 -0.108611330 -0.048313920 -0.086398989 5.017535784
10.002464275 0.027396570 -0.123939377 0.016371914 6.127498110 -0.023015337 -0.058917743 -0.018308420 5.016453307
10.056004392 0.028834758 -0.161663254 0.017231361 6.159119768 -0.078367447 -0.076850749 -0.062340348 4.969599539
10.236416104 0.072602969 -0.120045350 0.043386803 6.045248371 -0.070000974 -0.057066618 -0.055684921 4.953409498
10.156228075 0.108983856 -0.088401813 0.065127654 6.106033611 -0.091094107 -0.042024055 -0.072464251 4.998151303
10.019324794 0.049437204 -0.130369165 0.029543175 6.064418781 -0.107405810 -0.061974306 -0.085440012 5.014076590
10.404250863 0.000131371 -0.000449776 0.000078506 6.216383498 -0.000144924 -0.000213813 -0.000115285 4.946904826
9.978544872 0.050091787 -0.068833626 0.029934347 6.041571082 -0.083569687 -0.032721819 -0.066478666 5.083010062
9.980974728 0.050056005 0.004384147 0.029912964 6.218502355 0.038022330 0.002084116 0.030246300 5.015336707
10.073984989 0.028307761 -0.151556620 0.016916433 6.166841200 -0.063144246 -0.072046303 -0.050230478 4.981039388
10.067939918 0.028296293 -0.156319142 0.016909579 6.165981761 -0.068450937 -0.074310289 -0.054451885 4.977132410
10.191479894 0.014164388 -0.017605972 0.008464496 6.021516215 -0.018157006 -0.008369448 -0.014443677 5.023304506
9.838315143 0.115094221 -0.129437497 0.068779146 6.198567528 -0.101159081 -0.061531414 -0.080470815 5.071418592
10.178836170 0.032153330 -0.116514072 0.019214506 6.043415855 -0.053638751 -0.055387935 -0.042668972 4.939327121
9.900949298 0.080148598 -0.100604934 0.047895995 6.106500626 -0.104599392 -0.047825120 -0.083207540 5.075185937
10.272395512 0.010597061 -0.014105053 0.006332697 6.077143454 -0.007232844 -0.006705196 -0.005753639 4.985812133
10.072524449 0.061502711 -0.096468293 0.036753401 6.186902177 -0.014605619 -0.045858663 -0.011618592 5.022107335
10.063513193 0.018182911 -0.118126551 0.010865924 6.111008335 -0.017573802 -0.056154467 -0.013979745 5.011433591
10.101168090 0.035055759 -0.114387109 0.020948968 6.131837242 -0.040953428 -0.054376829 -0.032577952 4.997448094
9.916951495 0.058036159 -0.137376949 0.034681824 6.168226426 -0.050349899 -0.065305635 -0.040052731 5.036509795
10.117930010 0.042328629 -0.133982105 0.025295162 6.093247949 -0.030733045 -0.063691809 -0.024447763 4.972203853
9.867780988 0.094405331 -0.110976857 0.056415674 6.138323774 -0.109158870 -0.052755678 -0.086834550 5.069967134
10.115618533 0.018518607 -0.118734303 0.011066533 6.088467463 -0.026913329 -0.056443378 -0.021409225 4.983505010
9.986930710 0.047774344 0.002136053 0.028549466 6.188251060 -0.007623661 0.001015427 -0.006064530 5.005282856
10.061398051 0.028521199 -0.159799887 0.017043981 6.162929469 -0.073921563 -0.075964950 -0.058803702 4.972847038
10.177167008 0.111545273 -0.100552522 0.066658331 6.107980707 -0.065760817 -0.047800205 -0.052311928 4.981830866
9.970187147 0.042212377 0.013238155 0.025225691 6.209211073 0.020352684 0.006293095 0.016190312 5.011426876
10.069193034 0.028277418 -0.155466470 0.016898300 6.166338845 -0.067376063 -0.073904950 -0.053596836 4.977956285
10.016984419 0.061937821 -0.028359292 0.037013417 6.216884256 0.026001594 -0.013481312 0.020683951 5.031846099
10.056292067 0.065183963 -0.074073334 0.038953280 6.205584181 -0.002177865 -0.035212648 -0.001732465 5.033384872
10.029265716 0.064458068 -0.040608808 0.038519492 6.214858402 0.018335917 -0.019304432 0.014585998 5.033478455
10.108397928 0.094379888 -0.085293102 0.056400470 6.080120553 -0.105484798 -0.040546250 -0.083911870 5.013309273
10.120596775 0.098164006 -0.084106787 0.058661820 6.086546284 -0.103999759 -0.039982305 -0.082730540 5.012353826
10.193314359 0.037560521 -0.114620677 0.022445789 6.037953952 -0.057972328 -0.054487861 -0.046116280 4.936561590
10.055652312 0.018727383 -0.118639932 0.011191295 6.113529067 -0.017452789 -0.056398516 -0.013883480 5.014055913
10.084196070 0.086415355 -0.090183405 0.051640945 6.067492071 -0.107514573 -0.042870980 -0.085526532 5.014505210
10.234413520 0.069099954 -0.118451150 0.041293436 6.041644415 -0.068886849 -0.056308774 -0.054798648 4.950458303
10.370664917 0.004125204 -0.007693004 0.002465180 6.178528203 -0.001159606 -0.003657066 -0.000922453 4.949852731
10.034646705 0.067185227 -0.108575239 0.040149215 6.048323964 -0.107913287 -0.051614008 -0.085843704 5.018058332
10.095805377 0.085607119 -0.052072594 0.051157952 6.136858208 -0.078797740 -0.024754035 -0.062682641 4.990508438
9.840401363 0.113183716 -0.133502280 0.067637448 6.212488471 -0.096506419 -0.063463712 -0.076769680 5.072384682
10.023104818 0.036560019 -0.149451412 0.021847899 6.096626123 -0.101641330 -0.071045539 -0.080854438 4.985523704
9.884406770 0.087065938 -0.105777755 0.052029727 6.121680742 -0.107380604 -0.050284152 -0.085419961 5.073225921
10.075129687 0.028345047 -0.150461925 0.016938715 6.166724565 -0.062102875 -0.071525912 -0.049402080 4.981756311
10.173350655 0.030436091 -0.117030110 0.018188301 6.046542770 -0.051495427 -0.055633246 -0.040963984 4.940997446
10.060967960 0.078146133 -0.096952666 0.046699341 6.055802264 -0.108664820 -0.046088922 -0.086441539 5.016658632
10.144160939 0.045616959 -0.129051878 0.027260235 6.028897228 -0.008182611 -0.061348100 -0.006509167 4.942527752
9.996445690 0.051015154 -0.002997214 0.030486142 6.182204079 -0.018102144 -0.001424802 -0.014400035 5.001599293
9.931996143 0.051259543 -0.135718288 0.030632186 6.159813432 -0.042643857 -0.064517148 -0.033922668 5.030143573
10.220859973 0.054799332 -0.113735352 0.032747529 6.034268066 -0.064236793 -0.054066999 -0.051099585 4.939286688
10.181149398 0.092345957 -0.124326038 0.055185013 6.067513358 -0.012469326 -0.059101552 -0.009919197 4.970665423
9.849317199 0.105066087 -0.119797983 0.062786435 6.165216528 -0.107795839 -0.056949025 -0.085750275 5.067315031
10.118171710 0.097418385 -0.084257810 0.058216245 6.085251845 -0.104344345 -0.040054098 -0.083004654 5.012624909
10.092201862 0.054157145 -0.120481820 0.032363764 6.149068110 -0.027584268 -0.057274105 -0.021942949 5.001145598
10.115735847 0.096666966 -0.084453554 0.057767204 6.083961736 -0.104661732 -0.040147150 -0.083257131 5.012848833
10.167081547 0.074067888 -0.126905713 0.044262223 6.040970924 -0.001239174 -0.060327866 -0.000985748 4.950467897
9.974124560 0.043530494 0.010825128 0.026013384 6.201724657 0.011042286 0.005146001 0.008784004 5.009324047
10.136752219 0.097063684 -0.074645774 0.058004279 6.124691969 -0.088661410 -0.035484772 -0.070529070 4.999367343
10.097638097 0.051588737 -0.125669673 0.030828909 6.138106097 -0.029990009 -0.059740283 -0.023856686 4.995529415
10.104487455 0.037509051 -0.107005971 0.022415031 6.121029534 -0.039180813 -0.050868016 -0.031167859 4.997444131
10.107739508 0.041026656 -0.096582594 0.024517116 6.105552301 -0.037078581 -0.045912998 -0.029495559 4.994594814
10.020321852 0.052598277 -0.126586855 0.031432200 6.059842022 -0.107633411 -0.060176289 -0.085621066 5.016971015
9.914131611 0.059415752 -0.137604056 0.035506255 6.169909335 -0.051874946 -0.065413596 -0.041265887 5.037828070
10.088978322 0.088047528 -0.089011220 0.052616315 6.070005398 -0.107162357 -0.042313752 -0.085246348 5.014174865
9.980188474 0.033685376 -0.127019800 0.020130041 6.135611624 -0.026825124 -0.060382100 -0.021339059 5.016325278
10.057351098 0.028746285 -0.161271000 0.017178490 6.160176124 -0.077255699 -0.076664281 -0.061455966 4.970365147
9.924967806 0.070092751 -0.091431999 0.041886722 6.084322299 -0.099461685 -0.043464531 -0.079120557 5.076905135
10.064061392 0.028407006 -0.158564429 0.016975740 6.164393603 -0.071715647 -0.075377644 -0.057048923 4.974573871
9.856274365 0.099296392 -0.138595315 0.059338523 6.213852201 -0.086262666 -0.065884816 -0.068620898 5.073450869
10.155089337 0.060403953 -0.127570953 0.036096794 6.026120907 0.000120774 -0.060644105 0.000096075 4.940671838
10.162292777 0.110520090 -0.090897097 0.066045692 6.108388942 -0.085848384 -0.043210253 -0.068291342 4.993311407
10.231321641 0.094593600 -0.131513265 0.056528182 6.075104047 -0.081109572 -0.062518183 -0.064521675 4.979312934
10.021788683 0.055779503 -0.122777269 0.033333269 6.055897829 -0.107599481 -0.058365305 -0.085594075 5.018434278
9.839374460 0.114173732 -0.132845331 0.068229072 6.211010934 -0.097318260 -0.063151415 -0.077415488 5.072326587
10.060906877 0.018345117 -0.118277653 0.010962857 6.111877226 -0.017491235 -0.056226298 -0.013914064 5.012377587
10.020635861 0.038830210 -0.145098234 0.023204542 6.088032726 -0.103195355 -0.068976145 -0.082090647 4.992224482
10.164178074 0.070908286 -0.127190305 0.042374077 6.037082306 -0.000366453 -0.060463154 -0.000291509 4.947358161
10.211811666 0.013309759 -0.016520019 0.007953778 6.032659322 -0.014713064 -0.007853212 -0.011704063 5.013406054
10.096937265 0.032866420 -0.121712629 0.019640641 6.142097150 -0.043502264 -0.057859201 -0.034605520 4.995609366
10.052329891 0.074899799 -0.100021782 0.044759365 6.052213696 -0.108694808 -0.047547904 -0.086465394 5.017310448
10.166113819 0.028341009 -0.117521888 0.016936301 6.051617022 -0.048256610 -0.055867026 -0.038387545 4.944048259
10.032715162 0.021335570 -0.120750241 0.012749922 6.119597994 -0.018900500 -0.057401706 -0.015035117 5.017756669
10.169719735 0.029364599 -0.117301130 0.017547988 6.048960915 -0.049923499 -0.055762083 -0.039713534 4.942391175
10.037607121 0.068687237 -0.106770943 0.041046801 6.048461337 -0.108106188 -0.050756290 -0.085997154 5.017943103
9.903508884 0.065027349 -0.138240550 0.038859688 6.176735581 -0.057783235 -0.065716170 -0.045965859 5.043376055
10.007929891 0.055274485 -0.008334093 0.033031475 6.175933811 -0.029053629 -0.003961824 -0.023111807 4.996218443
10.110028206 0.043804427 -0.087798433 0.026177084 6.092260123 -0.034460427 -0.041737224 -0.027412849 4.991197385
10.069955105 0.062241526 -0.093041913 0.037194909 6.190839958 -0.012707705 -0.044229845 -0.010108824 5.024612359
10.068683500 0.017910994 -0.117890640 0.010703430 6.109187350 -0.017864342 -0.056042321 -0.014210866 5.009367050
10.033287521 0.066438452 -0.109491578 0.039702949 6.048373575 -0.107823231 -0.052049613 -0.085772065 5.018122839
10.022243264 0.056568570 -0.121821703 0.033804808 6.055016334 -0.107571914 -0.057911052 -0.085572145 5.018612263
10.106041820 0.039029560 -0.102543648 0.023323672 6.114423593 -0.038305830 -0.048746738 -0.030471821 4.996546383
10.165149389 0.071962857 -0.127102707 0.043004278 6.038366119 -0.000624220 -0.060421512 -0.000496559 4.948342904
10.108123265 0.041511531 -0.095098131 0.024806872 6.103329711 -0.036725882 -0.045207321 -0.029214991 4.994028109
10.196249815 0.013969996 -0.017346370 0.008348329 6.023977843 -0.017299473 -0.008246039 -0.013761520 5.020964304
10.391612105 0.001562233 -0.003427157 0.000933574 6.202060452 -0.000625209 -0.001629186 -0.000497346 4.947203060