5.1229845893 2.8962672053 2.4311003039 2.7346088480 4.4621332812 4.8806786813 2.1458424781 1.4705355804 2.2732702924 7.4071142385 1.4854142341 -0.0244816267 7.8713880638 4.6991045654 2.4722734780 1.0217984736 4.5614518336 2.0987805974 3.9510549110 1.3456821168 4.6547995035 9.0605973553 1.5498573956 2.7719151689 6.1296714767 4.5266292439 0.2301461328 1.2859122658 4.5364826407 3.6083408098 3.7844437737 1.5005195982 1.1878435041 8.8572805215 1.5060255810 1.2468352719 6.2754399368 4.4780335414 3.6976487720 4.6317567613 4.5123418475 0.6531739459 0.4558013917 1.5226859366 3.2196506257 5.4592404654 1.4386101457 4.2840140349 9.6146420485 4.6071921060 1.6947677477 1.7358956623 5.7691709482 1.3571644130 3.2569408948 0.1061970186 4.0354548726 8.2919163580 2.7345473438 3.4641944299 6.8292618452 3.3130938396 0.9617632432 8.3348569608 0.3242406134 3.4999682633 6.8710086320 5.7397141674 0.9209575343 1.7548311516 3.3526105909 1.3822724466 3.2409962660 2.5360252213 3.8848113265
5.0897521342 2.8891253893 2.4533578093 2.6689345771 4.5244327429 4.8269196021 2.1255023250 1.4849504101 2.2615769614 7.3845266647 1.4770962830 -0.0072521474 7.8472668385 4.6617763071 2.4166607997 0.9767860018 4.5728882688 2.0500948057 3.9296064747 1.3600522250 4.5854822682 9.0374232907 1.5564921294 2.7334510802 6.1115367898 4.5822020312 0.2360032438 1.1603734738 4.5882961089 3.5740861156 3.7616549191 1.5217192738 1.1213213101 8.8225792569 1.4742875842 1.2115107470 6.2604826716 4.5202108330 3.7028550939 4.6171175853 4.5161392495 0.6049684237 0.4683555496 1.5215179150 3.1255510586 5.4606575672 1.4344448482 4.2939583846 9.5624202359 4.6314358073 1.5495051391 1.7371314495 5.7710654959 1.3292523503 3.3004830950 0.0978234785 3.9309792163 8.3419131434 2.7623696111 3.4340135995 6.8398569180 3.3695843237 0.9657758687 8.3129846078 0.3223155889 3.4210196820 6.8473940220 5.7894412593 0.9247747049 1.7207935997 3.3595395706 1.3603758564 3.1928904653 2.5632685506 3.8319777558
5.1907410194 2.9041352620 2.5086903998 2.7549329839 4.6524535981 5.0266120095 2.1480848592 1.4984546752 2.4646194489 7.2844800671 1.4634596564 0.0466905368 7.8087083494 4.7383077861 2.5439925622 1.1149124056 4.6670275152 2.2673057331 3.9071233770 1.5091145069 4.7169928489 8.8747222612 1.5828473761 2.7919829117 6.0695892146 4.6437267097 0.3408934861 1.3073070728 4.6847589260 3.7842370094 3.7110085611 1.5184528384 1.2361532008 8.7545233091 1.5367813140 1.2547774810 6.2181830888 4.6546748010 3.8172715999 4.5770822447 4.6129593243 0.7632961706 0.3875463478 1.5449956502 3.1945771871 5.4293908606 1.5379144750 4.4009457017 9.5906484190 4.6747025310 1.9112453068 1.8103130931 5.9024772478 1.5831796403 3.1852313194 0.2944519384 4.0379655991 8.1211565348 2.7939709072 3.4517430289 6.8053020698 3.4298822991 1.0339504846 8.1340443392 0.3716245871 3.4664647791 6.7918464085 5.8550366720 1.0275347811 1.8586872727 3.4576121190 1.5807458590 3.2747157837 2.7360283774 3.9569575076
5.2037510378 2.6508647482 2.3825871626 2.6568555890 4.5362632239 4.8498591226 2.1126924911 1.5077696734 2.2812038811 7.2980485388 1.5390334932 0.0159743982 7.7455900791 4.7693314117 2.5420101399 0.9983308933 4.5545955197 2.0410795839 3.8717583700 1.3494975161 4.5943997513 8.8924474015 1.5866999824 2.8119766969 6.0424311161 4.5763368211 0.2743989797 1.2655304833 4.4887529947 3.5559228750 3.6874120940 1.4361505757 1.1021396083 8.6820406173 1.5204121749 1.2961011754 6.1937690206 4.5975813998 3.7715590983 4.5404396280 4.4399386131 0.6071153347 0.4480250445 1.5450870787 3.2062871689 5.4027766146 1.3862159768 4.3286907860 9.4393023070 4.5742686322 1.6593909719 1.7060147370 5.7820480272 1.3487265539 3.1827701758 0.1276654881 3.9092115743 8.1355388553 2.7716216803 3.5054297558 6.7720117769 3.3494334244 0.9375604489 8.2158088369 0.3523625178 3.5506793992 6.7271215253 5.7883365512 1.0286640984 1.7056004290 3.3443232751 1.3060549815 3.2632728740 2.5768675660 3.8175792021
5.1671169374 2.9421984013 2.3908884833 2.6774151699 4.4419574331 4.8347926670 2.1868063140 1.4332449982 2.4382785858 7.3701827782 1.4916864551 -0.0820503822 7.9124715302 4.6907555555 2.4518843621 1.0314740755 4.5278848224 2.0867761653 3.9333711930 1.3860627985 4.6902118244 9.0483010918 1.5987205951 2.6735028709 6.1333586564 4.5423062489 0.1569415986 1.1790831339 4.4754695810 3.6139493446 3.8436964584 1.4498100444 1.2413957168 8.8347292501 1.4761295178 1.1567122200 6.2666642142 4.5620305021 3.6061358478 4.6359798404 4.5250977489 0.5659283025 0.4309389957 1.6311362007 3.1574834579 5.4277360834 1.4122040741 4.2745512215 9.6395977118 4.5941526278 1.6185017071 1.8086250337 5.7489832402 1.4693648173 3.1333483424 0.2075660518 4.0281257564 8.2535401622 2.7881654725 3.3220685106 6.8139695628 3.2727331213 0.8022126085 8.3281351032 0.3812326702 3.4199313578 6.9071610737 5.7081942130 0.8758720041 1.7710033641 3.3228924258 1.3607391907 3.2432318893 2.6253754446 3.9443623844
5.7492488480 1.8900485052 2.2353420673 2.8658058074 4.6519720877 4.8971447123 2.1919040913 1.5416972673 2.4398607960 7.5988400489 1.4980338451 -0.0021251137 8.1250856773 4.6677046302 2.5425518540 1.1019468286 4.6336396517 2.1837855677 4.0350036547 1.5473838227 4.6629614913 9.2677754719 1.5508236317 2.7539019985 6.2763214321 4.6551971572 0.3245812824 1.3856636702 4.6388975695 3.7027223199 3.7821083616 1.5597693461 1.2539290692 9.0734243508 1.5552835624 1.2282777391 6.5421181836 4.6232374098 3.7458288689 4.7647931848 4.6653078834 0.5950284228 0.3718689761 1.5276684587 3.0896064608 5.5628374761 1.5309680126 4.4186027688 9.9688907555 4.6246833619 1.9267965868 1.8063117744 5.8463063492 1.4665742009 3.3336749847 0.3401706047 3.9723741384 8.4785596532 2.7331547078 3.4388595045 6.9866885568 3.4349463113 1.0554227208 8.5264264730 0.3420586249 3.4308047303 6.9830159894 5.9055067117 1.0010983896 1.8371258307 3.4193295646 1.5159247589 3.3408648269 2.7536795272 3.9205182100
4.9983294946 3.0212870456 2.3365980336 2.7123665520 4.5028974358 4.7420037982 2.1463091215 1.4071534932 2.3315457111 7.2872685787 1.4305062304 0.0285577955 7.9240630561 4.4544115124 2.5843285958 1.0292937944 4.4034650785 1.9862527137 3.9176978104 1.4047369207 4.5752096061 8.9807950759 1.4263211302 2.7873325883 6.0738964402 4.5995892832 0.1859343549 1.2599333996 4.4025909359 3.5027200838 3.7765898151 1.5020909889 1.0758444965 8.7619094254 1.4471233101 1.2701207425 6.2547692925 4.4623461705 3.6835063116 4.5583129768 4.4737611960 0.5342259861 0.4640398569 1.3681435694 3.2328322004 5.4060639655 1.4776620383 4.1458747122 9.5440455015 4.5145247424 1.5714378729 1.7685826459 5.6128752160 1.2636820500 3.2189750296 0.1793420211 3.8719965365 8.3266776430 2.6647156306 3.5134672824 6.8105865112 3.4266657762 0.9550563348 8.2274122876 0.2303738987 3.4952275318 6.6581664793 5.8761539519 0.8758574864 1.7131002142 3.1742212364 1.2974811479 3.1735694708 2.5834685611 3.8282236493
5.1679991706 2.7163323706 2.4082702735 2.6704203957 4.5287726588 4.8496425375 2.1174995185 1.4915400387 2.2756314277 7.3074812066 1.5305255026 0.0280228628 7.7771211907 4.7418284695 2.5549976057 1.0024123004 4.5391344509 2.0418274346 3.8923874042 1.3455574255 4.6054637828 8.9255629326 1.5772573459 2.8173421712 6.0571637613 4.5628815718 0.2751590443 1.2660599516 4.4930319016 3.5558057019 3.7039690929 1.4371269231 1.1024115293 8.7044788301 1.5104307733 1.3020085485 6.2045861023 4.5806259319 3.7690399519 4.5488024950 4.4388617647 0.6232712260 0.4480438988 1.5576144123 3.2068823289 5.4146535475 1.3787045322 4.3222441908 9.4746388141 4.5616107242 1.6634668788 1.7169633655 5.7587034922 1.3548627830 3.1932155347 0.1377456518 3.9213607665 8.1699083220 2.7641333730 3.4936124655 6.7739897286 3.3314747801 0.9459556535 8.2350696207 0.3414727008 3.5480589269 6.7291393466 5.7725275936 1.0193064156 1.7036548780 3.3421705849 1.2931799961 3.2591678342 2.5605326806 3.8060919046
5.6056089848 1.9866836413 2.3107439942 2.6191393785 4.5376170986 4.9264143117 2.1625798617 1.4480851485 2.4148035712 7.3582234707 1.5350437819 -0.0402854652 7.6946780401 4.5051818388 2.4689778115 1.0012043609 4.4809203960 2.1296001225 3.8785960306 1.4401005380 4.7279282659 8.8944488758 1.4751680116 2.7534484217 5.9919142040 4.6342451825 0.2252946800 1.1511344223 4.4961187575 3.6632113205 3.7359292284 1.5193375883 1.1724810824 8.7656583289 1.4884860212 1.2240948124 6.1847914492 4.5535383967 3.7847726355 4.4953612358 4.5279351471 0.5981152755 0.4229742560 1.4776850911 3.2615625929 5.3989019979 1.4908354362 4.4310661663 9.4493036669 4.6076479963 1.6837880728 1.7385616278 5.6895751723 1.4020077017 3.1842686376 0.2332009583 4.0087245346 8.0762603200 2.6845294353 3.3525638184 6.7620422362 3.4097248258 0.9079222899 8.1378066548 0.3030183537 3.4702274904 6.6995992660 5.8323097473 0.9653490822 1.7348694726 3.2769234680 1.4544180497 3.1699192314 2.6548562442 4.0066745266
5.1686465146 2.9210189565 2.4720848222 2.7689676942 4.6645474318 5.0153505850 2.1328758237 1.5003113806 2.4588132816 7.2728129779 1.4721845476 0.0467798845 7.8114846695 4.7091108996 2.5439382438 1.1130169254 4.6381850866 2.2642800448 3.9212715591 1.5178937598 4.7121267128 8.8783121293 1.5648339656 2.7838551811 6.0656779605 4.6408872906 0.3281044019 1.2864633730 4.6678253361 3.7953150620 3.7191211473 1.5048955800 1.2298269646 8.7592119237 1.5161356207 1.2542510401 6.1977590015 4.6372662876 3.8047007740 4.5788943006 4.6099146670 0.7701084562 0.3932272736 1.5081740441 3.1894476719 5.4419599863 1.5624648221 4.3857161892 9.5823129615 4.6317474361 1.9122427523 1.8150175296 5.8543574450 1.5657034717 3.2047657474 0.3063077888 4.0295574208 8.1105320241 2.7655136415 3.4451244009 6.8139953604 3.4369613030 1.0346272348 8.1401390667 0.3466552439 3.4883292510 6.8084753468 5.8498026733 1.0226251939 1.8496355256 3.4134678142 1.5985272562 3.2532569505 2.7536298644 3.9742305435
5.0041602814 2.9986955549 2.4101246607 2.7881848785 4.6717849415 4.8948859908 2.1805750079 1.4627624945 2.4045312080 7.3257674295 1.5342105051 -0.0059586414 7.8630254070 4.5827894326 2.5152473611 1.0989420663 4.4703046141 2.1941457785 3.9519706840 1.5090075209 4.6719912538 8.9595895853 1.4628162720 2.7379075885 6.1423869428 4.6428527773 0.2070897379 1.2720280539 4.5469364434 3.7196205719 3.8170301900 1.4958581799 1.2179492670 8.8038183238 1.4768859680 1.2107397934 6.2560209373 4.5749757142 3.6589273275 4.6454068646 4.5731467575 0.6184558387 0.4128617579 1.4258880201 3.1576646875 5.4461840237 1.5856563895 4.2730021529 9.6397334008 4.5334724947 1.8086698772 1.8472386597 5.6835204630 1.4910743492 3.2566728345 0.2948418187 3.9667495651 8.1834987246 2.6526717478 3.4160351273 6.8645374420 3.4263658458 0.9159220367 8.2213032468 0.2433465416 3.4266267034 6.8526697162 5.8767608016 0.8485882069 1.8455984489 3.2608485895 1.5444729302 3.2302805192 2.7325556587 3.9940686491
5.1251253931 2.9359342646 2.4382043052 2.7824054445 4.6696384285 4.9897784995 2.1293257840 1.4987017392 2.4465672658 7.2706161279 1.4862441030 0.0371692896 7.8188566425 4.6704621637 2.5417732094 1.1067221897 4.5839088469 2.2649621439 3.9355857622 1.5274473224 4.7088058299 8.8888289692 1.5334881593 2.7774780165 6.0747655896 4.6414005474 0.2962967154 1.2588956355 4.6303314270 3.7916581439 3.7395339888 1.5059028131 1.2246095816 8.7717851912 1.4975306390 1.2471336092 6.1950454099 4.6145763843 3.7769051095 4.5888164856 4.5902657506 0.7549977734 0.4037823896 1.4732601122 3.1790896028 5.4464322247 1.5809035976 4.3511986599 9.5856748044 4.5902330550 1.8960115356 1.8267936205 5.7831688652 1.5239814425 3.2304957774 0.3221969320 4.0048187284 8.1097034561 2.7280253067 3.4303713987 6.8253969440 3.4458553533 1.0089727285 8.1600288477 0.3212338125 3.4868374070 6.8299522838 5.8377464906 0.9904272937 1.8446907082 3.3745210660 1.5940070988 3.2377928067 2.7453771628 4.0015103068
5.6669036857 1.9139873945 2.3216317284 2.7163412464 4.5133622952 4.9637786316 2.1940674947 1.4412417150 2.4945089399 7.3974740797 1.4532365716 -0.0367348209 7.8309362072 4.4390792350 2.5329913304 1.0129171671 4.4347032082 2.1736507102 3.9205005781 1.4963127802 4.7841393239 9.0225553785 1.4660007684 2.7582507345 6.0804980920 4.5564643818 0.2876776717 1.2341436074 4.4619813970 3.6977977463 3.7357516140 1.4385363776 1.2357941664 8.8857700235 1.4688814177 1.2308977802 6.2858656074 4.4922579155 3.8340548280 4.5802685851 4.5414007138 0.6497579439 0.4107592524 1.4452343440 3.2291549736 5.4325977922 1.4969728376 4.4654231856 9.5956672081 4.4393555602 1.7710407715 1.7507580309 5.6511902429 1.4791252613 3.2142306001 0.3117531289 4.0389025304 8.2172420604 2.6433757404 3.4536607979 6.8358004178 3.3496538383 1.0124123450 8.2416600583 0.2785970827 3.4359609243 6.7664133401 5.7852560781 1.0024644628 1.7422392533 3.2304205502 1.4873857185 3.2295213820 2.7108049915 4.0515375613
4.9161351623 3.2114194550 2.4051157248 2.7355843390 4.3868146170 4.7357876140 2.1890556675 1.3703524938 2.2943043997 7.4041275358 1.4498608866 0.0225914699 8.0210562524 4.4826757776 2.4757671885 1.0409676024 4.4300934531 2.0187890937 3.9976286296 1.4001406754 4.5435787275 9.1409221942 1.4765259918 2.7202799213 6.2023620312 4.5359387752 0.2204872931 1.2229495370 4.4544816024 3.5459782305 3.8600985460 1.4563655084 1.1392415710 8.9068036954 1.5098608999 1.2001102779 6.3957950855 4.4874063888 3.6391747477 4.6835085185 4.5151235130 0.5414565250 0.4558502622 1.3913946220 3.1394517561 5.5024998329 1.5304855421 4.1857183194 9.7334549751 4.4950531246 1.5698392499 1.8114349482 5.6301033248 1.3231216986 3.2907020538 0.1979690832 3.8218497058 8.4282016205 2.6949551887 3.4286879177 6.8760637478 3.3229709611 0.9970585845 8.3828076560 0.2795387430 3.4245209115 6.9164009916 5.7428197648 0.9248645587 1.7985653996 3.2250359138 1.3245813252 3.2359012861 2.6097437069 3.8219297866
5.5004493482 2.1904836030 2.2757058194 2.6152241496 4.5729892064 4.8690065746 2.1421737570 1.5462136549 2.3519984841 7.3027949319 1.6077816837 -0.0424595997 7.6080456453 4.7956766609 2.4828033418 0.9976871228 4.6099784131 2.0912325788 3.8020399424 1.4070561241 4.6306205157 8.8318942144 1.5877475477 2.7822025167 5.9397454388 4.7157999128 0.1840066924 1.2014323133 4.6312989906 3.6181422527 3.6421263459 1.5507201389 1.0991268022 8.6875561506 1.5130202341 1.2486501187 6.1250608830 4.6147554713 3.7312478472 4.4468895961 4.5863523979 0.5145170972 0.4763344486 1.5201013335 3.3138019815 5.3350413803 1.4900049672 4.3758874415 9.3207832281 4.6792376113 1.6448343153 1.7453484429 5.8163039815 1.3928704362 3.1232113245 0.1665250055 3.9720129152 8.0061895035 2.7622534097 3.4318694977 6.6965713445 3.5276700083 0.8961904042 8.0895646692 0.3578250988 3.4905355966 6.5910218321 5.9529002349 0.9280988147 1.6815972259 3.3690682373 1.4003495311 3.1470952672 2.6141888829 3.8678375450
5.5526568372 2.1057611723 2.2629856604 2.6021476226 4.5557358883 4.8777755124 2.1516683612 1.5051111105 2.3587745206 7.3260370751 1.5923703026 -0.0395342632 7.6182706175 4.6784656238 2.4626057755 1.0009641979 4.5654429144 2.0998612322 3.8262646818 1.4236209645 4.6713982094 8.8300466099 1.5469582669 2.7682475809 5.9442487338 4.6877283560 0.1750322308 1.1775334227 4.6111919262 3.6296886875 3.6566460731 1.5362242362 1.1242863243 8.7257138405 1.4884735725 1.2347547254 6.1053199553 4.6000217587 3.7221681437 4.4423945333 4.5836394249 0.5088660305 0.4571366911 1.4908797399 3.2658892712 5.3484092296 1.4653643762 4.3966921344 9.3523222940 4.6608116197 1.6488593641 1.7638430852 5.7521293387 1.3949116528 3.1560431862 0.1960439912 4.0035133553 7.9934712361 2.7251877109 3.3885241461 6.6996184586 3.4968599869 0.9249286517 8.1028411111 0.3386085629 3.4734360861 6.6043404440 5.8972834494 0.9305786151 1.6884171071 3.3402036489 1.4129326650 3.1238068418 2.6098965007 3.8808347914
5.1581596726 2.9257021447 2.4611728982 2.7735348410 4.6667333492 5.0091567081 2.1300227593 1.5003359732 2.4559019704 7.2707760438 1.4759786257 0.0450511906 7.8133196867 4.6982429116 2.5436449882 1.1122988032 4.6242804727 2.2636881992 3.9261768279 1.5204119031 4.7112230651 8.8804364723 1.5581597890 2.7808795668 6.0666332931 4.6397963656 0.3186301417 1.2781331824 4.6582029337 3.7968754642 3.7239611054 1.5035487521 1.2263474012 8.7625083553 1.5101120639 1.2540889751 6.1946635159 4.6308489845 3.8001736464 4.5803753116 4.6054570576 0.7686734387 0.3982146668 1.4969409686 3.1866600979 5.4442799545 1.5686973475 4.3773461995 9.5810366944 4.6187011593 1.9093504753 1.8178279934 5.8341301436 1.5549450986 3.2127410178 0.3126841284 4.0244649898 8.1091458695 2.7540230901 3.4410026807 6.8171764205 3.4407259648 1.0300890483 8.1440302784 0.3380904651 3.4916660673 6.8159793357 5.8472000068 1.0173054050 1.8471179973 3.4021717554 1.6000294414 3.2473713535 2.7534301742 3.9818784612
4.9085911265 3.2906660669 2.3724867868 2.7284532378 4.5709824556 4.8108359139 2.2247924101 1.3517063717 2.4049136791 7.4605942538 1.5262011119 -0.0715846809 8.0783813026 4.4652104593 2.4062370736 1.0909056041 4.4111175882 2.0723423237 4.0091154605 1.4363894959 4.6021401845 9.1679521209 1.4721890395 2.6901819528 6.2305480673 4.6641775947 0.1562540188 1.2652415918 4.5048781080 3.5944182824 3.8495826715 1.5013052893 1.1427059362 8.9147126366 1.5291151047 1.1683173070 6.4488201075 4.5021710236 3.6236415664 4.7099614997 4.6011127060 0.4895018107 0.4491733114 1.3281972502 3.1279244773 5.5048619467 1.4973112602 4.2142697276 9.8178649746 4.5309631293 1.5916211850 1.8167794596 5.6265220518 1.3508325691 3.3073838929 0.2181530818 3.8901098702 8.4829841887 2.6971872107 3.4016243286 6.9089963747 3.4646261542 0.9593869377 8.4054109908 0.2773955164 3.4027883512 6.9089397750 5.9010013301 0.8058944015 1.8585134198 3.1992723677 1.4640689484 3.2546655222 2.6357663605 3.8937440507
5.0531541654 2.9772313827 2.3551627886 2.6500754847 4.5262248281 4.7338592928 2.1504610082 1.4418690415 2.3070147745 7.2802864399 1.4296127259 0.0105458071 7.8959461505 4.4675596568 2.5115335539 1.0255739414 4.4424621438 1.9678774030 3.8894519087 1.3726055539 4.5340376941 8.9870121241 1.4782875668 2.7471383148 6.0546239350 4.5825157849 0.2021931437 1.1988824846 4.3987172513 3.4897807674 3.7628286324 1.4376490223 1.0636958989 8.8037736714 1.4818280365 1.2192492549 6.2498035459 4.4797040105 3.6848645272 4.5436387796 4.4312090319 0.4655816401 0.4590002339 1.3624481246 3.2574744594 5.4020965399 1.4878163263 4.1972235528 9.5392146909 4.5501318788 1.5289011066 1.7571127708 5.6571026228 1.2744135861 3.2006322233 0.1431301638 3.8405146112 8.2417425813 2.6852861971 3.4301662833 6.8030202069 3.3898729444 0.9468312308 8.1884859458 0.2925417544 3.4327513451 6.6423541900 5.8428066721 0.9151125645 1.7439667129 3.2280615602 1.2753868511 3.1672951072 2.5632777295 3.7732996084
5.0911085360 2.8892377743 2.4531339596 2.6715946677 4.5229972934 4.8297323409 2.1254637882 1.4847547859 2.2620548522 7.3853730842 1.4773861037 -0.0078373082 7.8477145208 4.6640432225 2.4181280936 0.9772319952 4.5734219271 2.0522114900 3.9309845011 1.3595971190 4.5884002193 9.0393814469 1.5574984097 2.7353025075 6.1115401023 4.5806361412 0.2362422218 1.1627707866 4.5886447944 3.5751942503 3.7626126529 1.5228182777 1.1228996963 8.8244704530 1.4735167613 1.2137326665 6.2607100400 4.5186489191 3.7042254726 4.6186252481 4.5184134925 0.6074328297 0.4689387787 1.5224981912 3.1268629602 5.4617039052 1.4343174797 4.2947426625 9.5646482011 4.6324293203 1.5541055736 1.7355702458 5.7706826520 1.3301760436 3.2994637265 0.0971070481 3.9353148790 8.3413319764 2.7612221969 3.4366513005 6.8400063124 3.3681592548 0.9659579311 8.3150179234 0.3230780616 3.4225035418 6.8488207396 5.7872269171 0.9253787012 1.7214395026 3.3599275156 1.3620365683 3.1930337604 2.5625094678 3.8348620951
5.2020487882 2.8733960965 2.5599881429 2.7052580402 4.5357932602 4.9525446411 2.2167412017 1.4718540692 2.4845925316 7.3605779651 1.4831156196 -0.0388295292 7.8554461393 4.7742558012 2.5074838461 1.0565347836 4.6845900991 2.1820534628 3.9217735789 1.4267334103 4.7509383263 8.9881281448 1.6595193462 2.7198556088 6.1246375142 4.6159025935 0.2114727940 1.2563415958 4.5768858712 3.7065504694 3.8011902337 1.5685547666 1.2510030820 8.8094123143 1.6023047369 1.1904869792 6.2578201172 4.6598327644 3.6983016917 4.6138040863 4.5565649247 0.5399672100 0.4256054247 1.6385985785 3.1389893166 5.4223684575 1.3895953884 4.3498182754 9.6098691397 4.7792285557 1.7733488499 1.7907519305 5.9145247774 1.5421322090 3.1478743980 0.2311654290 4.1103138426 8.1862952080 2.8322936434 3.3943248513 6.8060735537 3.3829662851 0.9129262843 8.2974947096 0.4113102503 3.4518677683 6.8606200155 5.8257590449 0.9230410940 1.7863792227 3.4823912352 1.4546158982 3.2547648541 2.6578200671 3.9811840315
5.1522972717 2.9278727000 2.4560473432 2.7756424982 4.6675371659 5.0056570426 2.1291196912 1.5002168268 2.4542526379 7.2701633925 1.4779572245 0.0438549027 7.8143299961 4.6926975263 2.5434016631 1.1116555634 4.6166192943 2.2637474729 3.9284147474 1.5217954636 4.7107636937 8.8816838392 1.5541850344 2.7797413687 6.0676447033 4.6395530979 0.3137247977 1.2739494639 4.6529220844 3.7967583054 3.7267098780 1.5034255973 1.2249681535 8.7643132753 1.5073044807 1.2534813572 6.1938239049 4.6275607438 3.7971522071 4.5814558288 4.6027414236 0.7671465246 0.4003917217 1.4916594551 3.1851533643 5.4450320908 1.5715053549 4.3726040765 9.5810580797 4.6124957771 1.9073272084 1.8194832233 5.8237906625 1.5489446762 3.2166697815 0.3156209919 4.0212881141 8.1088159609 2.7483307903 3.4387790276 6.8187668136 3.4424556015 1.0268894197 8.1465544202 0.3342597398 3.4921609460 6.8194593977 5.8454869654 1.0135157628 1.8461076161 3.3968323718 1.5999078004 3.2449395042 2.7522937029 3.9859221779
5.1754367267 2.9171716038 2.4807591539 2.7653675911 4.6623097473 5.0191752753 2.1358478256 1.5000824131 2.4606360868 7.2750142701 1.4695508279 0.0474862505 7.8103365951 4.7169566495 2.5440108853 1.1133031981 4.6471271218 2.2652143379 3.9173901025 1.5161144834 4.7128761725 8.8769297192 1.5691225662 2.7863936016 6.0658761074 4.6419403501 0.3341020542 1.2924384117 4.6739462656 3.7927993756 3.7161539069 1.5069317269 1.2324116694 8.7571755117 1.5209788830 1.2538880666 6.2013260497 4.6418814323 3.8075513288 4.5781947297 4.6122088347 0.7698878105 0.3898123369 1.5170665556 3.1912391569 5.4394420281 1.5571982799 4.3908869430 9.5841456732 4.6420161877 1.9133312171 1.8133926693 5.8686317785 1.5723053288 3.1990182067 0.3018077855 4.0323820143 8.1122888517 2.7737844137 3.4476739378 6.8116261276 3.4343002651 1.0363538766 8.1381009041 0.3535666905 3.4840061516 6.8029068357 5.8511278420 1.0249629238 1.8517827105 3.4229283988 1.5958867273 3.2584646389 2.7515971294 3.9690667167
5.5567064869 2.0980958224 2.2637341566 2.6011269621 4.5543323622 4.8801810643 2.1520415465 1.5011544443 2.3606523669 7.3282872804 1.5901384056 -0.0392433551 7.6212539302 4.6667867460 2.4611390319 1.0019192589 4.5600920014 2.1006536258 3.8305097939 1.4262968872 4.6741969391 8.8316058448 1.5428287788 2.7670728371 5.9460077120 4.6840033811 0.1772733073 1.1733254061 4.6063699242 3.6320781571 3.6596385698 1.5353464903 1.1313032170 8.7276227386 1.4879855791 1.2338484978 6.1038126867 4.5990618760 3.7250173526 4.4472923338 4.5819109133 0.5102246857 0.4560860423 1.4892606260 3.2633315376 5.3504602129 1.4637975708 4.3993752702 9.3553299861 4.6600625153 1.6511766685 1.7634985401 5.7461613080 1.3939657105 3.1586344310 0.1981163877 4.0042606482 7.9954257199 2.7228271228 3.3835139474 6.7013899905 3.4909230332 0.9258117953 8.1034309333 0.3337464807 3.4735427240 6.6078249721 5.8943937618 0.9312243498 1.6916877386 3.3369746140 1.4143225310 3.1238748270 2.6092972909 3.8856595749
5.2021571792 2.8723157437 2.5631614064 2.7065630922 4.5381549333 4.9562169030 2.2166361736 1.4723389222 2.4851489736 7.3597982885 1.4826191328 -0.0370312142 7.8546024237 4.7754794001 2.5088897760 1.0585097844 4.6874064524 2.1831468989 3.9215843116 1.4283346462 4.7507000847 8.9868237337 1.6602396285 2.7213892167 6.1241649154 4.6172286869 0.2138249713 1.2562853216 4.5776166806 3.7091001915 3.7994957419 1.5707677815 1.2496632962 8.8090291029 1.6031417594 1.1925355356 6.2576126522 4.6617420984 3.7016785598 4.6134851972 4.5569702955 0.5421617182 0.4259775477 1.6384420570 3.1400943879 5.4227009378 1.3892456205 4.3529662314 9.6092798704 4.7807586613 1.7780894847 1.7915242456 5.9172338752 1.5419984452 3.1491790525 0.2325186338 4.1108290148 8.1845600915 2.8315069431 3.3976919197 6.8059675972 3.3856247534 0.9162942534 8.2934859163 0.4121060875 3.4522589224 6.8595312098 5.8283011360 0.9260301610 1.7886286612 3.4855016182 1.4577290779 3.2547273654 2.6590971627 3.9820960586
5.3805131099 2.3551674331 2.3160805526 2.6206700722 4.5563494167 4.8659947564 2.1135798626 1.5664201426 2.3366321235 7.2716837921 1.5846377802 -0.0413757527 7.6419636724 4.8555149571 2.5046747208 0.9879241681 4.5956882276 2.0726092953 3.8259327429 1.3934795490 4.6175860370 8.8442215801 1.5980354258 2.8147626035 5.9947051990 4.6572805622 0.2248915139 1.1978513455 4.5348220101 3.5996801854 3.6448512684 1.4881003258 1.0825094139 8.6459128334 1.5410720842 1.2903728585 6.1425389368 4.6501895830 3.7641775975 4.4964365435 4.5351421769 0.5703771135 0.4772017308 1.5262894899 3.3095270912 5.3630200747 1.4196871076 4.3424250228 9.3331771564 4.6893538474 1.6638609694 1.6553841630 5.8184841548 1.3284795850 3.1577571240 0.1691814297 3.9156340755 8.0543162539 2.7824326527 3.4817606863 6.7637693908 3.4731084344 0.9237033481 8.1281612311 0.3620896099 3.5259072004 6.6356211547 5.9071206316 0.9656083239 1.7343476658 3.3926518770 1.3529460857 3.1708540947 2.5961330601 3.8392263093
4.8844263794 3.2653630962 2.3790645949 2.7399615413 4.4153302662 4.7577883270 2.2122845564 1.3585636389 2.3356929989 7.4263343002 1.4553671448 -0.0091604065 8.0668990864 4.4545483703 2.4454414738 1.0506344343 4.4231439637 2.0258235835 4.0145071813 1.4108390713 4.5547647841 9.1645665380 1.4780459146 2.7159345096 6.2418844490 4.5867494672 0.2234573719 1.2186431384 4.4746261046 3.5541508176 3.8632044331 1.4561241013 1.1337284702 8.9293163872 1.5204176254 1.1924120769 6.4330866457 4.4834558854 3.6438261183 4.7112986083 4.5574690407 0.4821008268 0.4443358620 1.3479766399 3.1249818913 5.5141075217 1.5596721925 4.2044092657 9.7873802983 4.4792026622 1.5390119243 1.8373504297 5.6092939124 1.3235617058 3.3153661683 0.2164086034 3.8168004862 8.4860813282 2.6938199615 3.4480773945 6.9094099405 3.3707471829 0.9880123713 8.3881048696 0.2716668036 3.3966668365 6.9400469945 5.7849361444 0.9348863544 1.8173255536 3.2066294211 1.3787961898 3.2752759087 2.6253918855 3.8429652063
5.5624809187 2.0868105111 2.2655596978 2.5998935330 4.5526053951 4.8842839517 2.1524758401 1.4953874649 2.3640070184 7.3317615170 1.5866104192 -0.0388891587 7.6263434433 4.6496112278 2.4592416280 1.0029551239 4.5521800380 2.1025708612 3.8364043473 1.4306806170 4.6782543952 8.8350476773 1.5365178492 2.7651941241 5.9492480573 4.6783806831 0.1817590927 1.1668916387 4.5985413606 3.6356470002 3.6649284496 1.5344669430 1.1420239605 8.7298935340 1.4878713198 1.2318440803 6.1028610787 4.5975923857 3.7292730813 4.4546670806 4.5788110209 0.5132768910 0.4544719397 1.4873890220 3.2604095179 5.3549245440 1.4625020669 4.4033973753 9.3603838810 4.6590774377 1.6549923586 1.7628307168 5.7384974172 1.3922988806 3.1618244444 0.2004449073 4.0046378909 7.9989553824 2.7204754646 3.3764259837 6.7044323399 3.4818721787 0.9259628141 8.1040114695 0.3259416062 3.4742247379 6.6141565731 5.8912097307 0.9326260560 1.6974058745 3.3313033459 1.4163378252 3.1251784504 2.6088209800 3.8945700463
4.8865722515 3.2927303188 2.3656633797 2.7302485741 4.4793324588 4.7806806194 2.2222536095 1.3529377860 2.3696933321 7.4445655473 1.4819325213 -0.0415319540 8.0867589977 4.4527471849 2.4222762877 1.0648717010 4.4200201598 2.0463488750 4.0276112283 1.4254058473 4.5795897018 9.1723659175 1.4720779069 2.7024052263 6.2439510566 4.6274669253 0.1873281658 1.2569576039 4.4843717186 3.5754560008 3.8367582658 1.4800761122 1.1355756897 8.9343068940 1.5271048702 1.1901354225 6.4589225055 4.4925804197 3.6454758102 4.7195081869 4.5867495611 0.4789524237 0.4505075716 1.3349811418 3.1185839524 5.5290875480 1.5364635648 4.2005257938 9.8088947957 4.4960813016 1.5334171997 1.8356271701 5.6165879485 1.3229404649 3.3191699778 0.2153450127 3.8350460928 8.5009491097 2.7059434357 3.4401083604 6.9211798297 3.4180497270 0.9862625563 8.3983248174 0.2830224032 3.3892483542 6.9364474316 5.8438173542 0.9008528917 1.8366410760 3.1959502461 1.4361729702 3.2663509336 2.6303819587 3.8650668284
5.2026300787 2.8653314866 2.5918042195 2.7340546938 4.6035155320 5.0326792799 2.1937295323 1.4873509213 2.4821780611 7.3218484392 1.4628136839 0.0158920379 7.8219355092 4.7822485234 2.5426724960 1.1028861807 4.7131315979 2.2466598678 3.9172421789 1.4715012246 4.7462577765 8.9298395034 1.6359387201 2.7816066261 6.0867524644 4.6477348277 0.2929304828 1.2854751632 4.6399747276 3.7674346303 3.7252689712 1.5803491440 1.2429511590 8.7774464173 1.5877137112 1.2468181229 6.2781894370 4.6801290211 3.7858236260 4.5884005543 4.5768196688 0.6776240120 0.4126258893 1.6190307983 3.1797544127 5.4332712631 1.4441716026 4.4100701915 9.6082856728 4.7672099267 1.8808991518 1.8068109524 5.9379018119 1.5553598610 3.1578232030 0.2780427700 4.0701755570 8.1432934309 2.8181187168 3.4578000901 6.8037423137 3.4347239336 0.9970067412 8.1603484192 0.4097017896 3.4411010490 6.8147137744 5.8509775506 1.0090403167 1.8676433770 3.5343647334 1.5054744867 3.2634579011 2.6916444672 3.9609514692