-28927.8239401358
-28927.7938288501
-28927.8011887094
-28927.7502506576
-28927.8060013122
-28927.3755019297
-28927.7876007118
-28927.799400106
-28927.5125156671
-28927.8133349125
-28927.8272603311
-28927.8219311203
-28927.513099487
-28927.8641413973
-28927.4844259141
-28927.5035740109
-28927.8148350753
-28927.7736607352
-28927.8053536816
-28927.7926118216
-28927.7760565602
-28927.815341615
-28927.8104428881
-28927.5086014476
-28927.7751204891
-28927.5408055596
-28927.8149114032
-28927.5149486357
-28927.8008712887
-28927.7812144754
-28927.8038091643
-28927.844017909
-28927.5066683519
-28927.4958806764
-28927.7988149255
-28927.7779888396
-28927.8091817772
-28927.5110476137
-28927.8906571086
-28927.8239220402
-28927.8424585614
-28927.7922169846
-28927.7768150772
-28927.5075185711
-28927.511134554
-28927.8379624268
-28927.8039155607
-28927.8263653491
-28927.4888744289
-28927.7924482813
-28927.7779876151
-28927.7889804643
-28927.782690148
-28927.5271299415
-28927.8242855841
-28927.6040186604
-28927.8245364729
-28927.8065289407
-28927.4905696972
-28927.8160614918
-28927.8258115977
-28927.8979101632
-28927.7927222998
-28927.7842575229
-28927.882334239
-28927.8089255821
-28927.7849271947
-28927.8051082351
-28927.7993303089
-28927.383821806
-28927.8669166849
-28927.8487812593
-28927.7917922152
-28927.6760739598
-28927.8260550034
-28927.8952498436
-28927.8873117428
-28927.5035458472
-28927.7801547286
-28927.8189116107
-28927.7789525303
-28927.823548156
-28927.7303322069
-28927.8006808091
-28927.8150561677
-28927.5051526786
-28927.8108169084
-28927.7853967269
-28927.8389979555
-28927.8134505608
-28927.8176253292
-28927.8611712763
-28927.7867081789
-28927.8241640853
-28927.8366368249
-28927.8029009848
-28927.7983455294
-28927.7816517621
-28927.5110836687
-28927.5090794153
-28927.7954145927
-28927.777039571
-28927.7778697899
-28927.8903173746
-28927.7716839652
-28927.5169319364
-28927.7777755025
-28927.5221822341
-28927.8346595107
-28927.5102183472
-28927.8588438878
-28927.8077307309
-28927.483312697
-28927.8626545681
-28927.3958937221
-28927.4855440293
-28927.5474784678
-28927.83498319
-28927.5051619304
-28927.8037620886
-28927.8116898491
-28927.7748889203
-28927.5215699783
-28927.4903246589
-28927.8268063093
-28927.8104311872
-28927.7761610519
-28927.784535351
-28927.809413618
-28927.4571461076
-28927.8308071971
-28927.8288730129
-28927.7883064387
-28927.416609738
-28927.5208729591
-28927.8439199481
-28927.7756811794
-28927.8016000092
-28927.5052594832
-28927.7989571049
-28927.8455180718
-28927.8012004103
-28927.8019747098
-28927.4003943466
-28927.5078632031
-28927.5149354382
-28927.7732673948
-28927.7830210382
-28927.8024812494
-28927.8125548986
-28927.7790555253
-28927.896411497
-28927.4862670354
-28927.8152851514
-28927.8434306876
-28927.7931572735
-28927.5061789554
-28927.8994220269
-28927.8095996077
-28927.8139154671
-28927.8489556842
-28927.5870081528
-28927.8951411342
-28927.8082108755
-28927.8080280151
-28927.7994093579
-28927.7974947659
-28927.7877050674
-28927.8021660057
-28927.8236277492
-28927.7886037229
-28927.803418273
-28927.8167844979
-28927.828401848
-28927.8097891349
-28927.7862374222
-28927.8018453197
-28927.401201708
-28927.5051079159
-28927.7984987294
-28927.8084784993
-28927.8139328824
-28927.4927942267
-28927.4836727034
-28927.884062297
-28927.522777891
-28927.4461391085
-28927.7825415739
-28927.873172851
-28927.8235223052
-28927.6501690077
-28927.8194842739
-28927.5165641747
-28927.8899878449
-28927.823361486
-28927.8222669086
-28927.7644424754
-28927.8146139829
-28927.8127505483
-28927.7764582
-28927.7742434666
-28927.7709533399
-28927.7832229466
-28927.778257824
-28927.8694589072
-28927.8659584366
-28927.7964710742
-28927.8112001805
-28927.3866515164
-28927.796736385
-28927.8279082338
-28927.502743792
-28927.8080774037
-28927.5217237226
-28927.80713521
-28927.889720085
-28927.8005150919
-28927.8626087169
-28927.8272835968
-28927.6820321613
-28927.8270648174
-28927.828409059
-28927.4927743624
-28927.7790177015
-28927.7828115107
-28927.7798993499
-28927.8342769188
-28927.8179152663
-28927.8174601562
-28927.7886984185
-28927.82477362
-28927.8208713735
-28927.7943402878
-28927.6435053514
-28927.7944099489
-28927.782192452
-28927.8272680863
-28927.5190733351
-28927.8185389509
-28927.5254130401
-28927.8410801695
-28927.785179172
-28927.7763236398
-28927.7894908135
-28927.5004305535
-28927.8708462789
-28927.8051113644
-28927.8330892786
-28927.487646924
-28927.8195547514
-28927.8027174441
-28927.8967519112
-28927.8462586292
-28927.8935285884
-28927.7996739885
-28927.6189197426
-28927.8322631414
-28927.8034652126
-28927.7825798059
-28927.8773964638
-28927.7951956773
-28927.7887799165
-28927.8251404293
-28927.8332854726
-28927.8186023534
-28927.4917008739
-28927.3762171805
-28927.4498591749
-28927.7996243277
-28927.8379323582
-28927.782139798
-28927.7998674613
-28927.505531869
-28927.8971576327
-28927.8916605278
-28927.7789340265
-28927.8300632382
-28927.8199619695
-28927.5115278944
-28927.8281076931
-28927.7675037545
-28927.4881624434
-28927.8579056398
-28927.4120273433
-28927.8001193025
-28927.8562647942
-28927.79943344
-28927.8300497686
-28927.8298463636
-28927.8533616131
-28927.7926262436
-28927.5194442261
-28927.8237748267
-28927.4466694581
-28927.8858785199
-28927.8792415307
-28927.8134243019
-28927.5041898042
-28927.8315703399
-28927.4796356246
-28927.8274670014
-28927.8353671424
-28927.8434868791
-28927.8305141306
-28927.8614831186
-28927.8534135869
-28927.7770225639
-28927.8081367245
-28927.8209934165
-28927.5114446276
-28927.7803642561
-28927.854909668
-28927.8529431023
-28927.5121156599
-28927.5005134121
-28927.806498464
-28927.5151045568
-28927.7919941235
-28927.8102906405
-28927.5090911162
-28927.82725312
-28927.8259355455
-28927.6932635182
-28927.8253347185
-28927.7787585132
-28927.7820071426
-28927.4869452788
-28927.7983351891
-28927.6369602006
-28927.8267947445
-28927.4914095762
-28927.3856910911
-28927.812910007
-28927.5172682689
-28927.8397785136
-28927.8957260426
-28927.7761620043
-28927.8088689825
-28927.8175377086
-28927.8266090269
-28927.8017511684
-28927.830771142
-28927.8244572878
-28927.5071825107
-28927.4144535091
-28927.432460361
-28927.3848120278
-28927.7808292984
-28927.8091345654
-28927.8291745149
-28927.4163504137
-28927.5190019053
-28927.5115470784
-28927.7920735807
-28927.5114683015
-28927.7692939906
-28927.8000259675
-28927.7972513602
-28927.7566152609
-28927.8271671321
-28927.8123276836
-28927.7888325705
-28927.8558847874
-28927.8031507852
-28927.569269605
-28927.8584653777
-28927.5063490264
-28927.7974599353
-28927.7955211252
-28927.7859292534
-28927.509846912
-28927.8011085719
-28927.8237270707
-28927.8913452841
-28927.8168976972
-28927.7876747267
-28927.8315302032
-28927.3847782857
-28927.7952344535
-28927.5086530131
-28927.8072520829
-28927.7693807948
-28927.7767777976
-28927.5094658167
-28927.7821898669
-28927.8021016508
-28927.5104533174
-28927.7726793571
-28927.8154405283
-28927.5200321277
-28927.4870763016
-28927.5380846948
-28927.7750081061
-28927.8246745706
-28927.8264399083
-28927.3923693055
-28927.6877499505
-28927.5017183316
-28927.8591708324
-28927.7674350458
-28927.8876812732
-28927.8039827728
-28927.7842085424
-28927.7690708573
-28927.7734299827
-28927.5053277837
-28927.8201559866
-28927.4829186764
-28927.5227938097
-28927.7965959744
-28927.8000349473
-28927.8055286508
-28927.850616122
-28927.8259939139
-28927.8882252284
-28927.8201295916
-28927.8070590182
-28927.5057430292
-28927.7975753116
-28927.8376490879
-28927.8081605344
-28927.7831094752
-28927.8270461776
-28927.8273864558
-28927.79072689
-28927.8291610452
-28927.806424313
-28927.5081904198
-28927.8503143479
-28927.7903496044
-28927.8360206234
-28927.7899846999
-28927.8264841267
-28927.5069102609
-28927.7771051504
-28927.8277690476
-28927.7950208442
-28927.8109679315
-28927.8344641331
-28927.7868983863
-28927.7986858076
-28927.8270718923
-28927.8108867055
-28927.8227089573
-28927.7781085696
-28927.7903927344
-28927.7778949604
-28927.8260212613
-28927.8115898473
-28927.8522911178
-28927.7863864044
-28927.6698682708
-28927.8927600032
-28927.831070331
-28927.7747538159
-28927.8232808043
-28927.8091601441
-28927.7916464983
-28927.7764420093
-28927.8011333342
-28927.4535645471
-28927.6136105323
-28927.8454701798
-28927.7688077234
-28927.7896763951
-28927.4665767521
-28927.7688621461
-28927.811210793
-28927.7938035436
-28927.8580678196
-28927.76977604
-28927.8395504823
-28927.772463707
-28927.8250802922
-28927.5646447605
-28927.5911995201
-28927.8221071779
-28927.7633439524
-28927.8097718557
-28927.806400503
-28927.7915602382
-28927.8155291013
-28927.8485503708
-28927.5221075389
-28927.816825587
-28927.5179105933
-28927.7876590802
-28927.770242715
-28927.8835869144
-28927.8261095622
-28927.8995327772
-28927.8011767364
-28927.3794424082
-28927.7953299654
-28927.5058035745
-28927.7741238727
-28927.5104156296
-28927.5050524047
-28927.7967129832
-28927.7740890421
-28927.7865783806
-28927.833693235
-28927.8717558189
-28927.7655024943
-28927.7884502508
-28927.8031872484
-28927.8010312916
-28927.8209525994
-28927.7629019037
-28927.8226567115
-28927.8277195229
-28927.8057549133
-28927.4483964277
-28927.8193407339
-28927.8268860387
-28927.377405365
-28927.7944503578
-28927.8940631557
-28927.3879281378
-28927.853993053
-28927.4459403294
-28927.7749078322
-28927.8319186455
-28927.815746112
-28927.4841469976
-28927.8371511198
-28927.7793102237
-28927.7966648191
-28927.8331227486
-28927.7810577379
-28927.7713525307
-28927.7799623442
-28927.8621766004
-28927.8292768296
-28927.4473996752
-28927.7817599273
-28927.8256095533
-28927.8855337518
-28927.8363294725
-28927.4441090042
-28927.8012417715
-28927.8910009242
-28927.5223735301
-28927.8119928477
-28927.8287131461
-28927.8846481578
-28927.778813208
-28927.8253475078
-28927.8886582974
-28927.8246857273
-28927.8364942373
-28927.7927959065
-28927.5107753639
-28927.7891157048
-28927.8610727711
-28927.6306316523
-28927.8297177899
-28927.796346174
-28927.7773386239
-28927.4892661366
-28927.5146758417
-28927.8038286204
-28927.7436668666
-28927.8622223155
-28927.8471095288
-28927.7839701708
-28927.7799264252
-28927.4387106766
-28927.8738204816
-28927.788245077
-28927.857673935
-28927.5102218847
-28927.7238640643
-28927.8459769916
-28927.4836181446
-28927.4964080327
-28927.828880496
-28927.8009338749
-28927.4887727944
-28927.8306616162
-28927.8542527855
-28927.5148682261
-28927.5215589577
-28927.8392118368
-28927.7819512232
-28927.4497372679
-28927.8064907087
-28927.7946476403
-28927.8213745117
-28927.828246335
-28927.8073201113
-28927.8986043252
-28927.5080636149
-28927.4757360992
-28927.7772243362
-28927.5337296511
-28927.8310078809
-28927.8524366987
-28927.8132728706
-28927.8355365332
-28927.8234394465
-28927.3777331259
-28927.7769686853
-28927.5235576328
-28927.8260570443
-28927.893156745
-28927.8615267929
-28927.8979731575
-28927.8298742553
-28927.8032514673
-28927.8186848039
-28927.7802356824
-28927.5055364949
-28927.8879778771
-28927.8088595945
-28927.5225448256
-28927.8111380026
-28927.8123319014
-28927.4480844493
-28927.5069329824
-28927.8284607606
-28927.8253658755
-28927.4970699493
-28927.8923893844
-28927.7779824449
-28927.8110045308
-28927.5094734359
-28927.5127426099
-28927.8233176757
-28927.4894685892
-28927.7906451199
-28927.7955921469
-28927.5224823755
-28927.8096370234
-28927.8412978605
-28927.8287022615
-28927.8916890998
-28927.65684695
-28927.7815110793
-28927.5077344933
-28927.848830784
-28927.7936976913
-28927.5357458775
-28927.4875697798
-28927.7767133066
-28927.7945879113
-28927.799191939
-28927.776666367
-28927.4058236952
-28927.7955092883
-28927.8556219256
-28927.7878737779
-28927.8417951482
-28927.7959423572
-28927.8165726573
-28927.8542047574
-28927.8237360505
-28927.7942636878
-28927.7833253974
-28927.3898801454
-28927.899168689
-28927.8100319964
-28927.8547227259
-28927.7856541464
-28927.6246002522
-28927.4530518849
-28927.7774364488
-28927.8607142613
-28927.7808973269
-28927.5198635533
-28927.8285206257
-28927.817950369
-28927.8375124868
-28927.7735784208
-28927.5089222696
-28927.834535699
-28927.8808895873
-28927.8166888499
-28927.7851652942
-28927.7754598149
-28927.7623333221
-28927.5047596103
-28927.7935975535
-28927.8127123164
-28927.8015334774
-28927.8058614458
-28927.5439378604
-28927.8273540742
-28927.7983028075
-28927.8753664956
-28927.8823369601
-28927.7849394398
-28927.7022436785
-28927.785851701
-28927.8295319362
-28927.4855691998
-28927.8097296781
-28927.5140599123
-28927.4908773218
-28927.8888795258
-28927.824747225
-28927.5219695773
-28927.7888674011
-28927.834262905
-28927.5996198064
-28927.8345231817
-28927.7906931479
-28927.8292286655
-28927.8021800196
-28927.7873826127
-28927.8108350039
-28927.8372169713
-28927.827978303
-28927.5303249645
-28927.8634914538
-28927.5205291434
-28927.8377221504
-28927.8055636174
-28927.5094768374
-28927.4980623479
-28927.5118517097
-28927.7789627345
-28927.5513917349
-28927.5010471631
-28927.698252995
-28927.7994165689
-28927.3826000155
-28927.5106108712
-28927.7765176569
-28927.7788348411
-28927.7771418857
-28927.4516170294
-28927.8321706228
-28927.8266732457
-28927.7897829276
-28927.7761905762
-28927.8275061858
-28927.8774134709
-28927.8896749142
-28927.4944429636
-28927.8296371082
-28927.7841338472
-28927.812560613
-28927.8364734206
-28927.782036803
-28927.7639600178
-28927.8009648958
-28927.7781351007
-28927.8270035918
-28927.8223214674
-28927.4833141936
-28927.8255798929
-28927.7719883244
-28927.784305687
-28927.8208419852
-28927.7858220406
-28927.8137673012
-28927.8146795623
-28927.8184375886
-28927.8560163544
-28927.8219305761
-28927.8185422163
-28927.7814676772
-28927.425687315
-28927.8122736691
-28927.8280434743
-28927.5030650223
-28927.7120087507
-28927.8509150389
-28927.5783584746
-28927.8333427525
-28927.5287454805
-28927.7978668814
-28927.8010318358
-28927.8223567061
-28927.8333861546
-28927.7369814412
-28927.8310106021
-28927.5158127327
-28927.7784665352
-28927.7910526101
-28927.805845119
-28927.8115407308
-28927.8276787059
-28927.7960513388
-28927.8229718192
-28927.8315881634
-28927.5076864653
-28927.8235911499
-28927.7785649043
-28927.7799583986
-28927.5226860526
-28927.8597994151
-28927.7740826475
-28927.7687703078
-28927.8473510297
-28927.8627783798
-28927.7878710568
-28927.7776282889
-28927.80827904
-28927.8252083216
-28927.825891327
-28927.8096797452
-28927.7939092597
-28927.7970861872
-28927.7732697078
-28927.3954953477
-28927.6086587432
-28927.8053694642
-28927.8320987847
-28927.7683685319
-28927.8090063999
-28927.6634405371
-28927.8385499203
-28927.8010378223
-28927.5067139309
-28927.8280989855
-28927.8111193628
-28927.7780491128
-28927.826839099
-28927.8106797631
-28927.8372413255
-28927.8203778953
-28927.8210459344
-28927.8159133259
-28927.8517848503
-28927.4514115835
-28927.7832941043
-28927.7699183555
-28927.7622402593
-28927.8271547509
-28927.4187558988
-28927.8077983511
-28927.8756889503
-28927.4065467013
-28927.851422667
-28927.4110942655
-28927.5130343158
-28927.8025436995
-28927.8151695031
-28927.5060465721
-28927.7822893245
-28927.8037571906
-28927.8253894133
-28927.8255420691
-28927.8042316208
-28927.8945819405
-28927.8053308241
-28927.8234394465
-28927.513065881
-28927.785918641
-28927.7795476429
-28927.8157740036
-28927.8237225809
-28927.5133945943
-28927.8996334592
-28927.5953764654
-28927.8257638418
-28927.8000757643
-28927.3897634086
-28927.7658269899
-28927.3751597467
-28927.8237620373
-28927.461753945
-28927.8935887255
-28927.8277512242
-28927.513592421
-28927.4940998283
-28927.886845612
-28927.5076962614
-28927.7767994306
-28927.5214224927
-28927.827791497
-28927.5053481923
-28927.7982856644
-28927.5319543813
-28927.7982524665
-28927.8005848891
-28927.7879838479
-28927.7729922879
-28927.5210360912
-28927.8320766075
-28927.8279075535
-28927.7822241533
-28927.7863307572
-28927.8235125091
-28927.801128028
-28927.7797767627
-28927.5109365913
-28927.8277916331
-28927.8862597512
-28927.8551110321
-28927.8338653469
-28927.7997191593
-28927.7916716688
-28927.8058434863
-28927.805103201
-28927.8228107278
-28927.8041493064
-28927.8891195301
-28927.7710748387
-28927.5146943454
-28927.7626721037
-28927.5738594828
-28927.4848158531
-28927.7900629326
-28927.8208105561
-28927.7702964574
-28927.8250526726
-28927.5095194231
-28927.8106099659
-28927.8263623558
-28927.8139039022
-28927.8163058499
-28927.8570335154
-28927.811452566
-28927.8893845689
-28927.485571921
-28927.7068332842
-28927.8537467901
-28927.381117404
-28927.814327039
-28927.8192722974
-28927.8170201483
-28927.8988700442
-28927.7821006137
-28927.8684262357
-28927.5180288267
-28927.8920352284
-28927.7697367196
-28927.835746741
-28927.8373967024
-28927.8020095403
-28927.5145357031
-28927.5556141232
-28927.560062638
-28927.5827397773
-28927.7905409003
-28927.8790559492
-28927.7864210989
-28927.7800211208
-28927.8175945803
-28927.8295298954
-28927.7177160634
-28927.8034653486
-28927.5061215394
-28927.7807019492
-28927.3748246387
-28927.8143283996
-28927.8065240427
-28927.7625919662
-28927.8155663809
-28927.4531088927
-28927.8071611969
-28927.769204057
-28927.880678155
-28927.7979123244
-28927.4529709311
-28927.7961981441
-28927.4950788934
-28927.7757225407
-28927.8027545876
-28927.8114733827
-28927.5227042843
-28927.4986310656
-28927.7981452537
-28927.7914988766
-28927.7928163151
-28927.7707700713
-28927.8241121116
-28927.3805383461
-28927.8232492391
-28927.7923010678
-28927.5053910502
-28927.4988727025
-28927.8544327887
-28927.8211838961
-28927.8250881835
-28927.7928963165
-28927.831984633
-28927.827439654
-28927.8333208474
-28927.8884453684
-28927.5057101035
-28927.4929813049
-28927.4713215987
-28927.7809016807
-28927.5062438545
-28927.7726833028
-28927.8877751524
-28927.5140167823
-28927.8090083047
-28927.7689820122
-28927.8306256972
-28927.8604552091
-28927.8411750011
-28927.5085490657
-28927.8170334819
-28927.7862576946
-28927.7734533845