-0.116877404194979 -0.00940637605283392 0.141566409537971 -0.0830609873479381 0.0484009919897768 -0.133170733615346 -0.157233675662216 0.0953868495311513 0.513317909682175 -0.181845290840061 0.110342434668263 0.244132803825152 0.07513325195876 -0.389144489818172 0.170886997721356 0.0780473387752919 0.00110017447396683 -0.153130454248325 0.120415754536351 0.265148475980585 -0.216922576025576 -0.0724194539749507 0.0735535669931016 0.0962705372308531 -0.0417397813631041 0.199591035685396 0.203704541506615 -0.165474571254547 -0.0893504166496853 -0.0247967345097585 0.158647010339335 -0.106604309714535 -0.172806582349221 -0.0131936090515559 -0.0542764738965517 0.112745129330385 -0.0775560012151725 0.192026082764731 0.068568457650792 0.130003907488716 -0.240281807500993 -0.218456752488806 0.00888212838926337 -0.0703558876444862 -0.24373171193934 0.0850556481493016 -0.130461306504651 0.157710357941892 0.265352621466056 -0.0789940184698807 0.0629040632044346 -0.0387002247771644 -0.209150649407425 0.229306802220379 0.0262144400599929 -0.0613601165542428 -0.228393546849608 0.00148275442658721 -0.0068442730771201 -0.0932566916632347 0.0856148627977891 0.048392764463914 -0.12146887784679 0.00321027774759285 0.0258264607935251 -0.240845135912412 0.0243892148693665 0.0515091969946343 -0.0383271579013229 0.0340084781539004 -0.0164072292315305 -0.0847674276339203 -0.14835617525625 0.351359834403428 -0.0310401410887107
0.0275195313499802 0.171075459485651 -0.149216723039463 -0.118122331702094 0.0959841164867543 -0.121397144105673 0.437340050771562 -0.0434115117743526 -0.0838032644468729 -0.0352765455775051 -0.0174724367205804 -0.166459046146068 0.185981679467586 -0.0420336583025161 0.431068362072456 0.300998891487021 0.18713610419021 -0.178698776417905 -0.0526289118425252 0.136582842856761 0.150327696141125 -0.36706695260607 -0.461582455726314 -0.127869635857868 0.231563201188253 -0.122305514382964 -0.126081948753991 0.364381693852598 -0.150047960261789 0.178514171306358 -0.102801135884454 -0.170464565690337 0.0851289245515172 -0.00832959860553944 0.266531214545903 -0.129611814459317 0.143812524098517 0.0258195188185783 -0.382146721961674 -0.371667682224477 -0.127611497233923 0.055592363814234 0.0398173685232233 -0.0970943182578664 0.451013170314809 -0.267487921537637 0.183121071569162 -0.203327360867842 -0.0340231334343436 -0.118378670554757 0.0951330817803205 0.032659678132767 -0.0396278783181956 0.117927699293402 -0.208666253822253 0.136948453537289 -0.0341228921854301 -0.295562810883357 0.148326093364814 -0.0661981588717548 -0.0921632020540314 0.0776120512351129 0.0193148882934821 -0.102830960665706 0.0701640834478095 0.21656596420146 -0.094443255158761 0.127378041187566 0.0441597024075013 0.0852525945496425 -0.018660542877206 -0.0769067980025606 0.301743739687788 -0.21798804062481 0.00109374671938651
-0.290183808740365 0.0209922751287613 0.142595107381005 0.0832175674495146 0.0829913104882874 -0.0288608751758005 0.146667732683093 0.0410545827248425 0.0589234833479367 -0.131282259319649 0.186988265834863 -0.106935467630513 -0.0860856315432514 -0.141488248042274 0.408724972930913 0.0111431553404352 -0.040006858728251 -0.170581036603333 0.255535126230265 -0.154344014313089 0.275110210029159 0.206592660194643 0.315302188089323 -0.1901396653505 -0.182495265383223 -0.129050028708997 -0.563285988238633 -0.186909075898434 -0.202598967718801 0.289148168922385 0.0578796160040935 0.170612146935501 -0.0687520343216058 0.0341396043473389 0.00652468511938681 0.19655173620964 0.0870209983897789 0.0331469019299549 0.0151453324523229 -0.0371025420986812 -0.156710456439378 -0.101727443759358 0.290085078430012 0.0491458401905438 -0.0696969142449122 0.027446769168131 -0.0778956437671964 -0.0789485099674521 -0.185387240723998 0.0457638128405649 -0.00904230803340484 -0.0317973305782719 -0.324596464102276 -0.181925509217223 0.106058464795575 0.260018356494944 0.0189631615628472 -0.0409021163861974 -0.144496951406229 0.00600249433728196 -0.0205770421828729 0.154038824525616 -0.0672636234709879 -0.092300498891867 -0.26139055354275 0.128551492063748 0.222816055645176 0.127097276867497 0.107675430737799 -0.0138674948417562 0.12465730122881 -0.144049836797622 -0.229712522089488 0.0142441612601627 0.133817879946492
-0.165303078762344 0.225717544062731 0.160883354712919 0.110542466390803 -0.101103951565067 -0.0829334606970646 0.0308259683060946 -0.117834625407079 0.126962808241677 -0.158279599887525 -0.0595798856456786 -0.0463651935590992 0.092040560496639 -0.30825839751003 0.108046440732175 -0.0615290379446135 -0.179289615618928 0.217878511686761 0.0636018602416737 0.0181730619698348 0.228897225698521 0.355586982925627 -0.109030401403329 0.089103333763618 0.0576515592715839 0.112670053156887 -0.106780944410402 -0.17961151756831 0.0541175798033263 -0.0329908360487449 0.104866244876018 0.0757413175420578 -0.179471649628642 0.0768342929308947 -0.073146561573076 -0.063216452077038 0.0215556035401801 -0.0181257536961237 -0.300679817749654 -0.197531068897497 0.157448619775381 0.161801752287354 -0.0656302024770381 0.0511387012206249 0.162625790424551 0.0350857698215613 -0.0511469287464877 -0.130548723966944 0.179720532285992 0.154617065327661 0.0197612315715392 -0.112235279837075 -0.20353047791258 -0.0363762058311055 0.134612607522802 0.264156544893751 0.132461366619862 0.0763175014626373 -0.0789621368071624 -0.128509583103884 0.0478137523313192 0.123142922249687 0.166908474746324 0.014267558286835 0.0529508137919074 -0.125696540589355 -0.168460391812195 -0.178342678814155 -0.159085383201713 0.0524913578945065 0.124795626507378 -0.0260971978164479 -0.34523444139857 0.0636815643984696 -0.15657855891539
-0.218109910851652 -0.0994075385762304 0.171018895245344 -0.0368050656167042 0.217898566281052 0.158605872710021 0.0514240935239909 -0.0983796120637463 -0.25656948049733 0.0961514952160257 -0.104801453109848 0.151511688534819 0.0621373606380946 -0.0168440594328088 -0.089182009479681 0.100046200271331 -0.227953631326131 -0.0338308150173005 -0.237666996937721 0.0447415427521115 -0.149917091178534 -0.345208987490432 -0.164395736925787 0.0291305837579905 0.0197437480790808 -0.0221829523872189 0.0364697939377949 0.366804185998827 -0.000606522922198584 0.343321284525285 -0.135414534184243 0.185655663755272 -0.0684036500233527 0.184332060532094 0.120785478979811 0.0802798264961271 -0.0849993410191781 0.0903482612707335 0.061831913740438 0.12038850085693 -0.045260905322201 -0.101359261976997 -0.0822513473810015 -0.265160303049013 0.0178131077133371 -0.178574849309596 -0.132954761061447 -0.189879212734906 -0.0656299453668549 0.037965660983726 -0.196481545129623 -0.134072161917689 -0.0424710027241608 -0.166674247369417 0.208924649556381 0.172535331105932 -0.148565720055568 -0.0741138100823219 0.0415472058358778 0.0420683681772498 0.0732236946280398 0.273447221364139 0.233990578427963 0.105859461513768 -0.0285340881329372 -0.133220870101072 0.00656248031631906 0.0948224926789996 0.0583745531067778 0.036544870111293 0.222915043065713 0.198813277381178 0.16070414891522 -0.253709901039639 -0.049146097300727
0.0595125227776769 0.0889444396703926 0.00160539598397964 0.288202260558345 0.0718101028407368 0.08231125405369 0.0755759956942521 -0.0252572188478923 -0.0350148074109947 -0.0151610161734989 0.00854505693907162 0.178715488579814 -0.123750730722802 -0.0873884088415898 0.070336347270562 -0.239855261707043 0.104100313640227 0.273578090447395 -0.334482864867168 0.0788904030660461 0.618187239880392 0.361794136968746 0.0883975663106993 -0.33391079470952 0.179051788699456 0.130635884319053 -0.444844325688989 -0.226161059128772 0.0907113008494297 0.0168034360238612 0.0255752641445263 0.00936086755040528 -0.454331177229168 -0.184162624921356 -0.00441046808282938 -0.176000919265455 0.253134488449609 0.00293979783485316 0.0154998873949732 -0.543207996921376 -0.151244808164644 0.144775658844831 0.171992057288804 0.135431760566518 0.109152785850539 0.389628628293161 0.153120941171546 0.0224056098058811 0.0774418442938261 -0.00517228555568839 0.0150882539916497 0.0843012868717558 0.0631035807066076 -0.0260910271720508 -0.347328603840837 -0.405726553974287 -0.308498024200784 0.0225578190343429 0.117397280985435 0.0366518279475095 0.0692356585762288 0.338907731120257 -0.0213491440630604 -0.335861489669554 -0.437896437208034 0.17874557047125 0.179786352492894 -0.253394169734654 0.255357720203849 0.0170325211971036 -0.112418085177339 -0.387066268207264 0.0951497939422293 0.000611150905496412 0.167891664086929
-0.106483982148791 -0.119037643954331 0.225904720276109 -0.267075259693581 -0.170732474501245 0.0584645416709022 0.0967868144787441 -0.0450472467599513 -0.287993487089577 0.0036165118370688 0.474865282011445 -0.196029288317352 -0.235878795613477 -0.272935829209729 -0.366137499293757 0.146672103556207 -0.0229221441639552 -0.215277842183565 0.106562657864855 -0.265988969169507 -0.318591655773345 0.277860517658984 0.572761526930751 0.147143643632219 -0.0582537113206679 0.0930684870091231 0.400035162958692 -0.107948738862554 0.202836280417906 0.144648389304141 0.00186687704030688 -0.130325809438098 0.145935739991486 -0.0533897008746514 0.0295769270360476 -0.0303544282300826 -0.126149054511809 -0.0236898751710281 0.111150531974101 0.155526721155867 -0.00164524806237759 -0.194255999383734 -0.0347127029457198 -0.286853460537212 -0.140240492323144 0.275048503585188 0.137636994607932 0.381754114711908 -0.0885479757678787 0.00650668740656192 0.0163766331197282 0.0555453126507061 0.013459718091181 0.124509977093829 -0.0162064261784414 -0.0627963340376685 0.0768823725351554 -0.333603290930397 -0.180890897839976 -0.114528188450965 0.108019958383304 -0.140523827745044 0.0136749193145299 0.0409062301491288 0.220121026704741 0.215516954653953 0.0642137824777197 -0.32479443894335 -0.15505235286784 0.0351667595292733 0.0311375858481483 0.0817031884703922 0.0604568884806168 0.266214197690002 -0.125239655793786
-0.122383418768477 0.1956778186969 0.109766250747684 0.0502696688013662 -0.118628838763023 -0.140960657946322 0.026382590119814 -0.0749815569506645 0.216553365802483 -0.0705590046892241 -0.114707651358847 -0.0418999610072456 0.0959555772564177 -0.270382982200611 -0.0225971568923745 -0.0907984612015388 -0.0905310666109977 0.303807048908069 -0.145385009979045 0.336307061617061 -0.378247646033255 0.100512341033495 -0.278135368444838 -0.0973452577966819 -0.308337330336276 -0.0292015461685572 -0.0307704325065206 -0.0833180975311507 -0.0465623970696233 0.0586766575720526 0.0458604862694529 0.126199448107719 0.286945248872619 0.0631771142190064 -0.0949980989341339 -0.175004360195323 0.0232990676925449 -0.0643086561353252 -0.332108966545566 -0.0345558657339601 0.0964906235476831 0.00512266329032836 0.154338357889058 -0.0400729360453367 0.148178255009467 0.188091525631029 0.0406239231679613 -0.149466119917179 -0.08752287746741 0.142045405809296 0.0147465545581602 -0.0085507133631023 0.138964197373676 -0.140160531056164 0.011170666130039 -0.166354659411684 0.00983420739769973 -0.101785807770947 0.102990368979298 0.13143678253976 0.0838875965869667 0.131732973470821 0.13754957714564 0.0984145790486632 0.17070727770329 -0.0851788039270605 0.121314354626679 -0.0084671525535582 0.0655350717092494 0.156836440429152 -0.191571254850628 0.0187903835197283 -0.166313778892553 0.107164552803755 0.0867975696405671
-0.0286629003347267 0.105769730059827 -0.10724734228275 0.337253998421833 -0.334657699791752 -0.155784088449263 0.0795648030766128 0.246545525784419 0.119457504883517 -0.1911351959799 -0.0974023362573551 -0.116461657028724 0.116994132218157 0.425290582035302 0.192697140342916 -0.0840711732577805 0.171472694718714 0.152969760383817 -0.157428308070908 0.521308379956057 -0.26770260854062 0.265206582881991 0.425036557174288 -0.0384657402900745 -0.14162631621066 -0.310541793047141 -0.024131076245421 0.252016830483184 0.116355470523057 -0.0510304578334923 -0.348425692992605 -0.237913051383055 0.431506477824651 0.113318227928766 -0.128537093893488 -0.14424575475723 0.00323804564737981 -0.0283695376156811 -0.210394548473808 0.175900389183819 0.197371660583905 -0.126150082952542 0.1337304624842 -0.11302563654027 -0.073317025624546 0.0377769421092479 -0.161615604514708 -0.0833713193390757 -0.125659516722972 -0.249056720943857 -0.0254528796973171 0.102348621962 0.0627870780710729 0.121653997178703 -0.0852330541757183 -0.106779401749303 0.00228005310472957 -0.129312281095874 0.116486082496129 0.336716381028736 -0.0179555467548369 0.0959614907906316 0.239102443090597 -0.127155383768903 -0.3318587983373 0.0816810769946359 -0.141083556613898 0.0101383687444403 -0.0147329277184499 -0.053683063593697 -0.13314142305446 -0.0867088666273588 0.0140829531752884 -0.261625295140023 -0.152868973191998
-0.335241339907645 -0.0251196648998735 0.251772575809132 -0.153941379766178 0.0138965482924592 -0.0846792388410783 0.442551417075099 0.00118142129186202 -0.0205958112262474 0.100287626733367 0.0610446423594409 -0.0933518224310234 -0.172774700686503 -0.00175040612731156 0.381416786151533 -0.11291199383929 -0.3252914329275 0.307359540309518 -0.0877319080463618 0.125020340807506 0.203384182218332 -0.0944111163858594 -0.221563929052931 0.309080892986127 0.130806348370523 0.14465635971982 -0.204406709416969 -0.0617023302080988 -0.0864880089799791 -0.131694921163706 0.075542057150068 0.188401086291617 0.0385387595821069 -0.0143184661031111 0.0387467617203259 0.0232371041383907 0.148139431371802 0.0394949523534747 0.0575955092516435 -0.00264309268342579 -0.127917715462129 -0.126163195571886 0.0843354825261231 0.129855554913002 -0.00369827287533041 -0.166386541074402 -0.0650779298034974 -0.0888256547657483 0.0308948738351955 0.115579769100305 -0.0430212185162358 0.043008105896892 -0.0631213213092493 -0.167599072698433 0.0415934856688561 0.0881641102643423 -0.0990774091009854 0.0485418883701773 -0.0379306939988091 0.0282348118796777 -0.0802759698433789 0.0603776985441874 -0.186036701046793 0.0858945986771244 0.0698766342629778 -0.202571971149564 -0.0768394351345589 -0.0432212502387753 -0.150552410441252 0.013407781834172 0.235946158481479 -0.190967045920079 0.114175176169414 -0.314759685602744 0.192622064169418
0.172422716845685 0.221800984641853 0.0632920424709025 -0.110239076374612 -0.156297023264772 0.00627374558057128 -0.103598948782963 -0.361238521862823 0.224111633858385 -0.140597104147259 -0.172629690543171 -0.103099126586797 0.260187020775131 0.0118360672841932 -0.297146352501763 -0.143730248839889 0.371203855453961 0.0450960976947617 0.24465525171744 -0.0493029345124867 0.0610950359553506 0.272970796194646 -0.0919454297288504 0.0684157342019637 -0.332581277952127 0.297839778665888 0.182408876361663 0.0358900104746504 0.0464778078193464 0.0690842206783165 -0.193152739587569 -0.108811600637415 0.0493821244489162 0.110621142106866 0.0360486474576926 0.0677991839826198 -0.00674939941951464 -0.169732830108914 -0.169885039337376 -0.053455778191737 0.0448672696317025 0.0273362117893496 -0.0810048772127867 -0.0670882743260369 -0.107949510193103 0.207293799664264 -0.071813959493485 0.00529492711308082 0.0618288284182394 -0.0306963847737554 -0.047814780772052 0.0474268015055842 0.10668555653243 -0.183295135163197 -0.271990949286423 -0.140699948220545 -0.0497011981862831 -0.0514726873486181 0.188986783288975 0.091026003713682 0.0422519448480637 0.133050663159786 0.231524377550588 0.137604598724848 0.323038890612374 0.0149522427047303 -0.0427980468772073 -0.274091796593453 0.136450945332773 -0.00775341468495994 0.0768474055502385 -0.169377246725531 -0.0540281054595683 -0.164335830253098 -0.215275271081733
-0.219529673283352 0.0163028424971462 0.260901015753913 -0.302070269620468 0.0341858841803172 -0.0467266904766962 0.573531057709107 -0.178487946067671 -0.0689749488504511 0.246952016984078 0.0108693329953138 0.00711166766766123 -0.129985652665708 0.0472069722989374 0.167619127292723 -0.11227410347474 0.123891884213386 -0.211438672927834 -0.152883628472441 -0.170149091495535 0.0660500634062243 0.0963515269385651 -0.229499891967972 0.0923061553158977 0.0652874746028157 0.12225563500742 0.31675614617539 0.183733508025575 0.026127536818067 -0.00612050791137656 0.0514893995105269 0.0640299486967227 0.252423578793026 -0.0956542441216925 0.0457730688071606 0.00534969158210511 0.13762079666639 0.0579444077702631 -0.235147317142237 0.0839307910977464 0.0159189769936097 -0.227568223161495 -0.19927119061748 0.143995586548964 0.0442851721769091 -0.0395476599410333 -0.0681758504010263 0.0156826927352373 0.0313116494421832 0.111359305442869 -0.0228738074495113 -0.0647092338007705 0.105924767500304 0.1984468953701 -0.112891682134817 -0.287146309035891 -0.0504676436424399 0.0680670927935274 0.136965422809381 0.138305481084285 -0.0288169093344711 -0.265587620173513 -0.0736736374486619 -0.00427548523664276 -0.0687432925753766 -0.149883409744533 -0.202002729203931 0.163493537292893 -0.193814284088975 0.114053820162938 -0.154947451913089 -0.14191762204824 0.0115833279740952 0.196493115087868 -0.136630922461022
-0.103331039972055 -0.0304981528224985 -0.0449261478636582 -0.0298828881540707 -0.0823881299984706 -0.0134676885068606 -0.214769535351354 0.118618811465878 -0.106151024461531 0.379621642852343 0.063535782924588 0.232631236889318 -0.036939020022158 0.372305315478844 0.199108954091873 0.146695757693063 0.0192169293136781 0.184350572465285 -0.0932420363827916 -0.00340208194426947 -0.304475792494605 0.182457727296473 0.0381610647229676 -0.00917883354069074 -0.340732184980334 0.0668093097772512 -0.0526314829443574 -0.144808568948282 0.0711220759904598 0.0253937443551782 0.0735630800698804 0.330243375056175 0.175826341451053 -0.207223351474063 0.102083027142741 -0.118388697851902 0.122707377599325 -0.127074394061191 -0.116178321606824 -0.0857069082433792 -0.227276660213732 -0.0535228839495555 0.046572938587135 0.0736016465973623 0.00570758895713708 0.25810288563001 0.0962530537383947 0.0264656367089916 0.0620296314713285 0.100343162532941 0.161039163483946 0.0255526384484036 -0.0590332693961685 -0.238388705221999 -0.222491582593962 -0.31363971364467 -0.165808814492723 -0.0239467282440575 0.0996435657244196 -0.0734867183454663 -0.107706541069968 0.175131115515647 -0.0560114534128705 -0.174001887590977 -0.351780723773347 0.280169367104233 0.140189841617051 -0.179779153407764 0.0492895647829596 0.217949988317694 -0.121295071362938 -0.11921042199745 0.129338506334562 -0.230901656686847 0.131844045069969
0.160149819360213 -0.225869239070826 -0.00143853147507464 -0.122204212970778 0.465196910681917 0.104639473694424 0.0325054120228394 -0.0374853791614848 0.0331656709733295 0.0576160780663005 0.146884476567541 -0.135318889196087 0.0747941236271025 0.0522697289165772 -0.147168326209808 -0.0666221335638724 0.0739243198772942 -0.0650697022776346 0.00715897594137235 -0.0836811371098469 0.133576710594639 0.0137291695631878 0.157659707235799 0.121193255730386 0.024493858713934 0.147073709662386 0.18758424723955 0.152518017791913 -0.108132058423184 -0.050852280476526 -0.105368638174015 0.10630297657981 -0.233711356768994 0.128644308839888 -0.103254678247641 0.0926987625656633 -0.22052828923495 -0.144761774894938 0.133599593400945 -0.0175297722914368 -0.0829465733164084 -0.142290174703715 -0.136279195730387 0.0885122374524122 -0.0644978892301697 -0.137516667042189 -0.110039044652072 -0.0893100503509209 0.110705988467326 -0.0395409750762697 -0.00300716070285487 -0.0601373005228836 -0.0552568350251415 -0.0395610296705603 0.0622337769567993 -0.0463795917293591 0.0907804634887139 0.0393013483855156 -0.0430320171439308 -0.0194750679376236 -0.057328885991652 0.106893301560466 -0.176272684729111 0.0231663988380072 -0.0406660892380082 -0.00852525945496425 -0.0374959206789965 -0.0173202274921185 -0.0340737841404365 -0.106192933421395 0.0120705517712831 0.234525624719229 0.180186415937973 -0.218422299724256 0.078808127807418
-0.14561512359302 0.169627157823614 0.0315787869225411 -0.146576458568052 0.0999888647004741 0.115332686214237 -0.163823666768138 -0.115858990759273 -0.060928685666812 -0.298634506242198 0.012775290783469 -0.108559118437501 0.164348428652075 -0.222222131121955 -0.227883440246114 0.0148511984027277 -0.194779475716755 -0.140796364539249 0.239985616569932 -0.104457953905076 0.705256574984614 -0.213029156521188 -0.125014941493658 0.184149769412196 0.610959358409918 0.0609549109054997 0.100195581287777 -0.188726844893747 -0.205379100129879 -0.0524844159195597 0.0803081086162805 -0.129823159029918 -0.362002396217148 -0.0379386644144886 0.142436470397963 0.160103025306869 -0.170406715899115 0.220899556339509 0.107326532219179 -0.147474030217648 0.0306683597637852 0.123925308537203 -0.196603415356466 -0.0297113956618678 -0.146998376378704 -0.0123590293968477 -0.187811018421144 -0.0290781332806151 0.198208811340445 0.219913538786889 0.101093924267922 -0.211026268193961 -0.197732386170952 -0.146685473285734 0.260258754516248 0.40464077767058 0.038407119168302 0.103217140160892 -0.0562310255093341 -0.20310547477973 0.172998643656081 -0.217364291320336 0.179727731371122 0.120668236736266 0.198962658397625 -0.129896692542316 0.00597215533566287 -0.110276871571544 -0.0637592116737998 0.153090087949561 0.188893966512835 -0.0265682236720935 -0.192652146060854 0.1469004173989 -0.148351033052586
-0.213621538383309 0.0312913377377094 0.162142166169928 0.10428620430269 0.028802254054028 -0.0273305553653189 -0.221238684671167 0.0139551694142317 0.250515821233588 -0.283672493350505 -0.129950171460425 -0.0735188571183679 0.195698387511557 0.0744241420734595 -0.0932939726398006 -0.107833810610658 -0.070642308388585 0.1047608297009 -0.16476494714888 0.159737671736523 -0.399146333055326 0.251861793042707 -0.0657618428908429 -0.168448564743767 0.0429322583928443 -0.106145110927317 0.47069289795827 -0.076269936078743 -0.214986793456169 -0.0796982432617001 0.109804045944616 0.0914813458481516 0.240648446622254 -0.288109186672023 0.149648411037077 -0.1671370456992 0.159590347601543 -0.0403519005941224 -0.0525422657107826 0.142458838983902 -0.13289176906656 0.145175465179727 0.0432096802805307 0.0903950553240782 0.1461545407574 0.212115901150416 0.16698663624202 -0.0660845161707748 -0.074364235400771 0.0369503328702193 0.0330450862974027 -0.0696184956390323 0.229396276564137 -0.170583607705165 -0.212382524410408 -0.256324454492728 -0.279512450586125 0.0488532488020478 0.245618900684121 -0.0158945515262045 -0.00487249508206247 -0.0991504283930178 -0.319456831539855 -0.224237874958342 -0.258784998946073 0.112943361281642 0.172426830608616 0.288456028309176 0.0164162280879429 0.205273942064945 -0.216137361526045 -0.0835003886510484 0.252474743719485 -0.0160164217530473 0.313653083374197
-0.322043617093158 -0.0248640973777602 0.263501942367292 -0.213510209673978 0.0126259097670224 -0.0926686806742275 0.528695926850306 -0.0392206157879868 -0.0448976086333216 0.156478028833754 0.0191354253855997 -0.0666522154553083 -0.171660899372826 0.0435827471563722 0.322801320803085 -0.202405363750842 -0.247551340821147 0.322080126739174 -0.141273046818925 0.150874312390635 0.126449616315985 -0.0159958529383903 -0.391188515774712 0.424489683814595 0.15612398811147 0.251789802191407 0.147761222292296 0.00361522628615273 -0.0461227386563297 -0.201379494119824 0.0616102847625087 0.17042239962029 0.183677972226001 -0.0400767926980848 0.0484089624054564 -0.0725829760514739 0.161054590094938 0.037420330285132 -0.142254950608614 0.0493538423287628 -0.0948533459009851 -0.160279145782369 -0.109393440982026 0.145784302093574 0.00164499095219438 -0.137995920423697 -0.0597999719625086 -0.0758305347756326 0.10719772001739 0.12298788480921 -0.0331980668564143 0.0406871722730316 0.0268559299671084 -0.0951857893678791 -0.027828834900385 -0.0803078515060973 -0.138726884674571 0.043078296976909 0.0559404910023039 0.0748031224835149 -0.0722549034576946 -0.0439709835330233 -0.176533394454888 0.124502006678149 0.135877332514025 -0.259902142692132 -0.182184162061535 -0.0749633021276564 -0.229157935424299 0.0611587992807873 0.118189180349729 -0.20529271110832 0.143066647457017 -0.237051732269293 0.127333046905503
0.0671813482123599 -0.249345198569421 0.0959044123299584 0.330297368194649 -0.273340263527923 -0.0586280637474254 0.0826771218444016 0.198739486758596 -0.343095284674241 -0.212773588999074 -0.0937943090563323 0.00716283259412054 -0.187227892525617 0.327786173035212 0.240813511359877 -0.182267208650713 0.152692338496131 0.0363710636274413 0.0745691522167914 0.117562345723057 0.357030399494182 -0.160861757457529 -0.249152365932012 -0.0902960679035414 -0.0118759193625912 -0.0548223188155121 -0.18051346009102 0.0110971326176401 -0.0159302898416711 0.276190072798652 0.0523100952153416 -0.138112134226509 0.000284363862633164 0.21875320053005 -0.0378918703611439 0.23290505923444 -0.254037716523235 -0.0776778714420153 0.187643125471506 0.0509767218052009 -0.0580259116983415 -0.200727462695196 -0.0508733635115494 0.0708994185717976 0.000177148916233499 0.125673143562683 0.301558620355875 -0.024712659479848 -0.135131970092892 -0.123552241661362 -0.0412792970249703 0.286007053814076 0.130388544322802 -0.0734496944790837 -0.305566711001977 -0.120611158275592 -0.162935093974956 -0.203658261673637 0.160407957984159 0.155968436450626 0.143297018181175 -0.144063977857699 -0.123013852937714 0.0446515541879871 0.117126029742145 -0.188033932949989 0.242026557204274 -0.00292591388495968 0.203427119618929 -0.0726549669027735 0.0123718849060083 -0.201294133538997 0.0474118891149578 0.0497127681445276 -0.105898542261616
-0.243944342060857 -0.137228960747174 0.136178665648751 -0.0453943455072884 -0.296617991075261 -0.053727800765576 -0.105614949729533 -0.145719767437588 -0.251670245956213 0.284008793470148 0.0771078581658329 0.0144105115487013 -0.290225203479862 0.30238574381527 -0.102354021275847 -0.0762555379084831 -0.091376702003584 0.0291547521152125 0.232802215161155 -0.0629151189423128 0.146807857732944 -0.294246149635125 -0.292919203979564 -0.0369212794195163 0.460841978398662 0.0983230478234395 -0.100676891550751 0.209603163329879 0.190511189565243 0.344940564459158 -0.170558153797027 0.169694263581432 0.120120592046023 -0.186404882829154 0.00988511521397583 -0.0998878203984716 0.131537055511213 0.00790845212543716 -0.332572536205898 -0.28768881152247 -0.0392854075541564 0.384517792071261 0.11730009333618 0.162523203461449 -0.232952110397968 -0.102306455891953 -0.0656793105220317 -0.110978268151348 -0.335766358901765 -0.138935658143339 -0.134309217506611 0.152044935054802 0.152094814430345 -0.0172901456006827 0.143902769772824 0.126815484106696 0.0007147663093311 0.227949774673383 0.190791696775128 -0.00168278614912664 -0.016348608109758 0.170303357605463 0.0834947322270178 0.0332934547343861 -0.304034591420213 0.18849981660197 0.212234171834694 -0.117568516367454 -0.122674467495874 -0.1515517977234 0.0427877624698788 0.0941745750173038 0.100787191819349 -0.00885024672654501 0.0546832222063941
0.0225480488473809 0.166009360435629 -0.139054443047984 -0.141617831574614 0.0942373099020077 -0.1269502098427 0.437983083339777 -0.0392488979081402 -0.0798352829893525 -0.0119630797147003 -0.0156392411142744 -0.141100268775807 0.188900651377599 -0.0469945992876038 0.425105719813572 0.322401257358007 0.165050596562429 -0.18465910468514 -0.0733185682856452 0.137524894568052 0.110153201573419 -0.379379959280123 -0.476126150349919 -0.137640079930131 0.284937218341728 -0.11433895535612 -0.10047274606528 0.367702528978972 -0.153691982888462 0.210441599637336 -0.099322435105587 -0.177443050283094 0.106052294151177 -0.0263095708277816 0.275095554748715 -0.152944306475679 0.142901582719394 0.0332037232804449 -0.401051519512932 -0.41177789924638 -0.142987971740954 0.0608093865418014 0.0408234406701343 -0.0912885132107421 0.453611525826356 -0.277381778497842 0.175707556546409 -0.20013713771454 -0.0794141365092502 -0.128442734456249 0.0873393007965962 0.0604275779197306 -0.00960203690225873 0.107275881513086 -0.186004305163708 0.156609926357742 -0.0325023267006409 -0.289600939955022 0.166838797886673 -0.067309646193783 -0.0924791904691998 0.0709166449540729 0.0187019376167032 -0.110806261438779 0.0519036040156824 0.226265188752974 -0.0892761118067369 0.139425195932176 0.0387670734247997 0.0863602252189225 -0.0198327082024723 -0.0799221862312783 0.313666453103724 -0.216885552159194 -0.000943851482573549
-0.00206947986467843 0.185822014043811 -0.225384072155104 -0.00180748458798476 0.0969012285102737 0.0605142240514733 -0.261981906964139 0.0707870614217337 -0.129365502903799 -0.122606076187139 0.0364654230646803 -0.0389300812809565 0.0626826913366885 0.0229805081755445 0.0113529572499367 0.204274297672614 -0.398858112539945 0.0564791368361343 0.0548174337220311 0.216373131564051 0.0796622478360504 -0.218400445358683 -0.408963571180934 0.18561709722779 -0.0171250808630602 0.237146863037082 -0.257179860072276 -0.0198905579936952 0.128478472771716 0.0476731130611019 -0.0889387832463619 -0.166934185764645 -0.137771720343936 -0.0304253906406493 -0.118651721569329 0.156419407711981 0.189724689514795 -0.0724276815008135 0.323262062251402 -0.0323809706941645 0.071488715111721 0.355609094401383 0.140513286227532 0.0199232109869632 0.147223862009382 0.0344717907040496 0.21897405817743 0.0509759504746513 0.0128087151072866 -0.140868612500732 -0.0626448961397563 0.102001780324846 -0.0635969751481926 -0.0592824091637016 -0.0992005648787442 0.127337674888801 -0.129677120445853 0.066686925330042 -0.0631066660288062 -0.053793106752112 0.00307658045232228 0.106025554692123 -0.0988552659026897 -0.0979355827773381 0.265751656470402 -0.178481004092724 -0.0490363112524952 -0.249626991330222 -0.00361265518432061 0.100065997755438 0.0914060125644703 -0.116624407774697 0.0706744471614866 -0.212826553696816 0.01681294910064