-1.21095883619325 -0.121288404896939 -0.0231025533137027 -0.121288404896939 -0.180970000957338 0.34653829970554 -0.0231025533137027 0.34653829970554 -1.21480926174553
-0.320952794544735 0.477562290678009 0.446627081565264 0.477562290678009 -3.40093955183246 -0.290017585431989 0.446627081565264 -0.290017585431989 0.0019334505695466
3.23329918115605 0.820447242728859 -0.642004816414308 0.820447242728859 -1.17927168694834 -1.26655330851524 -0.642004816414308 -1.26655330851524 0.372401585352106
2.90265977734582 -0.101612264332449 0.0996950517978748 -0.101612264332449 -0.498475258989374 -0.705534212723422 0.0996950517978748 -0.705534212723422 1.12156933272609
-0.710437408849251 0.424342344204552 0.931249035924017 0.424342344204552 -0.695076600009267 0.967730956918979 0.931249035924017 0.967730956918979 0.364819209949615
-6.79046804731655 0.635796685381268 -0.581983172825486 0.635796685381268 -4.58810021864476 0.0119585583457292 -0.581983172825486 0.0119585583457292 0.366729122602361
2.90817368697682 -0.151962047653916 -0.0322919351264572 -0.151962047653916 1.56520909083534 -0.214646392311157 -0.0322919351264572 -0.214646392311157 -0.822494582926822
2.72087575477372 0.324050741759519 -0.23968250130142 0.324050741759519 0.648101483519039 -0.149561880812086 -0.23968250130142 -0.149561880812086 1.53780292834991
1.57349555883621 0.214133052964344 0.128097451326884 0.214133052964344 0.887122647995139 0.80299894861629 0.128097451326884 0.80299894861629 0.53150882789364
3.03758572682825 0.939559360657973 -0.902751880549723 0.939559360657973 -2.01278799118275 -0.873693343622157 -0.902751880549723 -0.873693343622157 -0.7903922044298
1.80814736177681 0.0403947814865031 -0.548214891602543 0.0403947814865031 0.203897468455683 0.729029627780223 -0.548214891602543 0.729029627780223 2.15631190697
2.7463717953286 0.427127492447305 -0.68804247652145 0.427127492447305 0.0637792183292355 -0.535358893248432 -0.68804247652145 -0.535358893248432 -0.146885472515815
0.971621661551086 1.18775010201422 -1.06725371485336 1.18775010201422 3.51925956152362 -0.0535539498492725 -1.06725371485336 -0.0535539498492725 -0.70958983550286
-1.54156279540938 0.593492195526612 -0.244602214769754 0.593492195526612 1.00305869467597 0.458866170343259 -0.244602214769754 0.458866170343259 0.656064855118874
3.40229490265447 -1.97614859915949 0.445791334380705 -1.97614859915949 -3.19387298008687 -0.293334557687736 0.445791334380705 -0.293334557687736 -0.934038986321476
4.11240401773562 -0.132287122248838 -0.235816174443581 -0.132287122248838 0.389192548065422 1.04871095463934 -0.235816174443581 1.04871095463934 1.40531102331012
2.77428134750873 0.751166198767191 -1.02607753955312 0.751166198767191 -1.58945218862852 -0.710510296256596 -1.02607753955312 -0.710510296256596 -0.414303006536544
-2.59441051294611 -0.710028827927833 1.41425360549113 -0.710028827927833 0.330830870778364 0.454650611888394 1.41425360549113 0.454650611888394 -0.570731619179048
2.16778393312578 0.632666125969225 0.026598575866574 0.632666125969225 0.545270805264768 -0.00379979655236772 0.026598575866574 -0.00379979655236772 0.467374975941229
-0.249437764421035 0.489207398438154 0.388658842237426 0.489207398438154 -3.3413058675934 -0.33645093805628 0.388658842237426 -0.33645093805628 0.0522079041811468
-0.81329194177691 -0.609479021427998 0.370390787941773 -0.609479021427998 -3.04347562790251 0.440941414216397 0.370390787941773 0.440941414216397 -2.39480181409972
2.6842853272023 0.648331351559315 -1.03926547996225 0.648331351559315 -1.27343889351054 -0.644460716624632 -1.03926547996225 -0.644460716624632 -0.209014286472854
3.24034049667241 1.02907942807001 -0.777139078448348 1.02907942807001 -2.08141488841278 -1.00000938772905 -0.777139078448348 -1.00000938772905 -0.870163207539422
4.1685635798787 -0.124577762157294 -0.298986629177507 -0.124577762157294 0.40439858177214 1.09245114507166 -0.298986629177507 1.09245114507166 1.12694960228445
-0.84478994695614 -0.654663207153946 0.303810769787011 -0.654663207153946 -2.96950526598272 0.431215286149306 0.303810769787011 0.431215286149306 -2.38932469916365
1.68704343535506 -0.493910535035065 0.377696291497402 -0.493910535035065 -2.79107874896286 0.379633195556363 0.377696291497402 0.379633195556363 -2.80851088549351
-1.64703607813374 -0.118053452999181 -0.177080179498772 -0.118053452999181 1.80507537811651 0.0628349024027901 -0.177080179498772 0.0628349024027901 0.276092752981956
4.10008812556504 -0.187761045002511 -0.273977851381215 -0.187761045002511 0.182013257910598 1.07866804424912 -0.273977851381215 1.07866804424912 0.542207915670517
-3.32741048039889 -0.481371775550502 -0.0191781583884662 -0.481371775550502 -0.481371775550502 -0.266576401599681 -0.0191781583884662 -0.266576401599681 0.316439613409693
0.992169328002218 -0.193355833606731 -0.425773451780479 -0.193355833606731 -0.757798620600119 -1.06638671867955 -0.425773451780479 -1.06638671867955 -1.44723911820796
2.61576075845333 0.391213485868387 -0.222454727258494 0.391213485868387 0.684623600269676 -0.124651355791398 -0.222454727258494 -0.124651355791398 1.35198778204516
0.367146196345246 0.913059912376921 0.00576669418343319 0.913059912376921 -0.282568014988226 -0.605502889260485 0.00576669418343319 -0.605502889260485 -1.97605387352311
1.01370112128402 0.1281471228793 0.0784183886276316 0.1281471228793 1.41344363892243 0.227604591382638 0.0784183886276316 0.227604591382638 -2.34872637157882
-1.20555759809774 -0.0480684847726371 -0.11920984223614 -0.0480684847726371 2.60915735345874 -1.0517384468253 -0.11920984223614 -1.0517384468253 0.067295878681692
-2.33255204918292 -0.938852199796124 0.898032538935423 -0.938852199796124 -0.77557355635332 0.311006939891055 0.898032538935423 0.311006939891055 -1.91658026707863
-2.07298216943249 -0.689063905481749 1.46112430378063 -0.689063905481749 0.920682024971413 0.248989478451388 1.46112430378063 0.248989478451388 -0.424633219064384
-0.794848376993619 0.535700730966502 0.0502823790798883 0.535700730966502 -2.15827442512136 -0.850932569044263 0.0502823790798883 -0.850932569044263 -0.673010304607735
-0.28114058397325 0.527855790317122 -0.0325128566499677 0.527855790317122 1.66389325208658 -0.13770151051751 -0.0325128566499677 -0.13770151051751 -1.24696367857523
-1.1925439995785 0.673796930740983 0.287129373895305 0.673796930740983 -1.161916866363 -0.503433502229769 0.287129373895305 -0.503433502229769 -1.04132252932697
-2.16233555465947 0.222025525701642 0.0752956130640351 0.222025525701642 -0.554098485881489 -0.640978039416914 0.0752956130640351 -0.640978039416914 -2.2376311677235
1.37129374419592 0.299911561660456 -0.0132036536580075 0.299911561660456 2.86142037131391 -1.14494539577294 -0.0132036536580075 -1.14494539577294 1.26189204245814
-3.20047224658641 -0.638551123339423 0.310594353044251 -0.638551123339423 -2.02947366088542 -0.212207321955699 0.310594353044251 -0.212207321955699 0.256577943819164
-1.5523866721124 -0.241053831073354 -0.956501601699068 -0.241053831073354 -0.229483247181833 1.05677999542558 -0.956501601699068 1.05677999542558 -1.88600517431792
1.53075977277424 1.16146397759245 -1.23417506679923 1.16146397759245 3.88047602398269 -0.0784514383546796 -1.23417506679923 -0.0784514383546796 -1.16337742730842
2.09032402634095 -0.724542340918922 0.195665177627837 -0.724542340918922 -2.64244853746901 0.790409826457006 0.195665177627837 0.790409826457006 -0.319651032758348
-1.33143010190403 -0.118095373845565 0.0800000919598989 -0.118095373845565 0.50095295679651 -0.746667524959056 0.0800000919598989 -0.746667524959056 -0.340952772876712
3.38929762792854 1.0101968330382 -0.62822221478767 1.0101968330382 -1.72179421830695 -1.1788861314534 -0.62822221478767 -1.1788861314534 -0.411058980046253
1.71217501016228 0.101960983751237 -0.60984211036117 0.101960983751237 -0.125046489506234 0.679098627626161 -0.60984211036117 0.679098627626161 2.08346689438848
3.46480974527525 -2.00665402750333 0.224034520876214 -2.00665402750333 -3.16931593756782 -0.16995722273368 0.224034520876214 -0.16995722273368 -0.780258158913712
-2.85950175075729 -0.843659931902559 0.810613344708219 -0.843659931902559 -1.67954419622998 0.159401185290345 0.810613344708219 0.159401185290345 -1.49098425753286
0.547371951765282 -0.271731076054908 -0.346017269508767 -0.271731076054908 -0.547371951765282 -0.95594601576151 -0.346017269508767 -0.95594601576151 -1.19444379474495
-3.20096606049539 -0.607778365916847 0.266264807925476 -0.607778365916847 -1.90244275807623 -0.171721506560633 0.266264807925476 -0.171721506560633 0.287488814354318
-0.80505419293658 -0.252067939050531 0.672181170801416 -0.252067939050531 -2.27447349654898 0.461147547410274 0.672181170801416 0.461147547410274 -1.04735205683011
1.41123196247304 -0.496257393397111 0.546658534914005 -0.496257393397111 -3.20822650809461 0.496257393397111 0.546658534914005 0.496257393397111 -2.34365308053558
3.0107311824282 0.810581472192207 -0.0540387648128138 0.810581472192207 0.0424590294957823 -0.438099986161026 -0.0540387648128138 -0.438099986161026 -1.42044753222253
3.22944566312324 0.202322073167028 0.127173874562132 0.202322073167028 0.0211956457603554 0.761116370485488 0.127173874562132 0.761116370485488 0.59347808128995
-1.3986293179594 -0.737738541341222 0.687787494271243 -0.737738541341222 -0.716605406042385 -0.92601556491268 0.687787494271243 -0.92601556491268 -1.53119171210665
0.483679880944122 -0.253356128113588 -0.314775795535064 -0.253356128113588 0.195775189905954 1.08444100291043 -0.314775795535064 1.08444100291043 0.512470350047939
-1.35379872770641 -0.0808812895642523 -0.127099169315254 -0.0808812895642523 2.90787493433383 -1.02449633448053 -0.127099169315254 -1.02449633448053 0.610461161711142
-2.00209713976373 -0.978759976360778 0.00387627713410209 -0.978759976360778 0.544616937341344 1.20164591157165 0.00387627713410209 1.20164591157165 -0.792698673923878
-0.123014848076854 0.221042305138098 0.976430356610032 0.221042305138098 -2.41993271451187 0.038442140024017 0.976430356610032 0.038442140024017 0.60930791938067
-0.694550756173411 0.270208787333217 0.00380575756807348 0.270208787333217 -0.342518181126614 -0.154133181506976 0.00380575756807348 -0.154133181506976 1.54133181506976
0.0327814387116539 0.0231398390905792 1.0972140368783 0.0231398390905792 -0.76939964976176 0.946805082789534 1.0972140368783 0.946805082789534 -0.645987174612004
-2.69188344106937 -1.0810077899122 -0.309411889778089 -1.0810077899122 -2.70155256262494 0.889559183112005 -0.309411889778089 0.889559183112005 0.769662075822995
-0.134609269789689 0.564979752075034 0.254051297912935 0.564979752075034 2.01724314163703 0.788696566655081 0.254051297912935 0.788696566655081 0.955536224985964
1.1176355272903 0.539810356718445 0.216684438964446 0.539810356718445 0.330728880524681 -0.176768884418364 0.216684438964446 -0.176768884418364 1.02830071473478
-3.35804523555809 -0.783155225653883 0.738459021708376 -0.783155225653883 -2.22120700477019 0.132145298621499 0.738459021708376 0.132145298621499 -0.993033052876264
3.38900763593017 1.03337589814118 -0.64561758739402 1.03337589814118 -1.83021922672659 -1.14776459981159 -0.64561758739402 -1.14776459981159 -0.558371967475909
2.17541070737861 0.0466159437295417 -1.01001211414007 0.0466159437295417 -0.25833002150121 -1.21978386092301 -1.01001211414007 -1.21978386092301 1.6781739742635
-6.91957869417938 0.247978020863653 -0.00396764833381845 0.247978020863653 -4.5370058697214 -0.148786812518192 -0.00396764833381845 -0.148786812518192 1.74576526688012
-1.39926528579639 0.608623518618753 -0.17064210802395 0.608623518618753 1.13571803007051 0.52140644118429 -0.17064210802395 0.52140644118429 0.616207612308707
-1.97095482320996 0.460964410048144 -0.553916081210115 0.460964410048144 0.553916081210115 0.144169938945098 -0.553916081210115 0.144169938945098 1.03195324718597
0.341284140026318 -0.134212864055294 -0.469745024193527 -0.134212864055294 -0.0920316782093442 0.126543557537848 -0.469745024193527 0.126543557537848 0.283764341145478
2.95016678850292 0.291943588445602 0.758669193657978 0.291943588445602 -0.614618080938109 -0.251609276884038 0.758669193657978 -0.251609276884038 0.0384136300586318
1.67962223931111 0.144297443239786 -0.63106081843533 0.144297443239786 -0.288594886479572 0.646452545714241 -0.63106081843533 0.646452545714241 1.99515264852877
0.233410185022717 0.352961743205085 0.208740815873975 0.352961743205085 1.57504433795817 0.519954395904265 0.208740815873975 0.519954395904265 1.75152520956072
-0.504979269449093 0.547220881342173 -0.184327033715258 0.547220881342173 -0.545300808074305 -0.65474498434274 -0.184327033715258 -0.65474498434274 -0.566421614020846
3.06853239023371 -1.42591952812248 -0.148976667117274 -1.42591952812248 -2.51325572188751 0.566885239809886 -0.148976667117274 0.566885239809886 0.290214286592092
-0.271404288612623 -0.236509451505286 0.682387925654595 -0.236509451505286 0.288851707166291 0.688203731839151 0.682387925654595 0.688203731839151 0.193860206151873
2.64906875677711 0.454402304994613 -0.889468341691583 0.454402304994613 -0.386725365952862 -0.545282765993536 -0.889468341691583 -0.545282765993536 0.0154690146381145
-3.05553474557354 -0.530809889471082 0.152487204611693 -0.530809889471082 -1.4592446416005 -0.0752784934158989 0.152487204611693 -0.0752784934158989 0.360950724840336
-1.50872763565419 -0.766856467039517 0.705354193993741 -0.766856467039517 -0.955207178242206 -0.897548797261791 0.705354193993741 -0.897548797261791 -1.38187919749728
2.81721617954095 -0.0901355755196899 0.326022294432921 -0.0901355755196899 -0.830397961702675 -0.811220179677209 0.326022294432921 -0.811220179677209 0.558073456941059
0.857232488272244 -0.239718257346824 -0.40464441840144 -0.239718257346824 0.410397656577764 1.19092030249902 -0.40464441840144 1.19092030249902 0.87640994885999
2.72540796371106 0.698772922513987 -1.03751325891273 0.698772922513987 -1.43819468539582 -0.675545013732359 -1.03751325891273 -0.675545013732359 -0.309705450421712
1.67519959432428 0.174021875666106 -0.110915041633343 0.174021875666106 1.61591741689956 0.466608106181648 -0.110915041633343 0.466608106181648 -1.93910090027947
-2.20862046434875 -0.20598532828123 -0.116343565047732 -0.20598532828123 1.49530090159708 0.112529021931413 -0.116343565047732 0.112529021931413 -0.185005341141475
-0.00193491782351191 -0.20316637146875 0.85136384234524 -0.20316637146875 0.00967458911755954 0.804925814580954 0.85136384234524 0.804925814580954 -0.327001112173513
-0.746705546235368 0.678130547091304 0.131435415026123 0.678130547091304 1.3505465109206 0.489549299445126 0.131435415026123 0.489549299445126 0.133340276113459
-2.40338139079654 -0.82616235308631 0.647064220599068 -0.82616235308631 -2.10295871694697 -0.625880570519932 0.647064220599068 -0.625880570519932 -0.423673001582723
-1.14640982389499 0.65263063430416 0.486123698279345 0.65263063430416 0.202870519754372 0.857415026886404 0.486123698279345 0.857415026886404 1.03540519987845
-1.66303395687398 0.574571595134338 -0.31478179799439 0.574571595134338 0.881768289562599 0.394425385438754 -0.31478179799439 0.394425385438754 0.714896011107741
-3.24958818372991 -0.794905243508095 0.750203970645781 -0.794905243508095 -2.1359434293775 0.126329684176103 0.750203970645781 0.126329684176103 -1.11170122074971
-2.148210055881 0.175639815889642 0.0772043146767655 0.175639815889642 -0.474806535262108 -0.542360310604278 0.0772043146767655 -0.542360310604278 -2.22734447842468
-0.830871923805318 0.686041038004391 0.133396868500854 0.686041038004391 1.3282516763585 0.524059126253354 0.133396868500854 0.524059126253354 0.303001458451939
3.3760020206756 0.977314772211661 -0.618578199078412 0.977314772211661 -1.59589297129007 -1.20613053237233 -0.618578199078412 -1.20613053237233 -0.236572226606791
-0.277097602746395 0.217444646599602 1.08722323299801 0.217444646599602 -0.9294315425452 0.979463054152188 1.08722323299801 0.979463054152188 -0.257854713666784
-0.763004607063606 -0.352155972490895 0.639750016691793 -0.352155972490895 -2.80159640337201 0.463672030446345 0.639750016691793 0.463672030446345 -1.70991288865024
0.68064282167311 0.490829753093848 -0.722823503579612 0.490829753093848 3.16355114298769 -0.598198761583128 -0.722823503579612 -0.598198761583128 -1.58752748266292
0.135804650358308 0.229528986521085 0.18553593077121 0.229528986521085 1.32744263871361 -0.0210401570977661 0.18553593077121 -0.0210401570977661 -2.07723732801582
-2.85570879414994 -0.561148699792587 0.436235461825059 -0.561148699792587 -0.232530796831859 -0.270965639283407 0.436235461825059 -0.270965639283407 0.332461387205882
-0.78765645136544 -0.564291189037927 0.433015113810354 -0.564291189037927 -3.08400809564478 0.450649213467789 0.433015113810354 0.450649213467789 -2.36296935409632
-0.424965039472382 -0.22897659661069 0.619013002701781 -0.22897659661069 0.283310026314922 0.630655880495544 0.619013002701781 0.630655880495544 0.413322161678618
-1.11250304514492 0.683586208462542 0.283391481379429 0.683586208462542 -1.07420689901257 -0.495935092414001 0.283391481379429 -0.495935092414001 -1.07037728439933
-0.546215718940542 -0.64997712791491 -0.46203193430096 -0.64997712791491 -0.244720304184831 -0.536426906773149 -0.46203193430096 -0.536426906773149 -0.279960027987446
1.26793077163094 0.0344234598632835 0.487665681396516 0.0344234598632835 0.0363358743001326 0.743929215934294 0.487665681396516 0.743929215934294 0.634921593033896
-3.44635756752143 -0.729223660882419 0.989106561303282 -0.729223660882419 -1.3265664469244 0.370430104331229 0.989106561303282 0.370430104331229 -0.506189828431679
2.54297964800261 -0.513191675952335 0.576383188289749 -0.513191675952335 -1.2504259865555 0.710425790217598 0.576383188289749 0.710425790217598 -0.917234376049135
-1.83050080042711 0.195582554402482 -0.630421437491494 0.195582554402482 0.793723376118808 -0.106336146082903 -0.630421437491494 -0.106336146082903 1.32350524678184
-0.193175896640821 0.390177058561657 0.0956316320004062 0.390177058561657 1.46890186752624 -0.109020060480463 0.0956316320004062 -0.109020060480463 -1.60278615232681
-0.721683896013071 0.991843050803304 -0.0396737220321322 0.991843050803304 1.35268499880984 -0.120910390955069 -0.0396737220321322 -0.120910390955069 0.780249866631932
-1.86405366376446 -1.12619908852436 0.714553904443043 -1.12619908852436 0.751446633205048 0.84464931639327 0.714553904443043 0.84464931639327 -1.86211194119804
3.34628979096135 -1.87855115642441 0.57089439661358 -1.87855115642441 -3.0859156573707 -0.304734171165357 0.57089439661358 -0.304734171165357 -0.877557265064793
-0.348809646043239 0.997407041929044 -0.360122391320317 0.997407041929044 2.95074105977118 -0.522271740291768 -0.360122391320317 -0.522271740291768 1.55173156050587
-6.60132062732194 -0.126303294513783 0.483504799310576 -0.126303294513783 -3.98052726616094 -0.36904243865746 0.483504799310576 -0.36904243865746 2.55369473595055
3.2963723506107 -1.40750478288342 0.685460605617645 -1.40750478288342 -2.36637945029238 -0.0789434967143917 0.685460605617645 -0.0789434967143917 -0.192545113937541
1.8971981968394 -0.462684050045527 0.269092397306813 -0.462684050045527 -2.46248582283644 0.412350220333461 0.269092397306813 0.412350220333461 -2.53992248393193
-0.723284003870543 -0.0607482627922765 0.11200460952326 -0.0607482627922765 0.136683591282622 -0.778337117026043 0.11200460952326 -0.778337117026043 0.886544960124786
1.64635741762535 1.02418746329019 -1.20413815777482 1.02418746329019 3.86128245505853 -0.172293218123583 -1.20413815777482 -0.172293218123583 -1.49129352131413
1.40835885158112 0.243279261811583 0.0190061923290299 0.243279261811583 1.03583748193213 0.665216731516046 0.0190061923290299 0.665216731516046 -2.4822087181713
-1.26741635474999 0.312513621719177 1.01084652951141 0.312513621719177 -3.15793085650798 -0.113816689391552 1.01084652951141 -0.113816689391552 -0.684829232779677
-0.00586926171429501 -0.434325366857831 -0.379545590857744 -0.434325366857831 -0.309114450286204 -0.778655387429805 -0.379545590857744 -0.778655387429805 -0.684747200001085
1.24370361178098 -0.26213445355999 0.843805065839093 -0.26213445355999 -0.954781695813396 0.644812487954137 0.843805065839093 0.644812487954137 0.0363544132674439
3.63202583594958 -0.562762332064108 0.295786345180453 -0.562762332064108 -0.691448599123136 0.576207165935947 0.295786345180453 0.576207165935947 1.24076609731541
1.88407004278514 0.177886816222353 0.705808980495142 0.177886816222353 -1.49195394251006 0.839702283028096 0.705808980495142 0.839702283028096 2.22262882204703
-3.14704145794012 -0.334588247350863 -0.208400679778537 -0.334588247350863 0.363267239980937 -0.0229431941040592 -0.208400679778537 -0.0229431941040592 -0.204576814094528
-0.631595233860499 -0.20016710488502 0.569407395449619 -0.20016710488502 0.0524709886591799 0.555803805797239 0.569407395449619 0.555803805797239 0.575237505300639
0.128737260063756 -0.142187421562955 -0.701329849601061 -0.142187421562955 -0.00768580657097053 0.29206064969688 -0.701329849601061 0.29206064969688 -0.370840167049328
2.02179804719817 0.526351559279974 -0.00380037226916949 0.526351559279974 0.798078176525593 0.442743369358246 -0.00380037226916949 0.442743369358246 -1.03180107107952
-0.819339854706236 0.0426134203393314 -0.294419995071744 0.0426134203393314 3.57371638754848 -0.677940778125727 -0.294419995071744 -0.677940778125727 0.581092095536338
1.91473436759314 0.601003141538289 -0.493130782800647 0.601003141538289 -1.11724942978272 0.215744717475283 -0.493130782800647 0.215744717475283 0.302427862889459
1.77348777413892 0.481402761709803 -0.575757703004925 0.481402761709803 -1.03020191005898 0.34275876633738 -0.575757703004925 0.34275876633738 0.841492027468736
-2.20179612459865 -0.645320823919989 1.11149288179652 -0.645320823919989 0.558635937124767 -0.0366002855357606 1.11149288179652 -0.0366002855357606 -0.078979563524536
-8.861603568057 0.167840969496457 -0.693343052562746 0.167840969496457 -5.98432980526059 -0.361657327129271 -0.693343052562746 -0.361657327129271 -0.0759280576293497
1.20721832573878 -0.204710556028605 0.793970848148329 -0.204710556028605 -0.786318117081839 0.661961237251378 0.793970848148329 0.661961237251378 0.197057824962115
1.35210160713637 0.352640168109486 -0.0603448416016233 0.352640168109486 3.08890157948309 -1.13900888523064 -0.0603448416016233 -1.13900888523064 1.26535589733404
0.134968239014763 -0.38730016412932 -0.363827426909362 -0.38730016412932 -0.359915304039368 -0.829370048438545 -0.363827426909362 -0.829370048438545 -0.817633679828565
1.89221731077703 0.152444496336518 -0.251533418955254 0.152444496336518 1.78169505093305 0.400166802883359 -0.251533418955254 0.400166802883359 -0.525933512360986
1.60837176285427 0.959278872845228 -1.16606952806935 0.959278872845228 3.804565110466 -0.218279024958794 -1.16606952806935 -0.218279024958794 -1.57582138193937
0.639970740234634 0.00382072083722169 -0.252167575256632 0.00382072083722169 0.618956775629914 0.296105864884681 -0.252167575256632 0.296105864884681 -0.0362968479536061
-0.500363898456906 0.658273417741785 0.167422140928547 0.658273417741785 1.27659382458017 0.395725060376564 0.167422140928547 0.395725060376564 -0.369089719774296
2.86011241826255 0.514199315359277 -0.772269160426386 0.514199315359277 -0.655846673929946 -1.2884088505606 -0.772269160426386 -1.2884088505606 1.18750936226369
3.77793666479645 0.155908810525067 -0.26048179319432 0.155908810525067 2.4793303527401 0.0665464435167971 -0.26048179319432 0.0665464435167971 -0.201540657508014
-6.44221569563674 -0.163668167351653 0.526498803408329 -0.163668167351653 -3.77817118850321 -0.390437314887075 0.526498803408329 -0.390437314887075 2.55361779181193
1.27409845019504 0.733804069811577 -0.977128134736043 0.733804069811577 3.52340909760703 -0.394683128932598 -0.977128134736043 -0.394683128932598 -1.69943657943308
0.445578515521926 1.08430479957482 -0.816575219432886 1.08430479957482 3.02534425560381 -0.0841435823303208 -0.816575219432886 -0.0841435823303208 -0.525897389564505
2.97875477824473 -0.0019168306166311 -0.151429618713857 -0.0019168306166311 0.0728395634319819 -0.456205686758202 -0.151429618713857 -0.456205686758202 1.74239903051767
1.15561567929727 -0.181540976646362 -0.509485966717209 -0.181540976646362 -0.806198100590833 -1.0990061274398 -0.509485966717209 -1.0990061274398 -1.38986210077645
-3.37585229760706 -0.461999093539638 -0.0805143648492315 -0.461999093539638 -0.448580032731433 -0.243460103234581 -0.0805143648492315 -0.243460103234581 0.262630190103446
2.34803708352801 0.52562268046297 -0.168813123652341 0.52562268046297 0.694435804115311 -0.105508202282713 -0.168813123652341 -0.105508202282713 0.872840582520626
-0.757885052581589 -0.473922952777117 0.536590450665001 -0.473922952777117 -3.06874903719729 0.460214437614143 0.536590450665001 0.460214437614143 -2.19336242607592
-0.938846966165891 0.308505493953092 0.00761741960378005 0.308505493953092 -0.719846152557215 -0.276131460637027 0.00761741960378005 -0.276131460637027 1.20926536210008
3.3144314829338 -1.28573764843192 0.665965907720728 -1.28573764843192 -2.15572779377808 0.00192475695873043 0.665965907720728 0.00192475695873043 0.013473298711113
-1.11768854491576 0.271713939367452 1.05409592080848 0.271713939367452 -2.91947956128858 -0.109841805276204 1.05409592080848 -0.109841805276204 -0.466345910120024
-2.00936509390114 0.388970580028077 -0.626147762972026 0.388970580028077 0.514200132622482 0.0417431841981351 -0.626147762972026 0.0417431841981351 1.18398849725619
0.346889550930089 -0.128406629349812 -0.429299775736685 -0.128406629349812 -0.0804937079506285 0.12265707878191 -0.429299775736685 0.12265707878191 0.337306966650253
1.19727501693426 0.131968013048665 0.0325138582873522 0.131968013048665 1.46312362293085 0.286886984888402 0.0325138582873522 0.286886984888402 -2.29700845900647
-0.0645864889404832 0.265944366225519 0.0892813229471386 0.265944366225519 0.778837072517592 0.220353903444002 0.0892813229471386 0.220353903444002 1.92809665513501
1.83383344873235 0.457983275797405 0.00190034554272782 0.457983275797405 0.879859986282981 0.562502280647435 0.00190034554272782 0.562502280647435 -1.55638299949408
2.96740137053434 0.896806027778982 -0.943292733322601 0.896806027778982 -1.93888301038177 -0.830949861592188 -0.943292733322601 -0.830949861592188 -0.712796151668824
-0.36879718985349 0.657751689120141 0.209111808679814 0.657751689120141 1.13680783264117 0.340281943215333 0.209111808679814 0.340281943215333 -0.640642541137248
2.94476884629872 -0.040524341921542 -0.0192973056769248 -0.040524341921542 -0.544184020089279 0.733297615723142 -0.0192973056769248 0.733297615723142 -0.177535212227708
-1.14352231596363 0.360209529528544 0.036211540005515 0.360209529528544 -1.02154660226084 -0.37164475268818 0.036211540005515 -0.37164475268818 0.809994973807572
2.49148803320249 0.458403110034946 -0.197554478383261 0.458403110034946 0.701989699886151 -0.109326264736368 -0.197554478383261 -0.109326264736368 1.12970473560913
-0.815594673231172 0.472085387329102 0.871247015639888 0.472085387329102 -0.579551979566621 0.957604098687894 0.871247015639888 0.957604098687894 0.518142498288039
-3.26164486621374 -0.496921188440799 0.051802594933983 -0.496921188440799 -0.483490886050508 -0.282036350196129 0.051802594933983 -0.282036350196129 0.354943706029143
-0.521911009775234 0.450389871398628 0.570236103272941 0.450389871398628 -3.47167471687526 -0.21263041138991 0.570236103272941 -0.21263041138991 -0.150774291712845
3.12268329961141 -0.142458179726798 -0.0455866175125753 -0.142458179726798 1.64681655764178 -0.262123050697308 -0.0455866175125753 -0.262123050697308 -0.623017106005196
-2.03848626106478 -1.02215802985708 0.905562056869579 -1.02215802985708 -0.0641277851431247 0.493589618980415 0.905562056869579 0.493589618980415 -2.05791892322937
2.88816109436766 0.481038202339496 -0.452059997379285 0.481038202339496 0.347738459522527 -0.538994612259917 -0.452059997379285 -0.538994612259917 -0.496493244984941
-3.12353833948792 -0.808582420178578 0.765820849880673 -0.808582420178578 -2.01173751174238 0.130228418634531 0.765820849880673 0.130228418634531 -1.23425441541682
2.90429858717859 0.184611378084091 -0.268352621751101 0.184611378084091 2.27814246975935 0.289287932667854 -0.268352621751101 0.289287932667854 -0.46628647041858
2.18922289675443 0.590955873970521 -0.138145528980122 0.590955873970521 0.667703390070589 -0.115121274150102 -0.138145528980122 -0.115121274150102 0.589037186068019
0.339897567053551 0.211235776134975 0.917915463568347 0.211235776134975 -2.25638215416905 0.145944718056892 0.917915463568347 0.145944718056892 1.05617888067488
-3.23990897483454 -0.351914552166208 -0.21612143692816 -0.351914552166208 0.202733383313141 -0.0535522144600751 -0.21612143692816 -0.0535522144600751 -0.156831485204506
-3.29716544881442 -0.937903368137826 -0.531800878841035 -0.937903368137826 -2.53910746879374 1.2821235733513 -0.531800878841035 1.2821235733513 -0.26686735010932
1.36655348572416 0.197665594597097 0.0209069378900776 0.197665594597097 1.05675067880756 0.646214443875126 0.0209069378900776 0.646214443875126 -2.56775209904498
-7.69033568486833 0.513221571283085 -0.712918680731757 0.513221571283085 -5.2759976316339 -0.115824323480229 -0.712918680731757 -0.115824323480229 -0.0938576414408755
1.88536880689952 0.216071678681182 -0.183565319941535 0.216071678681182 1.68841851571225 0.57746590231608 -0.183565319941535 0.57746590231608 -1.55456880325488
2.07682361632424 -0.0116566339550472 -1.03549764967336 -0.0116566339550472 -0.246732085381832 -1.20451884202154 -1.03549764967336 -1.20451884202154 1.62804320905492
-1.16618709531977 0.36105461394834 0.907463468212406 0.36105461394834 -3.35182251237603 -0.115846400197328 0.907463468212406 -0.115846400197328 -0.652601387778283
-1.19714527686859 0.283382215297396 1.04677920344548 0.283382215297396 -2.9996103877738 -0.113738440153377 1.04677920344548 -0.113738440153377 -0.566764430594792