10.540913862 -0.000001452 -0.000002455 -0.000000867 6.276400883 0.000000036 -0.000001178 0.000000029 5.008427146
