0.0000080640 0.0000029333 0.0000071575 5.2704841017 0.0000078814 2.5042292256 0.0000104248 3.1382194276 0.0000088609 5.2704864529 3.1382130601 2.5042275590 3.0284065605 4.7073052311 4.9259907471 2.2420895499 1.5691256229 2.4217679545 7.5125582224 1.5691248701 0.0824660803 8.2988796779 4.7073045190 2.5866833350 1.1377061906 4.7073215648 2.2161161790 4.1327914388 1.5691086114 4.7203380280 9.4032659460 1.5691079092 2.7923356217 6.4081811067 4.7073208230 0.2881165921 1.1979400331 4.7073186473 3.7617006684 4.0725544739 1.5691103859 1.2574942686 9.3430299670 1.5691097471 1.2467513453 6.4684193963 4.7073180206 3.7509605921 4.9312744296 4.7073181910 0.7965838187 0.3392536829 1.5691109430 3.3008105210 5.6096984140 1.5691103081 4.2118696188 10.2017166243 4.7073175509 1.7076444276 1.8679305980 5.9475673728 1.5684412631 3.4025706314 0.3288613934 4.0726597079 8.6730373533 2.8093550666 3.4400106464 7.1384058121 3.4670725564 0.9357952180 8.6730397334 0.3288626137 3.4400106988 7.1384032618 5.9475674627 0.9357952323 1.8679332823 3.4670742459 1.5684410464 3.4025682769 2.8093577095 4.0726598923
