3.44527645504919e-05 2.41683572219868e-05 2.23685859394984e-05 -4.11376293140201e-06 2.05688146570101e-05 -1.54266109927576e-06 4.06234089475949e-05 -3.59954256497676e-06 2.3397026672349e-05 2.31399164891363e-06 0 -2.31399164891363e-06 0.00150846544490848 -5.42502486578641e-05 -0.0750463487168341 -0.00141564866876872 5.42502486578641e-05 -0.0749928697987259 -0.00148789663025147 5.06507060928873e-05 0.0750412065131698 0.00140587848180664 -5.75926810396282e-05 0.0749936411292755 -0.000601637828717544 6.9419749467409e-06 0.0899633673264642 0.000736620674904173 -1.18270684277808e-05 0.0897813333167497 0.000566156623434202 -1.13128480613555e-05 -0.0899713377421438 -0.000746390861866253 7.19908512995352e-06 -0.0897851899694979 0.0153016554437162 -2.80250099701762e-05 -0.00666943815253552 -0.0152764586457614 2.46825775884121e-05 -0.00662187276864118 -0.0153044836557316 2.46825775884121e-05 0.00667817989876474 0.0152720877726468 -2.77678997869636e-05 0.00662187276864118 0.0214172782616117 -2.545390813805e-05 0.0129532110302521 -0.0213835968276109 2.39112470387742e-05 0.0129850926929705 -0.0214249915671081 2.21114757562858e-05 -0.0129503828182368 0.0213859108192598 -2.72536794205383e-05 -0.0129910062271843 0.0475376159945488 0.0335888743348974 0.0103314584920329 -0.047545072189862 -0.0335716479526222 0.0103587121714535 -0.0475358162232663 0.0335793612581186 -0.0103322298225826 0.0475291313585028 -0.0335505649175988 -0.0103494562048578 -0.0475458435204116 -0.0335986445218595 -0.0103417428993614 0.047532988011251 0.0335623919860265 -0.0103638543751177 0.0475345306723503 -0.0335757617155536 0.0103198885337884 -0.0475340164519838 0.0335533931296141 0.0103461137724761
