-0.262653767591414 0 0 0 -0.345379363683198 0 0 0 0.587351732251666
