10.194149 0.000000 0.000000 0.000000 6.513723 0.000000 0.000000 0.000000 5.021601
10.020746 0.000000 0.000000 0.000000 6.752250 0.000000 0.000000 0.000000 5.037027
10.083536 0.000000 0.000000 0.000000 7.340296 0.000000 0.000000 0.000000 5.075824
10.062177 0.000000 0.000000 0.000000 6.954310 0.000000 0.000000 0.000000 4.968321
10.150226 0.000000 0.000000 0.000000 6.200348 0.000000 0.000000 0.000000 4.925208
10.209598 0.000000 0.000000 0.000000 6.110524 0.000000 0.000000 0.000000 4.885790
10.056269 0.000000 0.000000 0.000000 6.167495 0.000000 0.000000 0.000000 4.807046
10.096566 0.000000 0.000000 0.000000 6.038006 0.000000 0.000000 0.000000 4.865600
10.162814 0.000000 0.000000 0.000000 6.418250 0.000000 0.000000 0.000000 5.027079
10.392017 0.000000 0.000000 0.000000 6.437470 0.000000 0.000000 0.000000 4.937225
10.292282 0.000000 0.000000 0.000000 6.211104 0.000000 0.000000 0.000000 5.013831
10.471845 0.000000 0.000000 0.000000 6.233700 0.000000 0.000000 0.000000 4.890086
10.127199 0.000000 0.000000 0.000000 6.484055 0.000000 0.000000 0.000000 5.071293
10.707338 0.000000 0.000000 0.000000 6.144319 0.000000 0.000000 0.000000 5.017277
10.308270 0.000000 0.000000 0.000000 6.508634 0.000000 0.000000 0.000000 4.967240
10.368366 0.000000 0.000000 0.000000 6.498390 0.000000 0.000000 0.000000 5.120006
10.200721 0.000000 0.000000 0.000000 6.470807 0.000000 0.000000 0.000000 5.078088
10.337395 0.000000 0.000000 0.000000 6.517121 0.000000 0.000000 0.000000 4.962916
10.190215 0.000000 0.000000 0.000000 6.597078 0.000000 0.000000 0.000000 5.100612
10.135689 0.000000 0.000000 0.000000 6.165640 0.000000 0.000000 0.000000 4.901056
10.057719 0.000000 0.000000 0.000000 6.137750 0.000000 0.000000 0.000000 4.849576
10.144618 0.000000 0.000000 0.000000 6.104750 0.000000 0.000000 0.000000 4.834566
10.147694 0.000000 0.000000 0.000000 6.154369 0.000000 0.000000 0.000000 4.904527
10.317028 0.000000 0.000000 0.000000 6.334334 0.000000 0.000000 0.000000 5.039695
10.357875 0.000000 0.000000 0.000000 6.333265 0.000000 0.000000 0.000000 5.010804
10.425441 0.000000 0.000000 0.000000 6.210381 0.000000 0.000000 0.000000 4.946458
10.239700 0.000000 0.000000 0.000000 6.472752 0.000000 0.000000 0.000000 5.063007
10.503061 0.000000 0.000000 0.000000 6.510547 0.000000 0.000000 0.000000 5.030119
10.149031 0.000000 0.000000 0.000000 6.447410 0.000000 0.000000 0.000000 5.060539
10.459236 0.000000 0.000000 0.000000 6.385691 0.000000 0.000000 0.000000 5.059535
10.406979 0.000000 0.000000 0.000000 6.394297 0.000000 0.000000 0.000000 4.996598
10.470122 0.000000 0.000000 0.000000 6.368959 0.000000 0.000000 0.000000 5.123100
10.258697 0.000000 0.000000 0.000000 6.532424 0.000000 0.000000 0.000000 5.021172
10.260196 0.000000 0.000000 0.000000 6.611817 0.000000 0.000000 0.000000 5.034762
10.161550 0.000000 0.000000 0.000000 6.679051 0.000000 0.000000 0.000000 5.072425
10.059826 0.000000 0.000000 0.000000 6.116048 0.000000 0.000000 0.000000 4.838244
10.053008 0.000000 0.000000 0.000000 6.107289 0.000000 0.000000 0.000000 4.936213
10.292847 0.000000 0.000000 0.000000 6.245484 0.000000 0.000000 0.000000 4.906948
10.265845 0.000000 0.000000 0.000000 6.156740 0.000000 0.000000 0.000000 4.849505
10.543654 0.000000 0.000000 0.000000 6.261038 0.000000 0.000000 0.000000 5.041743
10.437600 0.000000 0.000000 0.000000 6.364922 0.000000 0.000000 0.000000 5.079046
10.328651 0.000000 0.000000 0.000000 6.383994 0.000000 0.000000 0.000000 5.017710
10.412509 0.000000 0.000000 0.000000 6.460650 0.000000 0.000000 0.000000 5.004855
10.511991 0.000000 0.000000 0.000000 6.398801 0.000000 0.000000 0.000000 5.096976
10.354937 0.000000 0.000000 0.000000 6.356308 0.000000 0.000000 0.000000 5.005193
10.414749 0.000000 0.000000 0.000000 6.493687 0.000000 0.000000 0.000000 5.077459
10.223584 0.000000 0.000000 0.000000 6.373510 0.000000 0.000000 0.000000 5.015347
10.602604 0.000000 0.000000 0.000000 6.450995 0.000000 0.000000 0.000000 5.100933
10.282651 0.000000 0.000000 0.000000 6.376828 0.000000 0.000000 0.000000 5.075050
10.349371 0.000000 0.000000 0.000000 6.570307 0.000000 0.000000 0.000000 5.170055
10.247317 0.000000 0.000000 0.000000 6.771251 0.000000 0.000000 0.000000 5.055137
9.970555 0.000000 0.000000 0.000000 6.140117 0.000000 0.000000 0.000000 4.859804
10.030508 0.000000 0.000000 0.000000 6.159515 0.000000 0.000000 0.000000 4.955852
10.124957 0.000000 0.000000 0.000000 6.153293 0.000000 0.000000 0.000000 4.962958
10.118071 0.000000 0.000000 0.000000 6.061274 0.000000 0.000000 0.000000 4.821259
10.496735 0.000000 0.000000 0.000000 6.495354 0.000000 0.000000 0.000000 5.089430
10.059492 0.000000 0.000000 0.000000 6.513578 0.000000 0.000000 0.000000 4.984134
10.505966 0.000000 0.000000 0.000000 6.463281 0.000000 0.000000 0.000000 5.175863
10.299794 0.000000 0.000000 0.000000 6.332373 0.000000 0.000000 0.000000 4.974126
10.509020 0.000000 0.000000 0.000000 6.500843 0.000000 0.000000 0.000000 5.144817
9.940603 0.000000 0.000000 0.000000 6.647283 0.000000 0.000000 0.000000 5.044857
10.380484 0.000000 0.000000 0.000000 6.787273 0.000000 0.000000 0.000000 5.108458
10.314714 0.000000 0.000000 0.000000 6.708064 0.000000 0.000000 0.000000 4.969396
10.598082 0.000000 0.000000 0.000000 6.490429 0.000000 0.000000 0.000000 5.195759
10.235704 0.000000 0.000000 0.000000 6.645073 0.000000 0.000000 0.000000 5.347939
9.840940 0.000000 0.000000 0.000000 6.866715 0.000000 0.000000 0.000000 5.116917
10.320940 0.000000 0.000000 0.000000 7.587648 0.000000 0.000000 0.000000 5.039965
10.193727 0.000000 0.000000 0.000000 6.060610 0.000000 0.000000 0.000000 4.880402
9.978440 0.000000 0.000000 0.000000 6.087483 0.000000 0.000000 0.000000 4.812222
10.179212 0.000000 0.000000 0.000000 6.324858 0.000000 0.000000 0.000000 5.025141
10.154616 0.000000 0.000000 0.000000 6.203932 0.000000 0.000000 0.000000 5.046029
10.143425 0.000000 0.000000 0.000000 6.614135 0.000000 0.000000 0.000000 4.904988
10.548239 0.000000 0.000000 0.000000 6.397100 0.000000 0.000000 0.000000 5.094545
10.320785 0.000000 0.000000 0.000000 6.586790 0.000000 0.000000 0.000000 5.112743
10.363282 0.000000 0.000000 0.000000 6.647725 0.000000 0.000000 0.000000 5.042743
9.426997 0.000000 0.000000 0.000000 8.901916 0.000000 0.000000 0.000000 5.106538
10.648787 0.000000 0.000000 0.000000 6.482300 0.000000 0.000000 0.000000 5.163055
10.071227 0.000000 0.000000 0.000000 6.859542 0.000000 0.000000 0.000000 5.125323
9.797408 0.000000 0.000000 0.000000 7.245085 0.000000 0.000000 0.000000 5.149808
9.444695 0.000000 0.000000 0.000000 8.468750 0.000000 0.000000 0.000000 5.258551
9.662740 0.000000 0.000000 0.000000 8.200937 0.000000 0.000000 0.000000 5.199359
10.415494 0.000000 0.000000 0.000000 6.730515 0.000000 0.000000 0.000000 5.181276
9.695702 0.000000 0.000000 0.000000 8.686952 0.000000 0.000000 0.000000 5.107170
10.121074 0.000000 0.000000 0.000000 6.248119 0.000000 0.000000 0.000000 5.021209
9.881231 0.000000 0.000000 0.000000 6.558173 0.000000 0.000000 0.000000 5.085962
10.269839 0.000000 0.000000 0.000000 6.241584 0.000000 0.000000 0.000000 5.062065
10.033835 0.000000 0.000000 0.000000 6.239446 0.000000 0.000000 0.000000 4.963247
9.287150 0.000000 0.000000 0.000000 9.320058 0.000000 0.000000 0.000000 5.144327
10.558811 0.000000 0.000000 0.000000 6.458382 0.000000 0.000000 0.000000 5.093156
10.207479 0.000000 0.000000 0.000000 6.622452 0.000000 0.000000 0.000000 5.072278
10.064309 0.000000 0.000000 0.000000 6.921291 0.000000 0.000000 0.000000 5.085146
10.663061 0.000000 0.000000 0.000000 6.451297 0.000000 0.000000 0.000000 5.179140
10.656277 0.000000 0.000000 0.000000 6.428379 0.000000 0.000000 0.000000 5.195538
10.399137 0.000000 0.000000 0.000000 6.280294 0.000000 0.000000 0.000000 5.155783
10.544354 0.000000 0.000000 0.000000 6.385820 0.000000 0.000000 0.000000 5.132972
10.528324 0.000000 0.000000 0.000000 6.382937 0.000000 0.000000 0.000000 5.025521
10.084138 0.000000 0.000000 0.000000 6.088486 0.000000 0.000000 0.000000 4.829460
10.167140 0.000000 0.000000 0.000000 6.189317 0.000000 0.000000 0.000000 4.944573
10.088440 0.000000 0.000000 0.000000 6.165364 0.000000 0.000000 0.000000 4.914049
10.478550 0.000000 0.000000 0.000000 6.349620 0.000000 0.000000 0.000000 5.075795
10.417412 0.000000 0.000000 0.000000 6.419061 0.000000 0.000000 0.000000 5.186612
10.176129 0.000000 0.000000 0.000000 6.528255 0.000000 0.000000 0.000000 5.000463
10.403111 0.000000 0.000000 0.000000 6.786650 0.000000 0.000000 0.000000 5.047362
8.713681 0.000000 0.000000 0.000000 8.924376 0.000000 0.000000 0.000000 5.312997
10.588274 0.000000 0.000000 0.000000 6.479936 0.000000 0.000000 0.000000 5.130638
9.410055 0.000000 0.000000 0.000000 9.245245 0.000000 0.000000 0.000000 5.238273
10.145268 0.000000 0.000000 0.000000 6.728306 0.000000 0.000000 0.000000 5.032090
10.406300 0.000000 0.000000 0.000000 6.218700 0.000000 0.000000 0.000000 4.946900
10.406300 0.000000 0.000000 0.000000 6.218700 0.000000 0.000000 0.000000 4.946900
10.406300 0.000000 0.000000 0.000000 6.218700 0.000000 0.000000 0.000000 4.946900
10.406300 0.000000 0.000000 0.000000 6.218700 0.000000 0.000000 0.000000 4.946900
10.406300 0.000000 0.000000 0.000000 6.218700 0.000000 0.000000 0.000000 4.946900
10.406300 0.000000 0.000000 0.000000 6.218700 0.000000 0.000000 0.000000 4.946900
10.406300 0.000000 0.000000 0.000000 6.218700 0.000000 0.000000 0.000000 4.946900
10.406300 0.000000 0.000000 0.000000 6.218700 0.000000 0.000000 0.000000 4.946900
10.406300 0.000000 0.000000 0.000000 6.218700 0.000000 0.000000 0.000000 4.946900
10.406300 0.000000 0.000000 0.000000 6.218700 0.000000 0.000000 0.000000 4.946900
10.406300 0.000000 0.000000 0.000000 6.218700 0.000000 0.000000 0.000000 4.946900
10.406300 0.000000 0.000000 0.000000 6.218700 0.000000 0.000000 0.000000 4.946900
10.406300 0.000000 0.000000 0.000000 6.218700 0.000000 0.000000 0.000000 4.946900
10.406300 0.000000 0.000000 0.000000 6.218700 0.000000 0.000000 0.000000 4.946900
10.406300 0.000000 0.000000 0.000000 6.218700 0.000000 0.000000 0.000000 4.946900
10.406300 0.000000 0.000000 0.000000 6.218700 0.000000 0.000000 0.000000 4.946900
10.406300 0.000000 0.000000 0.000000 6.218700 0.000000 0.000000 0.000000 4.946900
10.406300 0.000000 0.000000 0.000000 6.218700 0.000000 0.000000 0.000000 4.946900
10.406300 0.000000 0.000000 0.000000 6.218700 0.000000 0.000000 0.000000 4.946900
10.406300 0.000000 0.000000 0.000000 6.218700 0.000000 0.000000 0.000000 4.946900
10.406300 0.000000 0.000000 0.000000 6.218700 0.000000 0.000000 0.000000 4.946900
10.406300 0.000000 0.000000 0.000000 6.218700 0.000000 0.000000 0.000000 4.946900
10.406300 0.000000 0.000000 0.000000 6.218700 0.000000 0.000000 0.000000 4.946900
10.406300 0.000000 0.000000 0.000000 6.218700 0.000000 0.000000 0.000000 4.946900
10.406300 0.000000 0.000000 0.000000 6.218700 0.000000 0.000000 0.000000 4.946900
10.406300 0.000000 0.000000 0.000000 6.218700 0.000000 0.000000 0.000000 4.946900
10.406300 0.000000 0.000000 0.000000 6.218700 0.000000 0.000000 0.000000 4.946900
10.406300 0.000000 0.000000 0.000000 6.218700 0.000000 0.000000 0.000000 4.946900