-0.0538315 -0.227259 4.88031 5.3078 -0.111705 2.65994 0.358769 3.16869 4.99551 3.01511 4.71972 -0.21644 2.36203 1.46749 2.57655 7.38364 1.46561 4.97215 8.00823 4.65173 2.43647 1.26007 4.56443 2.15862 4.02311 1.57577 4.83812 9.18026 1.51461 2.72193 6.42409 4.83306 0.214388 1.30468 4.7828 3.74192 4.00645 1.41768 1.35296 9.05376 1.54995 1.21394 6.63023 4.8037 3.70289 4.89442 4.69145 0.517201 0.453113 1.41726 3.14689 5.45642 1.66617 4.36347 9.92468 4.62729 1.77322 1.94353 5.84295 1.36421 3.39984 0.328187 4.06411 8.56995 2.74417 3.48666 7.16471 3.59686 0.819728 8.44182 0.296441 3.4287 6.95473 6.12165 0.983644 1.92729 3.27516 1.73884 3.16995 2.77615 4.21298
10.0911 6.30801 -0.0730015 5.40282 -0.199803 2.52657 0.540033 2.82969 5.00649 3.04559 4.89756 4.89054 2.50757 1.59089 2.55616 7.36931 1.63162 5.03681 7.98981 4.53015 2.37488 1.20779 4.76194 2.29316 4.05693 1.42384 4.78185 9.12881 1.44929 2.70436 6.31315 4.70187 0.181135 1.26999 4.84022 3.89714 3.97025 1.31481 1.22322 9.01722 1.38881 1.14746 6.42185 4.79702 3.66829 4.83242 4.66145 0.599186 0.481751 1.23674 3.27307 5.46342 1.54049 4.23645 9.73674 5.00695 1.73569 2.14922 5.89415 1.62884 3.48469 0.15459 4.03933 8.68558 2.88248 3.2298 7.13098 3.52579 0.753368 8.2109 0.399562 3.39747 7.01558 5.95437 0.946452 1.69024 3.35736 1.80212 3.25298 2.64576 4.17467
9.67863 6.59075 4.92632 5.48479 6.92054 2.5978 0.490004 2.62542 4.92422 3.10091 5.35241 4.98351 2.38696 1.77569 2.49849 7.32409 1.57457 -0.169051 7.99329 4.42346 2.31439 1.29741 4.95178 2.29133 4.02637 1.0148 4.94097 9.11788 1.35838 2.69771 6.46536 4.81185 0.12391 1.65672 5.11464 3.77827 3.8354 0.876164 1.42495 8.83321 1.18873 1.14268 6.67982 4.98377 3.62876 4.86117 4.7466 0.435867 0.475186 1.09241 3.12975 5.47462 1.30979 4.63123 9.82609 5.29513 2.06405 2.14965 5.96092 1.46586 3.74206 -0.307024 4.13892 8.79429 2.89392 3.22981 7.19692 3.53144 0.61839 8.0758 0.462961 3.5397 7.08642 5.93151 1.0071 1.65433 3.42293 1.79422 3.00664 2.01218 4.34604
10.0146 6.39272 0.0144724 5.45153 -0.288789 2.38776 0.329289 2.94648 5.01741 3.08888 5.20917 4.88693 2.47285 1.58443 2.60429 7.39365 1.66284 -0.101994 7.88287 4.48916 2.37706 1.25041 4.69011 2.28415 4.07744 1.33 4.71862 9.11768 1.32759 2.73499 6.33807 4.85196 0.253127 1.43027 4.88837 3.77715 3.8242 1.10751 1.26021 8.98877 1.35024 1.25278 6.58153 4.88931 3.70933 4.86619 4.96205 0.549149 0.621145 1.29587 3.10629 5.55705 1.30447 4.3704 9.83975 4.72577 1.90383 1.95851 5.85279 1.47043 3.35616 0.132241 3.92387 8.5154 2.60717 3.41668 7.03956 3.46616 0.80512 8.41518 0.138171 3.43765 7.11989 5.91317 1.0178 1.83676 3.37329 1.74918 3.31696 2.66221 4.19268
0.357673 0.0777223 4.93775 5.27911 6.23722 2.4014 10.2552 3.32786 -0.0674027 3.06068 4.71243 4.80233 2.37884 1.71235 2.34123 7.38167 1.40042 0.207728 7.91891 4.57889 2.69812 1.24124 4.70655 2.20244 4.10507 1.56808 4.49586 9.16293 1.57689 2.76773 6.26788 4.47289 0.377727 1.45354 4.79456 3.68818 4.08071 1.49725 1.13795 9.06761 1.48824 1.23894 6.38295 4.59988 3.698 4.8105 4.75425 0.68085 0.537666 1.65214 3.10513 5.61528 1.59773 4.09252 9.91096 4.71351 1.7937 2.00048 5.91865 1.53393 3.39401 0.374687 3.86992 8.4916 2.80844 3.51669 6.78926 3.18724 1.07814 8.46618 0.369908 3.45201 7.05753 5.75001 0.977413 1.93071 3.51171 1.51589 3.41583 2.77407 3.89272
-0.010712 6.23227 4.98573 5.25277 6.22814 2.45688 0.26007 2.94517 4.92754 2.98487 4.66971 0.108686 2.52132 1.49883 2.41131 7.38835 1.68337 0.00435676 8.02764 4.61474 2.51096 1.1649 4.63428 2.20484 4.1427 1.6357 4.59353 9.22006 1.59136 2.70194 6.24038 4.62294 0.305696 1.17525 4.71441 3.76073 4.05718 1.53789 1.29015 9.08835 1.68448 1.11555 6.36709 4.5602 3.71098 4.78586 4.53794 0.897794 0.471671 1.41892 3.12581 5.58325 1.60232 4.03456 9.88236 4.73954 1.67252 1.95581 5.83013 1.57595 3.3684 0.406595 3.87622 8.56872 2.77678 3.48958 7.16324 3.50673 0.958943 8.49502 0.360878 3.38639 6.9148 5.89586 0.904401 1.89316 3.36399 1.59393 3.27703 2.82508 4.09449
0.26569 0.181908 4.95354 5.10201 6.02508 2.58782 0.187201 3.07569 4.8412 2.96351 4.68204 4.82846 2.51535 1.67219 2.33868 7.28114 1.5477 0.143487 7.96413 4.51996 2.58248 1.20784 4.74128 2.15786 4.19189 1.63737 4.50405 9.24252 1.57499 2.76255 6.27055 4.54985 0.383869 1.27906 4.67786 3.71848 4.2642 1.64834 1.20524 9.10096 1.66836 1.26703 6.28649 4.5292 3.70923 4.78134 4.60369 0.900734 0.648463 1.57559 3.18668 5.65725 1.54178 3.93852 9.79129 4.75541 1.64124 1.93412 5.9387 1.53762 3.44199 0.34492 3.97897 8.50932 2.78207 3.40386 7.08946 3.35131 1.02784 8.51937 0.296089 3.44714 6.98815 5.80514 1.12081 1.90987 3.52409 1.4572 3.39784 2.85755 3.91068
10.2292 6.07057 0.0635942 5.40484 6.39354 2.48904 10.272 3.10926 4.88047 3.03104 4.52129 4.82396 2.41766 1.60764 2.3811 7.41126 1.69053 0.129858 7.98173 4.46076 2.50393 1.23931 4.63886 2.19187 4.12454 1.58826 4.6636 9.2314 1.49775 2.7302 6.26231 4.69986 0.330131 1.36114 4.65859 3.71291 4.02515 1.59717 1.29754 9.17709 1.57251 1.24152 6.27242 4.65207 3.66708 4.76414 4.81189 0.761169 0.577069 1.68943 3.21919 5.5877 1.80541 4.20506 9.81362 4.56741 1.83176 1.94451 5.86096 1.43117 3.59517 0.348654 3.93928 8.4827 2.76541 3.50472 6.903 3.45508 1.04861 8.48856 0.339192 3.39799 7.05099 5.9596 0.916746 1.84916 3.46993 1.42738 3.11932 2.62733 4.03436
0.172455 0.0285331 4.90089 5.02667 6.23504 2.56207 0.171591 3.13328 4.9248 3.01829 4.74372 4.95005 2.42772 1.56996 2.55612 7.31999 1.56976 0.00921312 8.10427 4.78892 2.49014 1.2411 4.7562 2.14327 4.01223 1.51324 4.80962 9.15286 1.52502 2.72381 6.34679 4.61383 0.243965 1.36095 4.70997 3.70418 3.89288 1.34669 1.35148 9.11176 1.53552 1.14987 6.62466 4.62409 3.76461 4.81751 4.62151 0.522899 0.508067 1.49829 3.13274 5.53185 1.61779 4.34187 9.8871 4.7518 1.70455 1.91632 5.94208 1.43325 3.20567 0.320875 4.0477 8.41282 2.76216 3.32575 7.06698 3.34504 0.92652 8.4512 0.255556 3.36402 7.01415 5.88739 1.03271 1.80844 3.46691 1.44766 3.28773 2.80322 4.11273
10.4035 6.35317 -0.00882318 5.14603 -0.179399 2.49492 10.4988 3.15605 4.92771 2.9485 4.64336 4.99509 2.30177 1.64127 2.60717 7.39743 1.51939 0.000687688 8.07901 4.61524 2.448 1.17028 4.77858 2.33486 4.05587 1.49689 4.81913 9.21708 1.51973 2.72581 6.37002 4.72765 0.068729 1.10104 4.80859 3.84028 4.05152 1.4613 1.39711 9.12401 1.53955 1.10777 6.44419 4.79525 3.40348 4.85421 4.68563 0.572495 0.372752 1.37502 3.18101 5.56122 1.49055 4.26065 10.0526 4.81376 1.68823 1.92436 5.97291 1.69424 3.23208 0.325567 4.00812 8.63843 2.87453 3.24225 7.21075 3.55915 0.645233 8.47993 0.302483 3.26561 7.02538 5.97609 0.777749 1.79393 3.50723 1.70742 3.23124 2.76109 4.27946
0.0336993 0.0913999 -0.0795247 5.24802 0.105928 2.41699 10.2265 3.13331 5.13547 3.01854 4.54805 4.97981 2.18252 1.59211 2.34409 7.45505 1.56867 4.97545 8.10635 4.67796 2.50707 1.12535 4.74294 2.21414 4.05595 1.50812 4.78723 9.26951 1.5817 2.76006 6.31336 4.64553 0.255523 1.13373 4.68508 3.7236 3.92254 1.58804 1.28853 9.15999 1.58357 1.26696 6.47418 4.78618 3.78603 4.87826 4.59259 0.550961 0.471347 1.51898 3.23098 5.5379 1.50231 4.27829 9.96948 4.88224 1.64631 2.00339 5.9294 1.59641 3.32975 0.248613 4.11739 8.63308 2.9316 3.37319 7.2291 3.49612 0.785094 8.56347 0.373306 3.47442 6.93149 5.83967 1.00473 1.82249 3.55359 1.55683 3.22417 2.61126 4.07798
0.0511971 6.18423 4.85602 5.0795 6.24387 2.50077 10.3949 2.99194 0.0864532 2.89032 4.77337 4.86191 2.28964 1.55541 2.38623 7.41895 1.52949 0.136931 8.13395 4.47782 2.46888 1.08027 4.72835 2.18361 3.99914 1.65882 4.65612 9.39412 1.57601 2.77692 6.35736 4.70107 0.30161 1.18638 4.69787 3.66658 3.92996 1.65418 1.31248 9.30949 1.51022 1.29899 6.50421 4.58501 3.6571 4.88069 4.83431 0.827671 0.431133 1.6406 3.22613 5.51219 1.58685 4.24235 10.0241 4.79093 1.6971 1.82675 5.86206 1.46625 3.17354 0.407521 4.05711 8.74602 2.78398 3.53506 7.19774 3.40533 0.91247 8.60136 0.395764 3.53791 7.09312 5.97675 0.870873 1.72635 3.44705 1.43432 3.08383 2.87397 4.03133
0.200804 -0.13552 -0.076816 5.16031 6.27801 2.36255 10.2725 2.90157 -0.0229774 2.99928 4.61632 -0.0650059 2.48477 1.62019 2.53252 7.43263 1.53078 -0.0174769 8.00555 4.73053 2.44058 1.28289 4.64514 2.23404 4.04563 1.45854 4.84522 9.18143 1.37671 2.78602 6.26562 4.85676 0.0795358 1.41461 4.72301 3.79113 4.00576 1.44929 1.33384 8.99933 1.46809 1.17905 6.45086 4.85945 3.62309 4.81404 5.03251 0.42103 0.502098 1.4643 3.16423 5.53534 1.52721 4.40651 9.92696 4.66397 1.74379 2.00374 5.83967 1.48911 3.27576 0.306217 4.08173 8.49467 2.61758 3.46063 6.90681 3.58901 0.804152 8.50456 0.141799 3.43388 7.04505 6.02131 0.846347 1.88625 3.30029 1.51023 3.2062 2.66863 4.18958
10.4723 6.11857 4.8983 5.13116 6.09963 2.38847 10.5335 3.22265 4.96264 3.13954 4.70494 4.80751 2.15865 1.68341 2.43668 7.41606 1.56047 0.255701 8.21252 4.5724 2.51295 1.07231 4.546 2.2647 4.04646 1.58248 4.78929 9.37111 1.53455 2.76049 6.30887 4.58371 0.138251 1.26861 4.60761 3.81246 3.85111 1.58448 1.33067 9.24446 1.6276 1.19461 6.4523 4.62123 3.6 4.83118 4.5797 0.657865 0.201027 1.30087 3.10661 5.50761 1.62039 4.32858 10.2067 4.67309 1.76115 1.85756 5.75391 1.649 3.33094 0.362056 3.98684 8.81014 2.88893 3.34007 7.18481 3.49428 0.806654 8.51825 0.348478 3.36351 7.0153 5.83881 0.847347 1.72173 3.35991 1.57156 3.20669 2.76608 4.07348
10.1765 6.24867 5.05604 5.16453 -0.111413 2.52074 10.5567 2.99035 5.0037 3.00361 4.65062 4.95231 2.25642 1.53022 2.44753 7.35497 1.50252 0.0154267 8.1087 4.60452 2.45298 1.21573 4.74524 2.23386 4.0233 1.53514 4.65528 9.14301 1.50569 2.80444 6.47701 4.73379 0.214217 1.43124 4.57089 3.75679 3.79561 1.46891 1.2279 9.07861 1.56221 1.21983 6.62718 4.88149 3.7095 4.91156 4.65981 0.441782 0.435968 1.50528 3.08388 5.50195 1.46323 4.29057 9.99593 4.76731 1.78878 1.98418 5.90929 1.62082 3.30079 0.24488 4.02687 8.51109 2.69535 3.57771 7.10672 3.49171 0.898666 8.51015 0.354237 3.5115 7.13705 5.99524 0.881806 1.91718 3.58099 1.39899 3.32288 2.77871 4.03796
0.435946 -0.0774115 -0.129771 5.15986 6.35532 2.52062 10.058 3.33379 -0.199172 3.00491 4.62649 4.97535 2.25352 1.83543 2.41525 7.30003 1.25535 -0.0814743 8.2881 4.94574 2.52386 1.18555 4.76895 2.25517 3.92932 1.3858 4.84204 9.23636 1.62272 2.6306 6.42807 4.47455 0.121783 1.24988 4.61201 3.77085 3.85941 1.6302 1.29275 9.31913 1.46962 1.03956 6.54835 4.95697 3.76789 4.94037 4.44421 0.587586 0.316615 1.6166 3.15277 5.38315 1.28434 4.35729 10.0518 4.86113 1.65527 1.964 6.08148 1.81915 3.21863 -0.0118487 4.49146 8.49162 2.9067 3.22959 7.04754 3.1401 0.50033 8.4106 0.412824 3.28228 7.21433 5.54768 0.984711 1.83451 3.57544 1.44352 3.173 2.49408 4.15987
0.475358 0.161135 0.235301 4.72877 5.9151 2.41014 9.94651 3.43857 5.03572 2.93685 4.52936 4.9278 2.37568 1.48895 2.46845 7.46335 1.59932 -0.0514675 8.01648 4.63736 2.4137 1.24891 4.73733 2.20667 4.12405 1.42347 4.75102 9.25372 1.55106 2.81201 6.31206 4.77047 0.0851544 1.24051 4.66866 3.72516 3.94601 1.48056 1.3365 9.05019 1.32868 1.25318 6.45587 4.72955 3.55849 4.84874 4.54311 0.50395 0.556843 1.64535 3.18848 5.58376 1.71354 4.38591 9.94962 4.91666 1.67997 2.24567 5.83851 1.5766 3.37773 0.269644 4.09526 8.58419 2.89342 3.30467 7.26715 3.60415 0.6482 8.59756 0.396624 3.71924 6.75261 6.09605 0.774512 1.91872 3.40422 1.45074 3.25307 2.60995 4.05704
9.72942 6.06344 4.96114 5.57966 0.0514923 2.51163 0.406022 2.85185 4.94155 3.0015 4.94567 4.97292 2.35978 1.61936 2.5495 7.44701 1.58173 -0.05198 7.92686 4.46041 2.42517 1.09518 4.77102 2.21878 4.06803 1.53593 4.68582 9.28939 1.44564 2.6496 6.32472 4.68777 0.220748 1.31669 4.87128 3.71659 3.9779 1.37025 1.34902 9.18789 1.57533 1.18591 6.52232 4.79351 3.63369 4.86443 4.86157 0.534226 0.478496 1.31262 3.10185 5.5805 1.52736 4.24657 9.92586 4.55283 1.82626 1.74174 6.01612 1.36351 3.26083 0.380514 3.97528 8.73627 2.76709 3.46302 6.91639 3.36617 0.74715 8.48251 0.214592 3.31432 7.19948 5.7932 0.956129 1.87942 3.61829 1.63948 3.2572 2.75811 4.2222
0.20472 6.58151 4.93166 5.19568 -0.35691 2.58549 9.96079 3.27775 4.91476 3.17936 4.61942 -0.126748 2.29425 1.43435 2.45039 7.35846 1.49078 -0.0212804 8.12785 4.98864 2.42412 1.24575 4.73194 2.12056 3.94356 1.50951 4.7923 9.13123 1.44958 2.68564 6.42802 4.83409 0.234709 1.29393 4.78839 3.65333 3.82277 1.38032 1.25185 9.10019 1.42064 1.12618 6.53043 4.79356 3.76568 4.93931 4.62822 0.707075 0.397423 1.36424 3.14922 5.51893 1.44295 4.4465 9.94351 4.75455 1.66282 2.03431 5.77879 1.399 3.31896 0.179402 4.11942 8.38248 2.63016 3.30053 7.32909 3.67597 0.838353 8.43293 0.118071 3.54905 6.94051 6.11921 0.984935 1.83922 3.29419 1.52116 3.28515 2.73606 4.08572
10.2736 -0.05666 4.92154 5.16553 6.22837 2.3887 0.0993901 3.20817 4.97666 2.99181 4.75961 4.75648 2.51706 1.56828 2.36338 7.39651 1.40511 0.143856 8.04181 4.51375 2.62766 1.15359 4.72004 2.19105 4.19282 1.82123 4.62359 9.17863 1.49597 2.78329 6.26473 4.45734 0.342553 1.17965 4.76049 3.73754 4.21358 1.7738 1.25578 9.16418 1.51944 1.25371 6.26319 4.57626 3.69585 4.71554 4.61573 0.764957 0.538171 1.55917 3.36547 5.64128 1.60098 4.12512 9.7732 4.80499 1.72232 1.99204 5.90445 1.55139 3.26973 0.591498 4.05455 8.38991 2.67315 3.50494 7.01671 3.2996 0.95939 8.41225 0.241418 3.5289 7.00232 5.71072 1.01341 1.67262 3.39915 1.41802 3.47578 3.03329 3.83567
9.94537 6.02131 0.0782479 5.05984 0.056266 2.46614 0.318707 2.99213 0.0700058 2.98441 4.50214 4.82896 2.49093 1.5422 2.43251 7.32765 1.61894 4.82846 7.89911 4.65232 2.55713 1.31341 4.68578 2.27252 4.20884 1.60915 4.63191 9.13772 1.60923 2.77888 6.2712 4.6559 0.305705 1.24485 4.73141 3.76237 4.17021 1.70172 1.35631 9.07964 1.56828 1.23283 6.29182 4.86707 3.55243 4.85736 4.29544 0.939288 0.508713 1.36119 3.18311 5.61762 1.76067 4.0787 9.88487 4.73784 1.78888 2.12947 5.79391 1.62417 3.59845 0.26515 4.08547 8.69266 2.94048 3.46795 7.3545 3.61417 0.773029 8.32619 0.445946 3.40135 6.70039 5.99632 0.928566 2.01188 3.43626 1.68401 3.1432 2.62767 4.04753
10.2588 6.09858 0.0883456 5.17292 0.277682 2.38751 10.1412 3.21013 0.0589083 3.07635 4.67566 4.72065 2.44935 1.75957 2.50788 7.42571 1.43454 0.0914214 7.9185 4.34591 2.4974 1.17111 4.65808 2.20321 4.19349 1.63541 4.5254 9.25018 1.51407 2.84816 6.24992 4.58995 0.444094 1.30516 4.7661 3.75256 4.04774 1.74782 1.21279 9.12094 1.62071 1.25365 6.22983 4.74837 3.68754 4.75731 4.70374 0.910013 0.514064 1.59941 3.4217 5.63364 1.59189 4.06594 9.81119 4.78916 1.70889 2.0605 5.8618 1.534 3.44086 0.398654 4.03189 8.41408 2.73013 3.44698 6.93906 3.2854 0.927055 8.50891 0.259525 3.44337 6.98868 5.78063 1.16344 1.8207 3.42421 1.51135 3.41039 2.7579 3.83906
10.2476 6.20407 -0.0533206 5.12289 -0.0665186 2.57778 10.3122 3.04395 0.0679652 3.08203 4.46661 4.7002 2.32888 1.61751 2.51789 7.37104 1.63512 0.151177 7.95649 4.61599 2.54318 1.2196 4.71037 2.09229 4.13458 1.54272 4.67251 9.16102 1.56873 2.79216 6.29156 4.68025 0.339427 1.2734 4.71243 3.65606 3.92203 1.61548 1.27848 9.09953 1.5966 1.30315 6.47035 4.63556 3.71757 4.7808 4.62318 0.628403 0.528965 1.56334 3.22244 5.64327 1.55853 4.28613 9.87522 4.66459 1.73879 1.88162 5.89611 1.46847 3.45689 0.293337 3.97002 8.5562 2.81021 3.47805 7.13803 3.59207 0.996382 8.46762 0.323701 3.45311 6.97049 5.92699 1.02989 1.98491 3.46171 1.49144 3.37136 2.75233 3.921
10.4774 0.0175328 -0.162195 5.23088 -0.129673 2.64322 -0.0380134 3.29138 4.97028 3.10497 4.51411 4.9093 2.29521 1.63325 2.38147 7.28882 1.49273 0.0129141 8.16917 4.81168 2.53951 1.26157 4.70018 2.19973 3.94693 1.39239 4.70119 9.17884 1.6707 2.73057 6.35981 4.57906 0.306963 1.33972 4.62722 3.64364 3.89118 1.40756 1.1485 9.03707 1.56777 1.15933 6.53827 4.84866 3.85659 4.87691 4.61289 0.648759 0.393912 1.7124 3.19704 5.51486 1.45156 4.34164 10.0791 4.67961 1.73141 1.85398 6.05405 1.60115 3.3124 0.156548 3.98216 8.42952 2.87002 3.39313 7.12883 3.24126 0.786946 8.52464 0.460925 3.50807 7.11435 5.76172 1.11998 1.97002 3.56151 1.45241 3.17242 2.62075 4.0415
10.3744 6.17765 5.01062 5.20723 -0.102876 2.44149 10.2576 2.94586 0.0836009 3.07911 4.85403 -0.0309397 2.25543 1.57882 2.46978 7.31378 1.49977 -0.0459411 8.13063 4.48162 2.4233 1.28078 4.71433 2.23805 4.03007 1.66637 4.76302 9.20652 1.40008 2.75806 6.39745 4.79326 0.205655 1.24542 4.8297 3.70798 4.02077 1.57272 1.22145 9.10804 1.44662 1.15111 6.59459 4.7125 3.72248 4.89355 4.88027 0.635346 0.341019 1.59949 3.21286 5.62708 1.57588 4.15387 10.1129 4.6844 1.67509 1.85996 5.91841 1.45867 3.36601 0.442195 3.93674 8.28445 2.51137 3.38724 7.07964 3.64583 0.961655 8.71937 0.00296218 3.39369 6.96436 6.01911 1.00475 1.93829 3.32548 1.58859 3.24526 2.85827 4.28506
10.3798 6.18149 4.96158 5.29196 -0.00270692 2.52841 -0.105416 3.01736 -0.0148378 3.06861 4.5828 4.89412 2.35801 1.45852 2.38835 7.35709 1.6329 0.0464652 8.09946 4.71609 2.47217 1.15623 4.58698 2.29786 4.0636 1.57191 4.65731 9.27431 1.58247 2.73857 6.37984 4.67245 0.317342 1.19695 4.62925 3.79506 3.96439 1.53671 1.25249 9.16743 1.52341 1.19713 6.40354 4.75927 3.73589 4.90342 4.58174 0.751834 0.314004 1.54268 3.17417 5.52142 1.67248 4.14469 10.0607 4.72394 1.78917 1.88267 5.96984 1.65902 3.44992 0.222488 3.95727 8.56976 2.84775 3.35953 7.22348 3.4938 0.829099 8.47453 0.494809 3.38301 6.91341 5.99873 0.984901 1.83505 3.41937 1.56201 3.11357 2.75009 4.00924
10.2496 -0.0980083 4.90927 5.2384 6.30265 2.62569 10.332 3.13063 -0.0696772 2.99655 4.71143 4.8833 2.36819 1.66625 2.3734 7.38942 1.21109 0.177173 7.97758 4.57244 2.3339 1.16037 4.81035 2.23164 4.16222 1.47893 4.77828 9.23344 1.71038 2.84311 6.2702 4.61313 0.0866828 1.27017 4.68081 3.73075 4.04362 1.43724 1.33578 9.10153 1.57436 1.2575 6.52595 4.86863 3.61882 4.76901 4.69269 0.526698 0.535058 1.60936 3.28872 5.58771 1.42251 4.47232 9.94477 4.75704 1.68885 1.85113 5.99843 1.54014 3.3319 0.392066 4.09456 8.57086 2.96 3.43154 7.15277 3.42902 0.747842 8.47949 0.474146 3.52885 7.01763 5.81491 0.934291 1.96085 3.56222 1.52187 3.45191 2.70817 4.13445
0.308702 0.224618 0.0627109 5.45625 6.31872 2.4158 10.1043 3.29682 0.0204087 3.12331 4.80217 4.8822 2.32485 1.49378 2.35761 7.38441 1.43587 0.0299997 8.14561 4.67443 2.43677 1.05445 4.6757 2.24102 4.01082 1.42226 4.53144 9.30191 1.55547 2.7827 6.39418 4.66316 0.230504 1.30545 4.84745 3.77557 3.80182 1.30772 1.13947 9.1681 1.38325 1.27039 6.57939 4.62821 3.72284 4.88748 4.55799 0.703496 0.333779 1.56013 3.30793 5.61118 1.44843 4.29406 9.92512 4.9774 1.92751 1.74051 5.87249 1.52385 3.39444 0.244961 3.82645 8.56227 2.90258 3.32785 7.16646 3.34579 0.890371 8.59498 0.38158 3.68606 6.97941 5.94079 0.873956 1.5079 3.34343 1.5487 3.24024 2.6665 3.99203
10.0405 6.25939 4.96448 5.28963 6.15687 2.60129 0.290763 3.03925 -0.00729384 2.93361 4.90236 0.181842 2.47499 1.61287 2.4965 7.40873 1.57097 4.86146 8.00867 4.83719 2.50781 1.14968 4.72546 2.22496 4.08697 1.45208 4.73377 9.14239 1.54435 2.55475 6.4342 4.52126 0.202224 1.17941 4.84182 3.7317 4.0996 1.3029 1.16637 9.03233 1.48915 1.07044 6.61001 4.68016 3.71086 4.93374 4.40107 0.553537 0.435385 1.39911 3.10694 5.56452 1.4358 4.19342 9.88047 4.66188 1.63527 1.83336 6.03951 1.55653 3.35373 0.204409 4.04916 8.53281 2.78458 3.26264 7.20369 3.32921 0.767101 8.3855 0.320129 3.31855 7.1659 5.81227 0.827087 2.07031 3.56422 1.55368 3.29192 2.67464 4.20716
10.3384 6.14925 4.81584 5.59104 0.218374 2.70665 0.108244 3.09604 4.90398 2.84967 4.72219 5.02244 2.28894 1.4523 2.5358 7.31005 1.61778 0.0749963 8.2236 4.56112 2.46926 1.17505 4.61173 2.12309 3.93929 1.54542 4.85819 9.34655 1.487 2.6115 6.33729 4.83013 0.129067 1.32366 4.69701 3.69325 3.87857 1.52093 1.33782 9.23979 1.64312 1.1101 6.59813 4.66853 3.66632 4.79626 4.96736 0.518399 0.390287 1.2256 3.052 5.4707 1.58571 4.36496 10.0867 4.54359 1.72065 1.88853 5.84987 1.35726 3.24344 0.268975 4.13231 8.87464 2.76905 3.33065 6.99123 3.55568 0.90702 8.53312 0.364031 3.2103 7.10021 6.0694 0.735967 1.92445 3.37547 1.50987 3.21159 2.72357 4.13546
0.216951 0.0664275 4.81947 5.14229 -0.128031 2.40498 10.2222 3.10413 0.240328 3.15514 4.44877 4.84654 2.24884 1.57227 2.49097 7.29762 1.49036 4.88926 8.12 4.73481 2.46404 1.19863 4.80383 2.3217 4.02012 1.47247 4.80232 9.17553 1.62673 2.66928 6.38434 4.63258 0.11066 1.24889 4.64 3.91179 4.05491 1.6823 1.25196 9.17308 1.37474 1.15946 6.46807 4.81351 3.57388 4.88347 4.73321 0.563242 0.339622 1.45622 3.24147 5.44655 1.47298 4.1906 10.1602 4.98901 1.84573 2.10295 5.9949 1.74085 3.36558 0.17607 4.1897 8.75647 3.00574 3.24526 7.14304 3.34875 0.5296 8.35862 0.566875 3.55444 7.15721 5.77211 0.923078 1.82622 3.49776 1.76964 3.2366 2.5977 4.02955
0.226881 6.2371 4.89528 5.04259 6.25539 2.65116 10.2428 3.27624 -0.0248262 3.04297 4.62294 4.88441 2.17831 1.61425 2.49519 7.34026 1.38722 -0.0535872 8.10742 4.74887 2.54083 1.1759 4.70553 2.20253 3.92975 1.52666 4.89018 9.36479 1.55834 2.68239 6.43617 4.64316 0.116688 1.20029 4.57625 3.74906 3.87895 1.36185 1.28465 9.30106 1.40869 1.02909 6.51943 4.78126 3.67712 4.95227 4.53797 0.664429 0.291633 1.55444 3.26622 5.4317 1.62605 4.52395 10.1414 4.83719 1.67294 1.93799 5.96376 1.62544 3.34539 0.185731 4.21985 8.67716 2.8975 3.23823 7.36693 3.4675 0.584763 8.50582 0.346601 3.46831 7.0343 6.02981 0.830586 1.80922 3.53794 1.50564 3.19532 2.64029 4.09243
0.393284 -0.0183341 4.8702 4.88854 6.44936 2.51361 9.87649 3.43786 0.0475468 3.07934 4.51552 -0.0658314 2.28121 1.62439 2.29181 7.48264 1.4638 4.97091 8.09629 4.81326 2.66282 1.26488 4.70935 2.31671 4.00673 1.47746 4.74801 9.14961 1.47717 2.73187 6.39219 4.6258 0.217019 1.42519 4.60091 3.8539 3.79728 1.54786 1.21784 9.16418 1.33122 1.13419 6.43475 4.80839 3.62449 4.88422 4.70127 0.644346 0.547784 1.4543 3.10384 5.49861 1.50655 4.19281 10.0784 4.95068 2.08203 2.01335 5.8562 1.58021 3.19331 0.236782 4.22428 8.66626 2.83723 3.12882 7.11877 3.33571 0.631156 8.34631 0.245782 3.31386 7.22379 5.73269 0.988832 1.79267 3.33178 1.67134 3.15125 2.72426 3.9614
-0.0711209 -0.456039 4.92627 5.22183 6.3791 2.32379 0.228154 2.88179 -0.0264687 3.03906 4.87811 5.01515 2.47312 1.77238 2.60171 7.26472 1.77381 0.0581211 8.02632 4.69784 2.32108 1.14422 4.63289 2.28084 3.97287 1.3865 4.81529 9.26544 1.20727 2.59258 6.4426 4.90329 0.136475 1.26689 4.68474 3.84738 3.92237 1.25374 1.36342 8.99456 1.46148 1.10425 6.56601 4.85864 3.61334 4.92821 5.13053 0.458422 0.480875 1.38213 2.99809 5.46158 1.45809 4.45672 9.85535 4.14189 1.73727 1.54419 5.987 1.62931 3.21218 0.233987 4.12005 8.32894 2.27076 3.44833 6.96807 3.56213 0.852404 8.84619 -0.201576 3.19496 7.32762 6.04484 0.739713 2.04622 3.59761 1.64504 3.34894 2.71108 4.33177
10.067 6.34994 5.00364 5.62098 0.102206 2.41135 0.451869 2.86332 4.89281 3.08489 4.92428 -0.046285 2.40663 1.42445 2.45528 7.30919 1.71079 4.93574 7.99168 4.52856 2.50824 1.22372 4.76225 2.26365 3.94207 1.28598 4.73074 9.11209 1.44397 2.70741 6.26679 4.85711 0.192038 1.31379 4.81568 3.87061 3.85254 1.22083 1.23563 9.10991 1.40499 1.14419 6.47269 4.80583 3.69958 4.84418 4.85557 0.7908 0.443676 1.07411 3.21479 5.41552 1.78442 4.35928 9.90271 4.91321 1.89363 2.08558 5.84993 1.52035 3.68556 -0.0221693 3.94372 8.77408 2.69202 3.62018 7.05727 3.7138 0.8545 8.17715 0.379546 3.33346 7.013 6.1611 0.622797 1.75225 3.27807 1.73805 3.06064 2.35452 4.04783
0.30916 0.174525 0.0677174 4.90364 5.99362 2.55068 10.1187 3.17056 4.90032 2.87 4.6865 4.77936 2.65396 1.7307 2.32548 7.28441 1.45342 0.167562 7.92823 4.61195 2.47606 1.25395 4.66588 2.17756 4.22176 1.55188 4.45793 9.27619 1.64177 2.78664 6.14036 4.57634 0.453895 1.31078 4.68706 3.77133 4.29726 1.52968 1.16644 9.12778 1.66577 1.28686 6.46724 4.64187 3.79563 4.69191 4.53279 0.864525 0.70935 1.52386 3.21743 5.58249 1.34618 3.9216 9.89905 4.77622 1.73128 2.08248 5.78626 1.51416 3.30666 0.411451 3.95624 8.60814 2.85977 3.53083 6.97559 3.329 1.14571 8.50198 0.256501 3.43867 6.93358 5.77486 1.16984 1.85695 3.40988 1.55651 3.58694 2.88497 3.83571
9.91638 5.91957 0.0787175 5.5391 0.382518 2.57721 0.327961 2.97258 4.86845 2.987 4.4856 0.0586369 2.5226 1.56614 2.522 7.46673 1.73615 0.0402176 7.88027 4.4643 2.40202 1.21299 4.62851 2.24275 4.26629 1.61577 4.64264 9.11409 1.56148 2.76675 6.21261 4.727 0.142812 1.26304 4.7298 3.878 4.25891 1.56142 1.2111 9.07723 1.70015 1.2737 6.1073 4.65467 3.56086 4.82937 4.69558 0.778047 0.442032 1.41305 3.3125 5.69986 1.96011 3.94505 9.77412 4.55681 1.87776 1.9053 5.88398 1.47257 3.77027 0.226843 3.88436 8.37693 2.78764 3.48818 6.96005 3.61098 0.875183 8.38314 0.3588 3.34474 7.08173 5.97361 0.651674 1.95709 3.42369 1.59183 3.15041 2.58779 4.1693
10.4153 6.26908 4.83713 5.20476 6.0199 2.67319 -0.158675 3.1608 4.951 3.00179 4.68509 4.63792 2.35653 1.6224 2.44831 7.4235 1.42044 0.221275 8.04193 4.54124 2.5586 1.18078 4.84541 2.12863 4.14376 1.61859 4.55722 9.29371 1.51333 2.82695 6.28812 4.64692 0.38073 1.21447 4.75693 3.64502 3.94734 1.60096 1.19952 9.01873 1.54436 1.25188 6.36056 4.47651 3.74835 4.77419 4.90067 0.827856 0.513071 1.56139 3.11002 5.79317 1.59073 4.13732 9.94592 4.69675 1.65121 1.83112 6.03468 1.53135 3.38763 0.318485 3.84597 8.60961 2.75294 3.55201 7.11695 3.34985 1.00263 8.67623 0.202902 3.52546 7.00558 5.83212 1.11536 1.90862 3.55882 1.37709 3.32096 2.80787 3.88486
10.337 6.11396 4.72981 5.20014 6.018 2.41256 10.4312 3.10988 4.71105 2.9541 4.75838 4.82599 2.41271 1.62543 2.65917 7.41626 1.62275 4.85616 8.08878 4.55727 2.46206 1.17643 4.50924 2.15779 4.15745 1.69758 4.73062 9.22839 1.54704 2.73227 6.30276 4.63129 0.367888 1.31628 4.60225 3.65955 4.25414 1.77965 1.43052 9.14066 1.55032 1.23776 6.41119 4.61943 3.68735 4.8125 4.50247 0.819296 0.408935 1.44443 3.16105 5.60606 1.41999 4.04721 9.9016 4.74476 1.57625 1.98578 5.80684 1.53464 3.26415 0.536973 4.09817 8.53985 2.76924 3.4296 7.10283 3.48713 1.01376 8.45268 0.358378 3.40776 6.85457 5.94395 1.00946 1.62078 3.24088 1.50687 3.31722 2.7873 4.08815
0.311516 0.109829 -0.06852 5.0825 5.82613 2.56411 0.0184629 3.1592 4.96342 2.99129 4.50405 0.243313 2.17655 1.79081 2.27411 7.30377 1.44902 0.0984794 8.30053 4.7137 2.51999 1.07853 4.68732 2.28236 4.09102 1.46815 4.61011 9.23 1.72429 2.62535 6.39598 4.55521 0.245286 1.27716 4.58575 3.71499 3.84607 1.63223 1.16977 9.14705 1.73425 1.14691 6.70192 4.63921 3.78427 4.88311 4.6229 0.508157 0.196663 1.52187 3.01 5.55631 1.25679 4.28317 10.0987 4.84242 1.6802 1.74837 5.84419 1.62792 3.21995 0.15745 4.01302 8.87024 3.09366 3.34156 7.01975 3.25085 0.860226 8.47741 0.58721 3.40965 7.16373 5.72901 0.987079 1.7307 3.53458 1.41555 3.22671 2.74809 3.94894
10.2109 6.24249 0.115655 5.27743 0.166005 2.29005 -0.0123345 3.16143 5.0169 3.05679 4.69175 4.87609 2.31738 1.51759 2.35476 7.32745 1.56998 0.112654 8.13311 4.53159 2.56253 1.02658 4.66744 2.21355 4.09197 1.51016 4.69993 9.32491 1.49654 2.89485 6.34696 4.70896 0.106061 1.19544 4.68789 3.7928 3.96828 1.59483 1.18443 9.23068 1.70131 1.33635 6.54275 4.56628 3.6462 4.9139 4.78457 0.653658 0.36855 1.57961 3.35449 5.56988 1.78123 4.17587 10.0484 4.55423 1.78366 1.82375 5.70623 1.50501 3.49615 0.2141 4.0582 8.50072 2.6332 3.60207 7.22768 3.5603 0.798883 8.77872 0.136074 3.54896 7.13388 6.07269 0.618102 1.64232 3.35658 1.43799 3.20164 2.77754 4.1131
-0.0340598 6.32445 4.96465 5.05175 -0.29559 2.51355 0.051417 3.28359 4.90992 3.02028 4.60947 -0.002344 2.46447 1.68402 2.44634 7.43865 1.48016 5.04163 7.99696 4.76749 2.6255 1.08407 4.71612 2.18701 4.03825 1.44172 4.78027 9.29844 1.45307 2.71728 6.32322 4.53805 0.153525 1.17419 4.64321 3.7471 4.05732 1.47891 1.19093 9.12673 1.54683 1.17258 6.29604 4.77614 3.61926 4.85941 4.64565 0.561704 0.482624 1.53329 3.10458 5.51293 1.47907 4.22627 9.97822 4.78488 1.56859 1.94046 5.95212 1.64581 3.18369 0.29588 4.11933 8.78549 2.78954 3.50475 7.21561 3.41404 0.645303 8.55751 0.271825 3.26857 7.06549 5.85318 0.903805 1.93514 3.55917 1.72117 3.37298 2.70184 4.11539
0.0781644 -0.0468345 4.91386 5.24468 -0.120282 2.61346 0.278414 3.14251 4.7937 3.06015 4.53655 4.83206 2.25352 1.68377 2.38207 7.44794 1.41377 0.150478 8.02531 4.51317 2.42082 1.15296 4.88776 2.11046 3.99267 1.36197 4.84815 9.3677 1.5129 2.76014 6.27192 4.73271 0.233602 1.39849 4.93496 3.64814 3.8136 1.52226 1.46077 9.34022 1.47781 1.20343 6.55309 4.76775 3.65464 4.71969 4.81875 0.558202 0.457446 1.45519 3.25751 5.51696 1.28179 4.5103 9.91288 4.91882 1.78664 1.85032 6.0996 1.49114 3.34726 0.109456 4.20833 8.80703 2.85356 3.22729 7.0123 3.51572 0.926198 8.43771 0.394193 3.50203 6.90198 6.01085 1.04849 1.64681 3.43736 1.45771 3.33057 2.65123 4.16763
10.4883 6.32684 -0.0577897 5.18156 6.23913 2.48235 -0.0318861 3.23965 4.99047 3.04401 4.82844 4.87684 2.1306 1.44296 2.45381 7.27459 1.63128 0.0961585 8.31369 4.62665 2.41834 1.1209 4.59976 2.16054 3.86725 1.51185 4.7862 9.36438 1.44742 2.79634 6.43393 4.77958 0.1219 1.23053 4.69871 3.70222 3.56002 1.34238 1.27136 9.28513 1.4073 1.21478 6.61203 4.71893 3.65901 4.97315 4.89317 0.519848 0.406857 1.48713 3.46473 5.45095 1.55773 4.36672 10.1417 4.59322 1.72932 1.92918 5.7063 1.60802 3.21568 0.295493 3.98014 8.68862 2.57177 3.49897 7.21341 3.53378 0.852916 8.67042 0.149519 3.36613 7.1666 6.14423 0.898811 1.64919 3.20598 1.60302 3.12938 2.86765 4.16473
9.89544 5.92325 0.00663229 5.5174 0.206847 2.38162 0.350208 2.85935 4.8896 2.93726 4.86628 0.126154 2.28253 1.54466 2.46945 7.38168 1.67094 0.0380191 8.10394 4.48247 2.52944 1.18786 4.7164 2.21437 3.94391 1.63365 4.62401 9.30004 1.36679 2.65728 6.4132 4.73518 0.286378 1.14448 4.87914 3.75216 3.8827 1.55278 1.15229 9.09325 1.57195 1.15112 6.53305 4.53216 3.77616 4.83 4.83557 0.714942 0.437978 1.46522 2.98761 5.54559 1.52603 4.36533 10.0955 4.45854 1.7554 1.8098 6.00389 1.45682 3.23996 0.382305 3.95043 8.59876 2.43959 3.45317 7.02985 3.48927 1.07148 8.60222 0.0124315 3.03035 7.10573 5.91716 0.857064 2.0065 3.59586 1.5693 3.27672 2.77158 4.08531