-31249.8927202374
-31249.7920237466
-31249.6756178599
-31250.0366379075
-31249.4908465356
-31249.7267906098
-31249.5124137232
-31249.2134822666
-31250.0170559254
-31249.7195280312
-31249.7692162648
-31249.6366213818
-31249.9567729449
-31249.6969998741
-31249.7200217816
-31249.4577667617
-31249.197821579
-31249.450487176
-31249.4177570682
-31249.2726335262
-31248.8344489725
-31248.9031069323
-31249.8383535529
-31249.8567946983
-31249.0983532734
-31249.8797012295
-31249.496263367
-31248.9673332484
-31249.5764065658
-31249.6833393583
-31249.3526647502
-31249.360681764
-31248.2781465287
-31249.2517792765
-31249.1457667726
-31248.3463899233
-31248.3468289788
-31248.7626701406
-31248.7420231055
-31248.4369416072
-31249.0072493348
-31248.6327565299
-31248.9188029947
-31248.6932065882
-31248.944634476
-31249.0905249705
-31249.0942997317
-31248.737474589
-31248.1797227316
-31248.4676466449
-31248.9067142075
-31247.7569637593
-31247.9842196512
-31248.7185601018
-31247.9824975796
-31248.8125366087
-31247.9962604102
-31248.3199286348
-31248.6447892616
-31248.5775496944
-31247.8367249104
-31248.1422656006
-31248.2951480566
-31246.9882607907
-31246.5693417508
-31246.4565424591
-31248.1751463234
-31246.2962504832
-31247.4023039613
-31247.5022252001
-31247.741469061
-31246.7513296241
-31247.356577295
-31247.6378331981
-31247.8236731129
-31247.6207581995
-31247.4067075773
-31246.5201856356
-31246.4315616052
-31248.1872680363
-31246.6489222185
-31246.1726693664
-31247.5109076679
-31246.5115148686
-31247.2120385253
-31246.7381359193
-31247.2386901574
-31246.0770827628
-31247.6399316029
-31245.9497198098
-31245.8429055229
-31247.1548492055
-31247.5909467832
-31247.6177827723
-31248.474384044
-31248.1349317283
-31247.3933001271
-31247.4066507055
-31247.7650320665
-31248.2257261375
-31247.569751439
-31247.9133412436
-31248.3844937325
-31248.5119723338
-31248.1237741142
-31246.4679336828
-31247.2200114567
-31250.072849438
-31250.0296342451
-31249.8879270906
-31250.0815568043
-31249.6503749605
-31249.0385815946
-31249.6671249193
-31249.7005691895
-31248.6736277354
-31248.9076947693
-31249.1938745698
-31249.4078707693
-31248.8483058184
-31248.236276802
-31248.3087941504
-31248.9184077495
-31247.0610403207
-31248.064157132
-31248.4554456108
-31247.3800250603
-31247.3445142226
-31247.1647975463
-31246.164430716
-31247.9081868659
-31247.9812485778
-31248.8499555077
-31247.7313820783
-31248.7273105981