0.28895250807296 -0.0059909243790374 0.399983483811867 -0.255148689624897 0.162957205450712 -0.28397614047688 -0.647206752039234 -0.817949768057991 -0.31161574228242 0.944749568443511 0.829994608810953 0.489288391959123 0.39952839878758 -0.371590806279696 -0.0712640008115931 -0.421835792503474 0.688128408799356 -0.113946090996172 0.916155830748069 -0.424831383248085 -0.139940958959701 -0.610548239226961 3.96408546691423 1.09636795770436 -0.86605405489634 -0.15821043724824 -0.0500156439403521 -1.24168843302742 -0.106719495076614 1.6873416273528 -1.63404885701722 -1.06922020767931 0.349065640238621 0.282527324594476 -0.117394452773419 -1.21805975008 -0.800136660344654 0.115579511990121 -0.022302765732596 -0.00609736799488742 -0.172394948945898 -1.46675728809791 -0.565790755643491 0.677414627464886 0.273161829060773 0.125938738381941 0.573958117723423 -0.174258997774189 1.62737710487303 -0.263934915915822 0.512061669326998 2.30070136643319 -0.00221114757562858 -0.426995993880552 0.429834490303219 -0.0862432400855607 -0.487922622665898 -0.605852121730583 -2.1670274681893 1.07650799582247 -0.454021873678764 -0.0356830367771643 0.0457383589324269 -0.170208998168224 0.111152331745383 -0.30924441506265 0.483945128131599 0.287905041186552 0.557683300236247 -0.11676710392638 0.18849338884739 -0.252748566064607 0.257209427743346 -0.61774938123838 -0.799071709965787 0.170441168663665 -0.348184009420385 -0.881034579721224 0.168044130425574 -0.834333857373032 0.521954754956654
-0.504284343395 0.6136597866642 0.0672199147398417 -0.0708546813999186 0.108435705549559 0.00891760959454672 -0.246802121747265 0.0624194105090788 -0.310558248098867 0.356420019919235 0.398721329922476 0.305510918092219 -0.260996146521701 -0.355555872593458 0.157932501140188 -0.531444691819032 -0.842722077100344 -0.727246437624241 -0.93119703357619 0.422437430332192 0.227730459687102 0.666400027216057 0.9852091982044 -0.255327124092046 -0.51973435141443 0.10248309058782 -2.76994004919521 -2.51037163552089 0.538640177406421 0.0337009743747781 0.353907282098698 2.92875058161107 -0.524798136472802 0.18958585001586 -0.385253127195249 -1.56385160635577 -0.440054620085921 0.0459584452492569 2.98399404690668 0.370931061549573 0.111579391759699 -0.0434513638527506 0.467818406109953 -0.193532234217991 0.235776722870741 -0.595735607351715 -0.0421336741637858 0.0697781610628074 3.33667388499072 -0.529812299265815 0.201035480694685 2.93769878731742 0.191834792788421 0.347570030302874 1.90893255297497 -0.132307871840484 0.725883496543031 -1.27065163805614 -1.53965213880162 0.187507885515136 -0.891088359215387 -0.250890430770529 0.0760670761441882 -0.206819688486419 -0.453075965314724 0.215433650954592 0.465101265693762 -1.41422839211665 0.477393703553158 -0.437023291025844 0.344687310928694 0.374844278538069 -0.708915510001913 -1.27256890869236 -0.824138667278102 -0.0591805935311494 0.546215671844597 0.115720151260339 -0.868315081847512 0.0107004116049431 0.20729431388463
-0.019981060778186 -0.171119168216797 0.181077816943171 0.195585259030944 -0.176226147785949 -0.113476607801625 0.23578057952349 0.332487946955621 0.164436617444917 1.64925203926076 0.192412776480283 -0.0563742358813836 0.355987560591072 -0.553340452131602 -0.230481795757661 -0.46651845702363 0.73165690570707 1.02164582492856 0.350915548006836 0.535670811900498 0.00236078570225833 -0.772838243752236 -0.98196395347189 -1.13393509790411 -1.51453401656284 -1.29478759939504 0.649514315933568 -2.5960137519981 1.53564533370643 -0.322643455150593 -2.95236872304098 0.973828730164859 -1.10488473252328 -1.09100412506218 -0.610362605674682 0.383822566135854 -0.284055330413309 0.631226325711837 -0.605985047695304 1.06023394966584 0.356768147107305 1.3572424911094 -0.349358231627117 0.0438953931391588 1.67142342168974 2.15999396201733 -0.15686986475297 -0.506647957309273 0.717291645550614 -0.647250717880564 -0.0188168658685992 1.48518566047967 0.787672215772689 -0.401685296114551 1.50392924994606 -0.520539620508252 -0.0481227987715408 -0.793424799011888 -0.489600523721544 0.227139363375896 -0.169858299878322 -0.333494276212715 0.598663835228324 0.587389296584267 -2.31304574054959 -0.535595478616817 0.231216616661282 -1.17311406184242 0.149807048020119 1.50654714583153 0.281165926174366 -1.23862445097408 0.0877907862783175 -0.075619447315215 -0.503001620690952 -0.819224263236176 2.08635066357029 0.204793660242704 -0.297920511263416 1.00855326017901 0.208347437195069
0.0316217243231376 0.0251422905959963 0.154183320448581 -0.248637888455403 0.172567726989017 0.359354418440241 0.177369773880879 0.0180663612438016 -0.14939978548991 -0.738146109621174 -0.0651260094077581 0.00177123205215178 -0.341200125513781 0.471959936941142 -0.264941245172916 0.0844118442505372 -0.146925357086672 0.148786577702948 1.13004090706917 -0.203045053886675 0.320645966137214 1.57467954461159 0.632965418991087 -1.82779886356039 -2.74158336708869 1.23248363135823 0.00444106419463169 1.85147691166299 -0.916036274512875 2.45782191361479 2.01661029770441 -2.39007518010955 -0.809029587361612 0.0378003391359203 0.0249283749235634 1.85544720711216 0.563109610652949 0.193585713136099 0.15020325481245 -0.390398930402066 0.138139130795747 -3.16411489974794 -0.50732235731984 0.169389588014325 -0.630598205534248 -1.28231955528051 -0.0143439200112492 0.665914088969785 -1.38720868296284 -0.22033777058919 0.392877215458053 1.09281855162511 -0.238493606176749 -0.316047293400273 -2.25124647980242 0.138250202394895 -0.562437781744215 -0.119619998519308 -0.263084652539938 0.0408167558053708 0.693047955044946 0.414708441114637 0.304242593558432 -0.23152617732187 0.726366349467104 0.220352425869633 -0.997524004649735 1.20048909726943 -0.0603283333890105 -0.0269646875746073 0.485686021182131 0.182661872781944 0.505686622334241 1.0081750510995 0.535442240947622 0.527761074224145 -0.674325448613586 -0.146272297221312 0.977263465102397 -1.92110980547228 0.136006144715815
-0.47035196985533 0.547663202176084 -0.0776246496340903 -0.219274362871422 0.136747907594383 0.194858665653185 -0.100973853812362 -0.45839531789521 0.206167399951609 0.748521791064719 -0.209937149457873 0.507219256136372 0.885122117413938 -0.609146988728453 -0.430805081244847 -1.30590761481899 0.290341160172491 -1.11370875401114 1.2527344007186 0.36037874541016 -1.12570474382929 0.69380051655121 1.47501900961508 -1.75312995259251 3.28127795335646 0.0515871013801477 3.22381099919643 0.14589357392144 0.506594992611532 0.705176099497269 0.607748566441959 0.991938543029624 -1.91817592117164 -0.937937691249476 -0.66635786114601 1.79301879774667 -0.979546346419142 0.458245165548214 -0.467692165009996 0.356490725219619 0.628732614044857 -0.341651353885319 -0.644031184166375 -0.431571526701004 2.41145620583533 -1.11714271761813 -0.271331204556299 0.650084072099567 -0.361476091672112 -0.210009140309172 0.7972688533611 -0.00422869118329806 -0.575550143977875 -0.0452660475258653 -0.790022202847252 -0.0569735597184522 -0.0687977999342176 -0.430167705100662 0.0746437141699231 -0.398530297056349 -0.755650428004472 -1.40335160292602 -0.943129774289272 0.451995845435048 -0.741325277036598 -0.657181341596968 0.598563305146688 0.915842927655099 -0.468723433954861 0.151602448429493 -0.428683922233342 0.503862682694531 0.0966266348346026 -1.3846974878034 0.205837270476364 0.327656846613056 -1.05035346243517 -0.697042418851338 -1.48132360841764 2.05994956151728 -0.691596825170894
0.289145340710369 -0.472177195045957 -0.451761103837775 0.22927646321876 -0.577398766195174 0.000901171192160254 0.221022455007085 0.591522085669227 -0.344585752406325 0.231027640676621 -0.111587362175379 -0.658719117602763 -1.27138825873104 0.924036514973719 0.257369607387487 -0.496697021888395 -0.262963039423278 0.263094165616717 -0.0687085827006429 -0.0676112364386914 0.0882355868952754 -0.885674132977296 -0.230358382869719 1.15642555407045 -0.635163196837188 -0.342178943981271 1.00172775614526 -0.410465865981445 -0.990647078579347 -1.04096559831552 -0.0738633847638728 -0.408016891486345 2.29112375499834 0.242901503157747 -0.544722118790315 -0.702169710124964 0.803851645381893 0.0843105428383514 -2.32161008075241 0.152546557022249 -0.367158483831294 2.71916593021438 -0.410674382340031 0.189322312078067 -2.22689274613834 0.856931528485773 0.133193359311469 -0.71657019437652 0.943291496594512 0.746701193857391 0.0439043919955712 -0.366623951760395 0.424104018539776 0.740602540311587 1.34398717561388 -0.754678808622112 0.2548928649926 0.0626374399444431 -0.270424891160475 -0.816258240162635 0.695582290120873 -0.185254057649094 1.31393176652687 0.0289958580219871 0.68534364840498 -0.724134890187002 -0.624051923159472 -0.265084455544965 0.0603782127645538 -0.676055543036424 0.00238443983911389 -0.586360084520867 0.357777818796781 0.993423868558043 0.423291293250641 -0.629599075362284 0.853049936049812 0.252970709262903 0.0899898496753351 0.222869791673468 -0.277988301420041
-0.275844773822597 -0.201432715927749 -0.48368673239747 0.204685416855571 -0.0123482307691528 -0.674120788907749 0.0366921942462738 0.527328100675615 0.214213920245431 1.38124269827157 -0.163332586318202 0.0602488863423978 0.467656940914896 0.215325150457276 -0.162750488863409 0.665913317639235 -0.53629764652717 0.259699282757577 0.31348364776346 0.732314850665911 -0.238778227149566 -1.0749637920621 -1.13533094908877 1.24412480912354 0.867106921096596 -0.105396920294169 -0.584199330541148 -2.02265984320522 -1.75589388706205 0.643546017250653 -1.08929948454748 0.60340854654933 3.71283636743812 -0.3352297699494 0.204599799164562 -1.33989475282768 -0.899822906359487 -0.0820770266767833 1.60202732635918 -0.0649604304497692 -0.658203611685422 -1.35361260954281 0.525154491186735 0.171633131473039 -2.12316369960267 0.787556773300426 -0.249986431366354 -0.527562328052521 1.02806972285613 0.0804744589048191 0.589957827314561 -1.04412059737373 0.328422520738663 0.0357575987302959 0.436031102828826 -0.232637664643898 0.38884418512418 1.01947067277858 1.12514141541787 -0.246301271110367 -0.461518435290694 0.547892287349327 -0.353502847780505 -0.219941563796859 0.246591291397031 0.879483691096085 -0.673098261709112 0.618104964621764 -0.348364757879184 0.443975807490097 1.26674767703424 -0.395486883817661 -0.2915295234393 -0.513466776478255 -1.03421568467564 0.24247598580453 -0.465904477906118 0.365720723686769 0.033473431862635 -0.555676041035906 -0.130820232320416
-0.0926828217343042 0.112653340994978 -0.217934818816885 0.0474576547275697 -0.249816995755617 -0.00413124642386047 -0.0820166057837284 0.0304845259827882 0.024912176982021 0.86597717895156 0.405945611850384 0.0464335848678338 0.112417313846789 0.0717278275821087 0.382287361231891 -0.539439790076212 0.471653204492569 -0.510200448710722 -0.552127406287205 0.230755360992599 0.683857294435828 -0.638068799017674 1.42582560404064 -0.548392109545492 0.716077057045118 0.808912859338433 -1.52017527109271 -1.01099503558898 2.61564899957986 2.55341933638599 -1.61337308452399 0.246829632536869 -0.39554679049035 -0.176454718738825 0.159444823237844 -0.228621860692301 0.0378260501542415 0.24997254741646 1.18582070420697 -0.208690165069291 0.202258039615861 -1.68643351418569 0.950724294881006 -0.0448436154948469 -0.261889604408365 1.17550518654629 -0.330163670899379 0.769665761201576 0.619241648741747 -0.998124871147903 0.324346553004193 -0.451953165144635 0.0348332876216466 -0.023516840017726 0.671713723372512 0.573812336249541 -0.617733954627388 -0.91723157975463 -0.68578304970809 1.01532322841318 -1.00371830318369 -1.7813048577995 -0.774116081362803 0.257948362409899 -1.16282836896299 -0.930982603683391 0.602239209436079 0.399712489678761 -0.0149201039318287 -0.0522859268581196 -0.910521003972781 0.215489443864349 -0.414569344505519 -1.54341443211257 0.284566208347353 1.23653260252346 -1.58526271397299 0.0435182125003858 0.459946463630532 1.25159360283569 0.204955896768311
0.0253333234621232 -0.335918053909861 0.227204412252249 0.542640811857209 -0.335223085084637 -0.0447824232712423 -0.257715163473725 -0.0359784563776756 -0.0133206214820629 -0.452624736943186 -0.366753278182551 -0.175558432640146 -1.0367479628701 0.683935970151891 -0.0982412867851779 0.642267408309537 -0.217314669054976 0.258929751979222 -0.288049279999334 -0.474138945743869 -0.0958799868625532 -0.956592577702651 -1.55592978450081 0.437717231410335 0.0666681562866675 1.42833602786953 -0.839246461643676 -0.111354934569755 -0.18566826215425 -1.39748640542658 1.28633793033394 -0.389338865116681 1.23114820106662 -0.342433740172835 0.413129270369345 -0.760602627243331 0.738798655266167 0.537999201719671 -2.20774292258248 -0.199140835754591 -0.292323993905427 0.451353069977017 -0.687712661633101 0.72781542245969 -0.116280394349559 0.736696522408221 0.434037984688562 0.464259744064107 -0.40564196472401 0.131051888595491 0.579485472442128 -2.09637384695265 -1.15922574107582 0.342953616963291 0.182576512201118 0.34225324882422 0.066755830859143 0.50155768990203 0.574552042246644 -0.0173513378242873 1.41707897271793 0.599422053158618 0.90154785857866 0.727841904808561 -0.585781586608639 0.573086257092149 -0.784187601459608 1.8517738739246 -0.430819222304923 0.387918588464614 0.964949944207978 0.214992706990382 -0.842562668786752 -1.06899292227735 -0.948551970943043 0.735003966072132 0.13808976564057 0.353199200654131 0.47041753295205 -1.82475904986427 1.04323048191944
-0.205856039519739 0.192580155209555 0.424241829597978 -0.224580602832564 0.24209109186026 -0.296579938768146 -0.40024547908856 -0.311264272661968 0.290345273935423 0.433656947397041 0.453648549692739 0.136033912615602 0.10550027858782 -0.386583158173008 -0.123231111042529 -0.215314866049948 -0.0799700087253559 0.291355202735082 0.984793965258511 0.624743806662497 -1.4303918808945 -2.75773605723884 0.8963154092401 -2.74571512773292 0.320074410199932 0.0367932385482764 -2.32745496654738 1.98284761688566 0.586443388220228 -3.08416880226962 -1.24641077576249 0.709477295752233 -0.0588224390459342 0.637572319253891 -0.454473873380851 1.41697638575483 -0.638394814729988 -0.13852916694368 0.672978962584101 0.398930360501428 -0.030032012060334 1.46460193343204 -0.350564078386385 -0.407638682406839 2.44689087417551 1.2816780653734 0.1714667811845 -0.721485883969362 -1.44347159013489 0.778098718100767 -0.278124569817143 -1.74711640251735 -0.0193943353400948 0.455245203930489 0.864909657470861 -0.0868991281629361 1.14287276209295 0.441489037798064 0.0630210483377964 -0.486207954854053 1.21608077299981 0.779644207412058 1.37392354268606 0.233118717796689 -1.12973931682426 0.836870763550791 0.0430240467282512 -0.692428062393221 0.232651548593792 -0.739817068701872 -0.297219114683612 1.18820308716462 0.0273624370280373 0.0317297106000869 -0.253314722688041 0.844859434053391 -0.935645811076319 -0.205169298220378 0.153609193409467 -0.59623620087843 -0.362524072778886
0.404870634174372 -0.332544511195928 0.23816553358297 -0.283937316839214 -0.115208501995746 0.441257895743356 0.228438026911303 0.438135292568239 -0.550250759059936 -0.0804063247062677 0.273261844922043 -0.590367918056785 1.6428142573833 0.21676676725455 0.514131920522227 -1.25052865245682 0.106533604414152 0.280905987779138 -1.00916518241505 0.117040669161319 -0.0719396863730759 0.306323900491538 2.03964351346752 -0.368730198381273 0.0174976335185353 -1.1121288119353 -1.84199417388574 -0.250120642881991 1.22371026057646 1.89123925860701 2.80226496986943 -0.583124609975319 -0.742628568555302 0.0430263607199001 -0.196189467961493 1.3745094967936 0.147059054381942 0.0115452756669798 0.595797056685503 -0.0688849602863267 -0.407430937378804 -1.9632735615275 0.882419375168007 0.0916502672385223 -2.93496107808657 -3.60256283829896 -0.577960294835311 1.76272504751982 -0.837829270313808 0.352151476657539 0.290293337678414 -0.0690726507200719 0.21763117169051 0.636602756752996 -0.113277347409635 -0.27456770754258 0.0608145287454656 -0.955725087944492 -0.454833827637349 0.0121795664889653 0.39398458901715 -0.415344017487539 0.447491275025163 0.555911039743362 -1.9691762971137 0.0490882475095042 0.0525952304085244 -1.14946738118217 0.604059806643407 -0.303267888853873 0.657257960431565 0.0536038736572675 1.35918135900101 2.07009564356722 1.00187070940713 0.521502498144383 -2.03689063473586 -1.0461273423537 -0.53311076580625 1.80944248202992 -0.144463269972228
-0.419202984227377 0.353073216664357 0.036235309450705 0.392550942635556 0.0468174503713703 0.249424131395668 0.536481223197984 0.689180503669062 0.159023676757742 0.825501608359312 -0.908568509241464 0.157727327213984 -0.328923114265378 0.843119569443591 0.315766271970021 0.249829337044411 0.370700433715231 -0.589914632803782 0.137402253010659 0.474335635034027 0.378547179396697 -1.45046575844882 -2.86721563013224 -2.83928729359095 -0.345820138395929 1.03300443860253 -0.392283290934832 -0.379696204805475 -1.17451736922239 3.48190231486819 -0.110791606158336 -1.0619637869785 0.129638811028554 -0.186159856824552 0.121540611587906 1.86807928752358 -0.197936017436057 -0.176362673293235 -0.0673654391035401 -0.57053418141358 0.0486275060611871 -2.36139608183328 -0.322933218327073 0.445966354528529 -0.0236790765433332 0.704212707640771 -0.875648892713469 -1.12903689180373 -0.114068475443381 -0.834799741025014 -0.093621016792847 -1.56507210839548 0.109963197148025 -0.251476641988254 0.779257256586323 -0.268891743137978 0.596902887583501 0.650956961171574 1.63916946342608 -0.0904709028281259 0.892135568991612 0.430305259048681 -0.301594872891708 -0.675391170323002 0.850123250834303 -0.796370510380955 -1.05169866291373 1.8787524454491 0.0812869270837709 0.849732957576186 0.284290843341132 -0.866694516362723 0.0727205299994927 -1.05884478334595 0.780991721882275 -0.429429284654476 1.06904357298344 0.958513447881433 2.05734117870859 -1.46120036570813 0.609151873821934
0.0684332176944221 -0.266719419200015 0.199103811888209 -0.0774775826092927 0.221753162147775 0.436285127689841 0.17916414584952 0.591175501142256 -0.044054030122201 0.184035869601033 0.0354657786723496 0.0508651359856866 -0.320124032465292 -0.362136607732785 0.392041093142245 -1.21916635230855 0.347466157788856 -0.108491241349132 -0.0304387603701764 -0.35729753697454 -0.575183247746431 0.426062941025673 -0.380383717435385 -1.22823617113155 0.0823901868799363 0.576281108228749 -0.87208997355744 -2.52234345698182 1.16959190944259 -2.25957042198393 3.18097130046954 -1.15039889137595 1.07450793570726 -0.717398603386831 -0.430548485282 -1.04762192384871 -0.253210850174023 -0.0476643713148726 -0.893786216367837 0.748215829946696 -0.419272403976844 1.76456467088071 -0.0278218929254382 -0.122797109053266 -0.0997705781549266 -1.9853205026278 -0.192701768326214 0.599413568522572 2.66511108529576 -0.460664058151879 0.551899349554696 -0.275797208438703 -0.338223818032911 -0.117486755329193 -0.524060744467349 0.0537769088105696 0.307314803137639 -0.114985844577083 -0.692453002080992 0.437441866404114 0.41169228155537 -0.319579730207431 0.331890680000018 -0.50029399335154 0.19676539477189 0.184395309637164 0.104718920741037 0.328565731110712 -0.483802174869732 0.117821255677552 -0.241765076147947 -0.0864494424524972 -0.05018353688999 0.0471100417598662 -0.280010215900825 -0.252297594803252 1.88767648279823 1.04218687168578 0.702304178750784 0.326978075729374 0.72464216857848
0.202432360320079 -0.0377010946052002 0.495795079365685 -0.000117756463911383 0.232082049537976 0.328381897329715 -0.00560037401073742 -0.429173974242546 0.114531530883347 -1.39262933695551 -0.445656793867941 -0.153500950022335 0.360548952351447 -1.42367359180715 0.551763852488143 -0.524049174509104 -0.0566264609711151 -0.542438723253204 -0.081785206618837 0.50282061512197 -0.433114444910462 -1.70217071427977 3.37920659415885 0.0435045856606756 -1.29289886798916 0.695706988559731 -0.750568902343458 0.632170691414777 -0.0621278475613157 -1.34642483726092 0.553821505284393 1.23261167222947 -0.510509752261127 -1.15001836830479 -0.492180110189716 -0.406333076896486 0.443396281137135 -0.359964798015188 -1.59280169876515 0.212945852821827 -0.484294540870585 0.158848070502608 -0.43940387421221 -0.0749861849339623 1.17025293972363 1.20364409632763 -0.160221295991146 -0.212643748356552 -1.42013138481303 0.941952209650158 0.465277900389629 0.483032129871011 -0.155517208079088 0.420475422524096 2.09318928022338 -0.319675632305769 0.751002390112354 -0.0140379588932262 0.50800421352572 -0.719869432247504 0.486820648420649 0.391624831755624 0.902323302891229 0.346814126364229 -1.14930308777509 0.85173481746268 0.201429887715733 -1.27045546298635 0.357427120506879 0.594673999405231 0.74158392988091 0.172298789737376 -0.216054572047051 0.176803103037078 0.037134937981766 -0.0418248848337475 -1.48947168723383 -0.765997827327864 0.4658021480532 -0.391366693131679 0.613450498975065
0.162462525458211 0.246227994708151 -0.236529284377005 0.0086892957518539 -0.204604427147859 -0.265303770531246 -0.351733672609819 -0.185954940008532 -0.181719306850287 1.36556951861311 0.306463511321022 0.215068297384247 0.756145879327523 -0.130269502307975 -0.191053949162004 -0.261501110921531 0.159820204105335 0.324799581147014 -0.249411790106873 -0.0181000426778024 0.195372628909427 0.31633757079712 -1.35077077068776 -0.546651473605143 -1.64078822913959 -1.12585335351519 0.989385953130689 3.04918176275841 1.71717077947858 -2.46578615864999 -2.65825755625204 0.185677003900479 1.76000662155272 -1.61479927471027 0.583553726871101 -0.495568565294275 0.476971014411956 0.0923591200136395 0.118354245087352 -0.296930122837681 -0.270051310064267 1.32998572636667 0.784337496696421 -0.33084964086819 -3.3063048014802 0.581270845554356 0.646417937997138 0.754422212659266 -1.46451528730029 -0.0204790832030689 0.595631991947881 1.24022316209329 -0.001682014818577 -0.153074918448751 0.658298485343027 -0.138118304870907 0.633316631501355 -0.126206647192849 1.91319878224501 -0.493355103726997 0.215871509596603 0.907183970904864 -0.296992857722385 0.157819115549391 1.33892313344532 -0.578065967120611 0.614550673449032 -0.186442678026086 0.189008894764731 -0.796227814229272 -2.82595098838771 0.663593926676474 -0.0935986482069075 -0.109402696948621 0.908304199973122 -0.614498737192023 -0.799133159299575 0.993190412511686 -0.219259964701162 -0.399332737938156 -0.46003593797429
-0.11472384930039 0.599635454610685 0.102806792308485 -0.0729303319089942 -0.24322829020061 -0.252994363399758 -0.0153363653184499 -0.316351711857197 0.316856419146843 1.00111891923141 -0.497381449196107 0.618977339473404 -0.0145133556219863 -0.860610260987179 -0.108556290225485 0.321373845065889 0.332756369986895 -0.139017676291784 -0.948412360113558 -0.606898303066075 0.65974652989488 0.079998033735326 2.20223330846642 -2.10158598458674 0.872613964110827 -2.79947532438158 2.77734790779393 -1.29555275930028 0.4613284308653 -1.27153404020493 -1.63244346103324 0.382029222607946 -0.286647772390642 -0.619966442348223 -0.471608981541057 0.831630600906735 0.0310026030019616 -0.571346906702715 -0.759677287693948 -0.870579708341249 0.116648576131919 1.38336411439326 0.575406933605826 -0.506534314608293 -0.108225903640057 -0.370761625938836 0.667790479086871 -0.281408638187318 1.19522579470888 -0.0691541546481503 0.679081729892836 0.420064046230956 -0.171299659565412 -0.0024091224167023 1.25291617761813 -0.0971256857002183 0.763667637737408 -0.883744006831919 -1.2959415098973 -0.0576369039911408 0.357112417642627 1.43191011652637 -0.419582735967982 0.871881457198854 -0.748301961858072 -1.04665930332277 1.01817869410794 -1.29938627213198 -0.000803983542905881 0.430639245176675 0.524579849927255 0.190993785379133 0.0387681018655326 1.3552606858172 -0.0864651261736732 -0.0102478976824888 0.431606236575737 0.121729330462384 -1.61708832667141 2.04886605573935 -1.52299731246365
-0.160422613264602 0.141267133284712 -0.807629879524203 0.362164375632572 0.0162136252635714 -0.254028460556639 0.15936203375885 -0.194410008383479 0.0462847180717537 0.880750730078957 -0.816674501549256 0.344194687817658 0.821470892017088 0.824233798045891 -0.0138055312876019 -0.913907402195874 -0.610621258518994 0.158391442817222 -0.252022229797031 0.292129618606918 -0.294686322268785 0.934703759365027 -1.71797167769928 -2.57611470936836 -0.677960472383846 3.88894912963327 2.86082798474051 -1.28733011853096 -0.720797857119085 -0.420269734377526 0.689619390751806 -0.545999699290699 -1.31283904824822 0.179132007076618 0.400810350161079 0.992787006634225 0.394223701487537 -0.582875213097603 -3.13884585383162 0.445460104577783 0.784010709653558 1.4363159566259 -0.283971512493582 0.589314537636163 1.61949359243537 -0.652614293412562 -0.103283217477978 -0.28102220158195 0.0142374763953992 -0.585190747407616 0.184478099116158 0.0480076134094615 -0.859308255019391 -0.0744218280818106 1.26395494622418 0.0937547140881176 0.368729427050723 -1.75028657107636 -0.412524547218429 0.711553203371492 -0.234512769210068 -2.56233823153146 -0.391068959539519 0.16359329604398 -0.976423743244024 0.0421028209418003 -0.0552264960235224 0.730108588183764 0.296489950204021 0.549172953171909 1.07942259685937 -1.14420664972345 0.680174191061307 -0.301521853599676 0.016739158478058 -1.56993329062948 1.93427770350552 0.856245815627145 0.252160812185783 0.215448306235035 0.774305314457648
0.753772238116104 -0.343874842749742 0.338125087722558 -0.342581578528182 0.0763447551420579 -0.262476072736273 0.0454946184787413 0.163685598599753 -0.0935893922403119 -0.894987178033623 0.161224797036225 0.0368222919989794 0.197991296125448 -0.118887748717518 -0.769433590706135 -0.0503804832903308 0.0866093649864555 -0.411299160085238 1.34472919560263 -0.166779148324168 -0.185765449803504 -0.109930544154757 2.377739033519 -1.39382027132415 0.284886567635635 -0.527591638613408 3.04389532028138 0.399752855977525 -0.0071456062118453 5.44191494794201 1.35095254758729 0.522518597588439 -1.37603827394298 -0.438679851936283 0.0385819540928866 1.44574290149339 0.0396224790043481 0.351681993462993 -2.18284000156706 -0.605924626802249 -0.160995968973166 -3.42111144025958 -0.531687660942168 -0.0793290330386068 0.650239109540044 -1.21841893300595 0.334520917174283 0.696961429143626 -1.07983654425434 0.322728558621236 -0.0382865344923753 -0.989838981273509 -0.369215108186812 0.228219997475939 0.0590813490004293 0.708253194169958 -0.155716982691444 -0.782830059692246 -1.02449332020764 0.8635122636251 0.806114729214531 -0.780739496792544 0.141681337789867 -0.106659588403926 -1.7394149240894 -0.683188550849292 0.605209603382734 -0.423924812742077 1.04204931773776 0.420247365791587 1.93374291432443 -0.746461567166636 -0.361362963191498 0.16251291905412 -0.486056516956141 1.43512527936744 -2.67573822049848 -1.12387309088408 -0.229861388885569 1.17798527137356 -0.599206851935269
0.309796173515824 -0.532229906318563 0.23026402343248 -0.347555117912247 0.351941931858221 -0.0458021222578636 0.304617974425922 0.136597241027021 0.184036640931582 -0.736001296472814 0.213518694310024 0.0909997784749943 0.0961502096651096 0.535913523913451 -0.0613308059933566 -0.545162034313792 0.0763259860986833 -0.351839859115486 -0.631383162923596 -0.598811159363305 0.353675625823624 -0.18097368731897 -4.64062720530711 0.582538655867778 2.14858006965397 -2.00848124504178 0.212846351180923 -1.44512043773983 -2.14969849895095 0.759757763181294 -0.168198910755868 -1.84796864321305 -0.913421463949602 0.225311824193621 -0.00312517427694947 0.824723078724544 -0.0347258155650637 0.276233781529798 -0.794832220154794 -0.417746197929294 -0.26218605244961 0.323673952764909 0.0315561612264184 0.538579242292999 1.01665197384002 0.223906202821998 0.365379795583829 -0.472353572631641 1.54083844518696 0.186680247835374 0.292053256882504 -1.21956435887216 0.267458610976751 0.250484453791237 -0.64565303520208 0.494099437707398 -0.328132243341816 1.19552378541123 2.17667527070417 -1.2103420737105 0.0736538399645545 1.24786319118746 -0.136803957614324 -0.100378386628041 0.552192455163558 0.607750366213242 -0.243062968352804 0.437055172688562 -0.232376697807938 0.959924468566904 2.1224633314636 -1.91532482635 0.443942126056096 0.330519511392945 -0.155602054439548 -0.757353525858073 2.07343833305917 0.437355991602921 -0.080921830623609 -0.339807616761501 0.451349213324268
-0.367963495814933 1.0904616225756 0.192400435191489 0.191147794378877 -0.230162722020294 0.381009266511141 -0.851316499194593 -0.677454736653467 -0.715719673890452 0.5983594167714 0.150036904523911 0.353465052583573 -0.638622357242131 0.937698835889271 0.328948568173516 -0.549065738225509 -0.0708827064098888 -0.149817332427447 -1.1330300700592 0.2135359206923 0.0500848065796363 -0.00948839420127874 -1.22486571373982 -0.912040782265751 -0.48181959824698 -0.564935350063942 -1.45718147643434 0.901771801548238 -0.54096985277651 2.58138135436128 -2.71468064306824 2.74512968784574 -1.16899541381753 0.665795304065141 -0.808248486625012 -1.06415462284965 -1.00225431780048 0.189628787416457 0.127315049192678 -0.238563540146583 -0.0470794456480639 0.241811355980925 0.849711617430979 -0.197342607133202 0.257876114448416 1.90048622634625 -0.21259001232826 0.180141164545728 -1.44896320653813 -0.160942747165241 -1.11399363209414 -0.537289063393638 -0.00794110511870516 -0.26046058601007 1.15569176160756 -0.0956714705039677 0.268396034704744 -0.529578586109275 -0.811395772377718 0.0791523983427397 0.749427590240177 0.390864299833681 1.92832637409469e-05 0.579838741833862 0.0236122278956979 -0.757358153841371 0.684058611709283 -1.48926368509561 0.774326140382488 1.004831590277 1.15974536075609 -1.13739554385997 -0.0380132263676203 0.0841387932359654 0.0532372345360063 0.887766238538097 1.44724133964115 1.8444346637448 0.371762041661716 -1.29234736664617 1.02311778072745