9.993673893 0.065997204 -0.101655478 0.039439264 6.214681550 -0.000738256 -0.048324523 -0.000587274 4.994241377
10.110921210 0.045495076 -0.033981181 0.027187399 6.052471862 -0.023492465 -0.016153821 -0.018687969 4.981392283
10.236448475 0.039968560 -0.014720550 0.023884809 6.097158553 -0.110054726 -0.006997789 -0.087547192 4.957790105
9.902957947 0.073363236 -0.234281318 0.043841130 6.120635895 -0.020206881 -0.111371597 -0.016074327 5.015355478
9.856382403 0.165386857 -0.101068741 0.098833519 6.204378197 -0.026959105 -0.048045602 -0.021445639 5.035594888
10.115109768 0.122162113 -0.089769314 0.073002847 6.043646354 0.006101622 -0.042674132 0.004853766 5.013959846
10.093196311 0.018295573 -0.121418289 0.010933250 6.105329861 -0.006650156 -0.057719279 -0.005290118 4.980432124
10.183025420 0.030395131 -0.120737926 0.018163824 6.107535206 0.000338194 -0.057395851 0.000269029 4.963952081
9.957893841 0.077601078 -0.180935351 0.046373622 6.089173110 -0.071190550 -0.086012232 -0.056631214 5.029692148
9.850715415 0.117209893 0.023468422 0.070043451 6.222690726 0.032992535 0.011156313 0.026245159 5.052119318
9.856621911 0.164655467 -0.104025103 0.098396448 6.181420212 -0.031486586 -0.049450984 -0.025047195 5.038310718
10.110415313 0.067762842 -0.054806284 0.040494392 6.095582548 -0.115888434 -0.026053564 -0.092187836 5.001029030
9.908134784 0.074075654 -0.228190065 0.044266864 6.112205236 -0.031519151 -0.108475965 -0.025073100 5.025392418
10.095362214 0.087925837 -0.109023067 0.052543594 6.105574654 -0.061648679 -0.051826894 -0.049040772 5.004764141
10.205161056 0.027300952 -0.103682148 0.016314774 6.089535308 0.000240560 -0.049287952 0.000191362 4.958353330
10.180647768 0.030763902 -0.122470522 0.018384198 6.109443555 0.000155462 -0.058219485 0.000123668 4.964517698
9.977513874 0.117324981 -0.045471756 0.070112226 6.137497038 -0.010149785 -0.021616159 -0.008074030 5.043141422
10.261220418 0.033166597 -0.007977606 0.019820024 6.081862137 -0.107362080 -0.003792358 -0.085405225 4.953350651
10.214180064 0.004624437 -0.117268439 0.002763517 6.029779663 -0.017410674 -0.055746542 -0.013849979 4.984740604
10.028499147 0.070143333 -0.058466236 0.041916949 6.050426615 -0.033487403 -0.027793416 -0.026638821 5.010020267
10.179702539 0.054544119 -0.025718327 0.032595016 6.104447890 -0.115802060 -0.012225862 -0.092119126 4.969021099
9.855202490 0.166230630 -0.103023187 0.099337749 6.192883879 -0.029092722 -0.048974698 -0.023142906 5.037980320
10.169173440 0.004241177 -0.117812593 0.002534485 6.060114454 -0.008985827 -0.056005219 -0.007148116 4.992833368
10.274099294 0.020044913 -0.041242221 0.011978638 6.037403397 -0.026177439 -0.019605541 -0.020823834 4.947436759
10.343785424 0.039161583 -0.156496391 0.023402567 6.017814504 -0.090576027 -0.074394549 -0.072052125 4.907200164
10.341433205 0.041174900 -0.154700843 0.024605705 6.023112960 -0.091965286 -0.073540990 -0.073157264 4.904419987
10.145309524 0.035824158 -0.144835578 0.021408156 6.143414759 -0.006407289 -0.068851284 -0.005096920 4.972692789
10.085272520 0.070610353 -0.070312444 0.042196035 6.090825975 -0.111928739 -0.033424813 -0.089037947 5.011001682
9.900275648 0.137586348 -0.108346201 0.082220215 6.117616123 -0.039434583 -0.051505129 -0.031369730 5.034525528
9.855496996 0.166194713 -0.102010906 0.099316285 6.199810391 -0.027735887 -0.048493485 -0.022063560 5.036951764
10.161615583 0.004720982 -0.118281197 0.002821211 6.064678163 -0.008344806 -0.056227982 -0.006638191 4.993056157
10.321636639 0.045361131 -0.142404774 0.027107355 6.042580897 -0.095057894 -0.067695740 -0.075617395 4.901978076
10.212899567 0.045584044 -0.018866645 0.027240565 6.102633947 -0.112431775 -0.008968741 -0.089438106 4.961693174
9.935126071 0.116160070 -0.097089636 0.069416087 6.084153424 -0.039487815 -0.046154034 -0.031412075 5.029690977
10.335869606 0.043046542 -0.150765674 0.025724179 6.029881183 -0.093486645 -0.071670307 -0.074367486 4.902422029
10.107372222 0.041708498 -0.152855626 0.024924578 6.179997456 -0.012748098 -0.072663819 -0.010140957 4.985291745
9.869382268 0.101985901 0.000626914 0.060945747 6.231123628 0.026577539 0.000298020 0.021142108 5.033816749
10.288774753 0.021054075 -0.014343786 0.012581703 6.031067810 -0.055710970 -0.006818684 -0.044317397 4.934169389
9.997948478 0.065127561 -0.104502599 0.038919574 6.213816592 -0.001668955 -0.049677975 -0.001327633 4.993364127
9.972289960 0.070582160 -0.086520274 0.042179187 6.218602696 0.004003889 -0.041129618 0.003185045 4.998555833
10.062889057 0.057548853 -0.045274393 0.034390615 6.047992066 -0.029795324 -0.021522337 -0.023701817 4.997518725
9.909599717 0.087141414 -0.035411160 0.052074831 6.226526552 0.017481260 -0.016833598 0.013906129 5.010767291
9.995097933 0.056566972 -0.118273907 0.033803852 6.166827658 -0.012153937 -0.056224517 -0.009668309 4.985239353
10.244129379 0.023222069 -0.070807594 0.013877275 6.056792343 -0.008080934 -0.033660195 -0.006428285 4.955366718
9.923844293 0.076670547 -0.212548467 0.045817546 6.100251455 -0.049993987 -0.101040332 -0.039769607 5.028351086
9.918943710 0.125648589 -0.102990268 0.075086331 6.097709312 -0.039846760 -0.048959049 -0.031697612 5.030629422
9.858466738 0.132602751 0.030912800 0.079242067 6.194197298 0.036518590 0.014695187 0.029050093 5.062547465
10.340955625 0.033628182 -0.156349378 0.020095862 6.003755510 -0.086783378 -0.074324663 -0.069035119 4.918202719
10.146007435 0.006322031 -0.119297488 0.003777982 6.073726358 -0.007497406 -0.056711102 -0.005964095 4.992179935
9.955895176 0.101870369 -0.221865568 0.060876706 6.106038774 -0.010693274 -0.105469454 -0.008506369 4.966163350
9.908745140 0.077836535 -0.241409980 0.046514329 6.127941727 -0.011943907 -0.114760389 -0.009501232 4.998537392
10.012993895 0.048532907 -0.120332010 0.029002776 6.157245691 -0.009753661 -0.057202889 -0.007758918 4.980868474
9.943285911 0.077633309 -0.063806941 0.046392883 6.222692964 0.010386996 -0.030332256 0.008262729 5.003576735
9.855630118 0.165638882 -0.103581477 0.098984127 6.187248056 -0.030266235 -0.049240096 -0.024076421 5.038261594
9.968049944 0.071548351 -0.083346072 0.042756573 6.219288464 0.004948435 -0.039620680 0.003936419 4.999354490
9.866804973 0.133987551 0.028436553 0.080069610 6.187604871 0.035798539 0.013518041 0.028477301 5.063582717
10.187277250 0.003783783 -0.116990646 0.002261151 6.048459473 -0.011347676 -0.055614486 -0.009026938 4.990712949
9.946836010 0.077450978 -0.190715143 0.046283924 6.091380941 -0.065873302 -0.090661305 -0.052401409 5.029465897
9.983369892 0.110767672 -0.197582305 0.066193644 6.091245563 -0.004637067 -0.093925786 -0.003688730 4.968697753
10.142498029 0.063379985 -0.038793540 0.037875240 6.102092598 -0.117732045 -0.018441498 -0.093654405 4.983820676
9.999893199 0.114749804 -0.180642623 0.068573326 6.082527402 -0.000838748 -0.085873076 -0.000667213 4.972744382
9.855183302 0.166319743 -0.102800163 0.099391002 6.194690482 -0.028725661 -0.048868678 -0.022850913 5.037802761
10.039173295 0.056927110 -0.129012763 0.034019067 6.204776714 -0.009661034 -0.061329506 -0.007685235 4.987153904
9.916448180 0.127192405 -0.103848723 0.076008899 6.100137316 -0.039850536 -0.049367138 -0.031700615 5.030963486
9.913333505 0.080393778 -0.243552264 0.048042511 6.128293465 -0.011380345 -0.115778778 -0.009052925 4.993951567
10.049616469 0.061959863 -0.049879513 0.037026590 6.048313399 -0.031334901 -0.023711498 -0.024926532 5.002157035
10.271406512 0.013722515 -0.124287000 0.008200437 5.999718706 -0.039569338 -0.059082994 -0.031476926 4.963254960
9.869294127 0.156616736 -0.107147516 0.093592583 6.154661480 -0.036249846 -0.050935303 -0.028836310 5.039325903
10.225302889 0.042604551 -0.016790237 0.025460050 6.100613545 -0.111136145 -0.007981667 -0.088407448 4.959417437
10.374616522 0.004704297 -0.007349698 0.002811241 6.191362083 -0.001864261 -0.003493866 -0.001482997 4.933612802
9.887918452 0.145561899 -0.109611181 0.086986324 6.132007283 -0.038580697 -0.052106469 -0.030690474 5.037755561
10.281744712 0.016668933 -0.127061990 0.009961186 5.996038310 -0.045361677 -0.060402156 -0.036084661 4.957531505
9.963712050 0.101034337 -0.086385738 0.060377102 6.068147996 -0.038092380 -0.041065663 -0.030302024 5.028642704
10.315152585 0.046141305 -0.139615776 0.027573579 6.047134676 -0.095350250 -0.066369918 -0.075849961 4.902811349
9.920765139 0.076371425 -0.215681658 0.045638794 6.102090054 -0.047025040 -0.102529775 -0.037407846 5.028246934
9.922733637 0.085677441 -0.243857970 0.051199975 6.125515573 -0.012355844 -0.115924103 -0.009828923 4.984851378
9.919329330 0.076199753 -0.217148135 0.045536204 6.103016508 -0.045546864 -0.103226902 -0.036231975 5.028187274
9.911607854 0.130243240 -0.105423705 0.077832048 6.105082273 -0.039808770 -0.050115846 -0.031667391 5.031791811
9.925059522 0.087011665 -0.243045242 0.051997294 6.124309614 -0.012665137 -0.115537752 -0.010074962 4.982466109
10.159082507 0.069047966 -0.120238842 0.041262369 6.097965765 -0.078508289 -0.057158599 -0.062452387 4.967502922
10.210086794 0.028003611 -0.022524090 0.016734676 6.079067010 -0.011818320 -0.010707400 -0.009401329 4.946289615
10.153887399 0.005407164 -0.118786403 0.003231267 6.069205090 -0.007856027 -0.056468145 -0.006249374 4.992844831
10.083139035 0.091556260 -0.104833527 0.054713098 6.107468811 -0.057543300 -0.049835290 -0.045774993 5.010531251
10.178775974 0.033194397 -0.025611280 0.019836637 6.068325287 -0.014994565 -0.012174975 -0.011927994 4.956447261
9.944074739 0.111258396 -0.093769019 0.066486896 6.078210575 -0.039116075 -0.044575494 -0.031116360 5.029601314
10.101304985 0.015833021 -0.121263495 0.009461654 6.100102948 -0.006721789 -0.057645694 -0.005347101 4.982480149
9.967192134 0.099269046 -0.085035839 0.059322182 6.066693413 -0.037893459 -0.040423954 -0.030143785 5.028246261
10.020805474 0.118779689 -0.159263441 0.070981545 6.071959800 0.003136662 -0.075709937 0.002495176 4.979935618
10.207616720 0.046915144 -0.019772029 0.028036017 6.103151919 -0.112996540 -0.009399138 -0.089887369 4.962749046
10.009372319 0.050086082 -0.120006784 0.029930938 6.159229124 -0.010196183 -0.057048284 -0.008110939 4.981700091
9.863925046 0.156958483 -0.098110086 0.093796807 6.214888118 -0.026031971 -0.046639130 -0.020708115 5.029036986
10.168260663 0.034982966 -0.026711606 0.020905468 6.065282889 -0.016175624 -0.012698043 -0.012867512 4.960274355
10.037803171 0.075861388 -0.108050382 0.045334001 6.086689799 -0.099502756 -0.051364504 -0.079153229 5.020191436
10.241021336 0.023191343 -0.019931983 0.013858913 6.093002006 -0.009135871 -0.009475176 -0.007267474 4.938775250
10.242595059 0.038442851 -0.013362547 0.022973060 6.094308403 -0.109491801 -0.006352228 -0.087099392 4.957047772
10.313765688 0.025641240 -0.142694928 0.015322947 5.987391482 -0.068630510 -0.067833672 -0.054594734 4.940236683
10.325459201 0.044853319 -0.144346806 0.026803891 6.039551892 -0.094800482 -0.068618934 -0.075412627 4.901739116
9.886903571 0.133763045 -0.098956064 0.079935447 6.219117792 -0.025736857 -0.047041288 -0.020473356 5.024735245
10.050108085 0.033702199 -0.121696294 0.020140094 6.134565237 -0.006917380 -0.057851436 -0.005502691 4.975335708
9.865099662 0.155645166 -0.097943175 0.093011983 6.215553787 -0.026039579 -0.046559785 -0.020714168 5.028428791
10.404119838 0.000188364 -0.000438294 0.000112564 6.216765686 -0.000199278 -0.000208354 -0.000158524 4.945824425
9.932274526 0.117768629 -0.098146924 0.070377346 6.086267863 -0.039585542 -0.046656643 -0.031489816 5.029745766
9.981258575 0.116460808 -0.048090015 0.069595805 6.136512791 -0.011995535 -0.022860815 -0.009542301 5.042779306
10.280707417 0.019792634 -0.032078496 0.011827879 6.033041488 -0.034094993 -0.015249331 -0.027122151 4.942740238
10.246148262 0.022437563 -0.019564628 0.013408462 6.095694588 -0.008732177 -0.009300545 -0.006946340 4.937770624
9.889886850 0.144314928 -0.109570817 0.086241146 6.129701738 -0.038746853 -0.052087281 -0.030822649 5.037298645
10.289283087 0.021391610 -0.012195199 0.012783410 6.032347029 -0.059453008 -0.005797299 -0.047294143 4.933214165
10.096240569 0.069364968 -0.063195811 0.041451806 6.092714408 -0.113909959 -0.030041740 -0.090613983 5.007192107
9.903094914 0.074037023 -0.236249881 0.044243779 6.123489134 -0.016834406 -0.112307404 -0.013391565 5.010089447
10.266564965 0.019569606 -0.018273117 0.011694599 6.107543016 -0.007239339 -0.008686592 -0.005758806 4.934329713
9.877388332 0.134219256 0.024326920 0.080208075 6.181309376 0.033820283 0.011564422 0.026903622 5.062232843
9.849553276 0.125811322 0.030427939 0.075183578 6.210069633 0.035453469 0.014464696 0.028202802 5.057395487
10.091265312 0.089156459 -0.107711801 0.053279001 6.106142052 -0.060316935 -0.051203551 -0.047981386 5.006750052
10.143087034 0.036098003 -0.145882035 0.021571803 6.145928683 -0.006918846 -0.069348744 -0.005503858 4.973445388
9.861811147 0.159348645 -0.098545450 0.095225145 6.213361447 -0.026050445 -0.046846092 -0.020722811 5.030353776
9.849368038 0.120647631 0.026804211 0.072097809 6.218332998 0.034063925 0.012742065 0.027097437 5.054389168
10.246213568 0.022994358 -0.068987102 0.013741196 6.055292820 -0.008888812 -0.032794778 -0.007070942 4.955336861
9.875332669 0.153173140 -0.108431954 0.091534724 6.146919025 -0.037208259 -0.051545894 -0.029598716 5.039445415
9.970113688 0.119035958 -0.040157713 0.071134689 6.139481516 -0.006482886 -0.019089992 -0.005157057 5.043685065
10.245535820 0.008064308 -0.120031726 0.004819149 6.010691366 -0.027985203 -0.057060141 -0.022261887 4.975047766
9.927208109 0.100113215 -0.104345820 0.059826648 6.206065127 -0.021826691 -0.049603446 -0.017362867 5.012772306
10.099482837 0.086677352 -0.110248393 0.051797512 6.105063102 -0.062945464 -0.052409384 -0.050072349 5.002709320
10.105472869 0.123648993 -0.096034435 0.073891392 6.045184394 0.006762992 -0.045652417 0.005379877 5.013946942
10.231186357 0.024546421 -0.081954475 0.014668694 6.067009201 -0.004000250 -0.038959149 -0.003182150 4.955222580
10.034277310 0.076174271 -0.111257205 0.045520976 6.086593029 -0.098388270 -0.052888949 -0.078266669 5.020669795
10.154162468 0.061087872 -0.033995629 0.036505497 6.103590281 -0.117502044 -0.016160689 -0.093471443 4.978015345
9.985324255 0.090206553 -0.077656104 0.053906527 6.060249996 -0.036793298 -0.036915809 -0.029268620 5.024816268
9.932932009 0.077167020 -0.203572986 0.046114233 6.095852535 -0.057379093 -0.096773609 -0.045644368 5.028740536
9.906799196 0.131615183 0.008083776 0.078651907 6.165387025 0.024030663 0.003842829 0.019116099 5.052315480
10.134009706 0.117548651 -0.077861604 0.070245889 6.041146586 0.004448363 -0.037013499 0.003538618 5.010798246
10.210926306 0.004432674 -0.117120321 0.002648921 6.032035654 -0.016513944 -0.055676131 -0.013136641 4.985575352
10.269658863 0.030506043 -0.005212384 0.018230104 6.075248649 -0.105412928 -0.002477840 -0.083854698 4.949370270
10.262115220 0.021183327 -0.054371463 0.012658943 6.044929902 -0.016850419 -0.025846861 -0.013404303 4.952949631
10.279237826 0.015929305 -0.126303091 0.009519192 5.996915959 -0.043877781 -0.060041394 -0.034904240 4.958950746
9.887312664 0.094459896 -0.016009257 0.056448282 6.229434346 0.022258634 -0.007610408 0.017706472 5.020752175
10.103627629 0.085413396 -0.111388480 0.051042185 6.104599370 -0.064208999 -0.052951354 -0.051077476 5.000582750
10.289872225 0.022058692 -0.008570785 0.013182052 6.036180791 -0.066886861 -0.004074341 -0.053207682 4.931657856
9.930941385 0.077093417 -0.205496554 0.046070249 6.096698364 -0.055915588 -0.097688026 -0.044480168 5.028638544
10.229909480 0.041523338 -0.015979244 0.024813928 6.099424201 -0.110677696 -0.007596141 -0.088042757 4.958688765
10.286297222 0.024907273 -0.001574585 0.014884335 6.057994419 -0.092943630 -0.000748519 -0.073935524 4.934345831
10.019013148 0.060956578 -0.117683567 0.036427037 6.209298256 -0.006046834 -0.055943884 -0.004810182 4.989454198
9.849121064 0.123854572 0.029271550 0.074014244 6.213458375 0.034958167 0.013914978 0.027808796 5.056257237
10.105872303 0.046550214 -0.034842757 0.027817939 6.051666541 -0.024177643 -0.016563393 -0.019233020 4.983135143
10.166957036 0.032896498 -0.132028508 0.019658616 6.121018362 -0.001656251 -0.062763117 -0.001317527 4.967399619
10.005663016 0.115959521 -0.174612056 0.069296241 6.079530461 0.000377413 -0.083006292 0.000300227 4.974477766
10.176550771 0.003943148 -0.117410707 0.002356386 6.055495119 -0.009795717 -0.055814173 -0.007792374 4.992221436
10.151284698 0.061700678 -0.035123414 0.036871703 6.103289785 -0.117598301 -0.016696810 -0.093548014 4.979359406
10.047342815 0.101201882 -0.088262512 0.060477225 6.116677618 -0.043243406 -0.041957835 -0.034399602 5.025309581
9.884857121 0.135638390 -0.098717468 0.081056135 6.219175895 -0.025841069 -0.046927865 -0.020556255 5.024854094
10.264683311 0.032088065 -0.006838505 0.019175504 6.079184261 -0.106698867 -0.003250858 -0.084877647 4.951965974
10.269285167 0.020439991 -0.046887363 0.012214733 6.040481423 -0.021910063 -0.022289103 -0.017429187 4.950092157
9.938024233 0.091742902 -0.106320401 0.054824634 6.199659268 -0.020494381 -0.050542113 -0.016303030 5.007002816
10.165540261 0.058377042 -0.029919805 0.034885532 6.104333222 -0.116907014 -0.014223142 -0.092998104 4.973380527
10.156133748 0.034447158 -0.138924269 0.020585275 6.131555347 -0.003880896 -0.066041193 -0.003087206 4.969650660
10.057740254 0.030793486 -0.121710300 0.018401877 6.129411436 -0.006708727 -0.057858094 -0.005336710 4.975262922
10.275709912 0.028541820 -0.003362649 0.017056304 6.070229720 -0.103014736 -0.001598521 -0.081946966 4.945111083
10.109465022 0.013562195 -0.121052742 0.008104631 6.095009566 -0.006800371 -0.057545507 -0.005409612 4.984626100
10.185374939 0.052950628 -0.024290827 0.031642762 6.104323901 -0.115280516 -0.011547264 -0.091704244 4.967590329
9.966461200 0.119879565 -0.037466724 0.071638820 6.140497084 -0.004664147 -0.017810762 -0.003710272 5.043886124
10.217409505 0.004840808 -0.117445347 0.002892818 6.027568876 -0.018341670 -0.055830640 -0.014590575 4.983887404
10.340711479 0.041523720 -0.154178848 0.024814156 6.024173692 -0.092233808 -0.073292846 -0.073370869 4.903998557
9.911976510 0.112367481 -0.102115169 0.067149674 6.213509896 -0.023565486 -0.048543049 -0.018746057 5.019796463
10.262964237 0.032626156 -0.007405133 0.019497062 6.080520279 -0.107047344 -0.003520219 -0.085154857 4.952693387
9.849082807 0.122818022 0.028547087 0.073394812 6.215122337 0.034680061 0.013570585 0.027587566 5.055663809
9.905220243 0.073441407 -0.231010053 0.043887844 6.115722671 -0.026566262 -0.109816518 -0.021133138 5.022240807
10.054189320 0.123372459 -0.130560095 0.073726138 6.058016680 0.006782752 -0.062065070 0.005395596 4.995892772
9.946553923 0.085440941 -0.108122496 0.051058645 6.194372696 -0.019380378 -0.051398785 -0.015416854 5.002602091
9.884098977 0.147941525 -0.109509262 0.088408364 6.136485394 -0.038224899 -0.052058020 -0.030407441 5.038518212
10.272557746 0.020158096 -0.043120775 0.012046275 6.038400857 -0.024711623 -0.020498560 -0.019657795 4.948353924
9.859940584 0.132982351 0.030545916 0.079468912 6.192817278 0.036459145 0.014520780 0.029002805 5.062903678
10.070470262 0.072322988 -0.080862730 0.043219489 6.088851647 -0.108675739 -0.038440160 -0.086450225 5.014888016
10.229161935 0.055021582 -0.127502983 0.032880343 6.076526596 -0.092012574 -0.060611793 -0.073194881 4.930713126
10.260220287 0.021396282 -0.056221708 0.012786202 6.046102243 -0.015700588 -0.026726422 -0.012489626 4.953497476
10.212526179 0.026444485 -0.097672276 0.015802958 6.083218806 -0.000488250 -0.046431006 -0.000388397 4.956843788
10.309991347 0.024758749 -0.140401425 0.014795579 5.987738543 -0.065649377 -0.066743397 -0.052223278 4.942159238
10.272783164 0.029497096 -0.004229286 0.017627167 6.072706160 -0.104320894 -0.002010499 -0.082985999 4.947331892
9.965386332 0.105320848 -0.214119610 0.062938677 6.100847591 -0.008779127 -0.101787215 -0.006983689 4.966119123
10.346386273 0.009041701 -0.012258459 0.005403229 6.167517186 -0.003013722 -0.005827371 -0.002397379 4.928913831
9.857093794 0.132169090 0.031212772 0.078982916 6.195616880 0.036541290 0.014837787 0.029068150 5.062136604
9.891892492 0.143032185 -0.109464771 0.085474592 6.127354238 -0.038904464 -0.052036869 -0.030948027 5.036798611
9.962948527 0.104475949 -0.216168139 0.062433774 6.102167743 -0.009297935 -0.102761036 -0.007396394 4.966004347
10.225243584 0.055550548 -0.127094672 0.033196448 6.077805733 -0.091487930 -0.060417693 -0.072777532 4.932288251
9.916643476 0.085033013 -0.041446782 0.050814872 6.225701642 0.016013571 -0.019702784 0.012738601 5.008757265
10.217343565 0.025926745 -0.093670134 0.015493562 6.079013030 -0.001157567 -0.044528486 -0.000920830 4.956099860
9.856773618 0.110067634 0.014425873 0.065775309 6.228887721 0.030352662 0.006857706 0.024145172 5.045486169
10.280657023 0.049595817 -0.132121931 0.029637960 6.062232472 -0.095523184 -0.062807528 -0.075987528 4.912286057
10.157771806 0.005036800 -0.118531157 0.003009941 6.066944516 -0.008082655 -0.056346807 -0.006429653 4.993006645
10.120439483 0.080260921 -0.115143837 0.047963118 6.103016005 -0.068971489 -0.054736559 -0.054865979 4.991341466
9.859784101 0.107704430 0.010801068 0.064363082 6.230063210 0.029341375 0.005134563 0.023340706 5.042536173
10.310325705 0.046677842 -0.137913266 0.027894208 6.050081068 -0.095488018 -0.065560587 -0.075959554 4.903716719
9.966955807 0.077731145 -0.173008229 0.046451349 6.087984353 -0.074996305 -0.082243872 -0.059658646 5.029478358
10.335971524 0.031192828 -0.154547460 0.018640520 5.996832347 -0.083947318 -0.073468075 -0.066779068 4.924679957
9.961661882 0.075133580 -0.111611853 0.044899070 6.185175101 -0.017249006 -0.053057540 -0.013721374 4.995836631
10.190765964 0.003796416 -0.116909657 0.002268700 6.046093925 -0.011956269 -0.055575986 -0.009511066 4.990087722
10.150472582 0.071402902 -0.119350519 0.042669655 6.099514210 -0.076494714 -0.056736312 -0.060850612 4.972943567
9.977895814 0.065421751 -0.115221449 0.039095379 6.175977571 -0.014776603 -0.054773453 -0.011754608 4.990126525
10.327223842 0.044601296 -0.145321107 0.026653285 6.038063989 -0.094651919 -0.069082093 -0.075294447 4.901703326
10.302346300 0.047510430 -0.135685341 0.028391754 6.054227061 -0.095616176 -0.064501486 -0.076061502 4.905619934
10.343920624 0.036745418 -0.157063987 0.021958691 6.011925499 -0.089075605 -0.074664370 -0.070858558 4.911367881
10.280826312 0.026840919 -0.002085363 0.016039863 6.065400842 -0.099703410 -0.000991330 -0.079312846 4.940452241
9.872126792 0.148081971 -0.097677490 0.088492293 6.218001429 -0.026115769 -0.046433485 -0.020774775 5.026128994
9.896012262 0.140367690 -0.109046313 0.083882317 6.122545903 -0.039191229 -0.051837945 -0.031176145 5.035698782
10.277087446 0.028088418 -0.002981797 0.016785355 6.069011862 -0.102276167 -0.001417473 -0.081359444 4.943956274
9.900077351 0.122250127 -0.100592083 0.073055444 6.217299307 -0.024757870 -0.047819011 -0.019694584 5.023198964
10.071095934 0.094982959 -0.099908314 0.056760859 6.109982956 -0.053097841 -0.047493964 -0.042238685 5.015799083
10.285578413 0.025177679 -0.001534043 0.015045927 6.059272611 -0.094214968 -0.000729246 -0.074946858 4.935207482
9.975486410 0.108541272 -0.205140746 0.064863170 6.095435659 -0.006496610 -0.097518884 -0.005167974 4.967264787
10.059181904 0.098192571 -0.094342189 0.058678891 6.113099933 -0.048318225 -0.044847965 -0.038436559 5.020697007
9.988827953 0.114721487 -0.053241945 0.068556404 6.134523368 -0.015705977 -0.025309916 -0.012493913 5.041836576
9.984674757 0.061771639 -0.116542504 0.036914109 6.172329638 -0.013727356 -0.055401451 -0.010919944 4.988096921
9.952459774 0.081271726 -0.109462193 0.048567164 6.190721939 -0.018571539 -0.052035644 -0.014773433 4.999780064
9.854657747 0.131136247 0.031602186 0.078365700 6.198582610 0.036486728 0.015022905 0.029024747 5.061192081
10.344079857 0.037252629 -0.157038818 0.022261796 6.013176129 -0.089392418 -0.074652406 -0.071110579 4.910413127
10.246514779 0.037418725 -0.012384887 0.022361053 6.092112199 -0.109131191 -0.005887472 -0.086812531 4.956562374
9.953614017 0.106223386 -0.090216575 0.063478025 6.072882491 -0.038644022 -0.042886749 -0.030740848 5.029363120
9.904558228 0.075257452 -0.238281904 0.044973095 6.125807858 -0.014251999 -0.113273378 -0.011337291 5.005015625
10.306091833 0.023782898 -0.138086784 0.014212420 5.988435277 -0.062563759 -0.065643073 -0.049768707 4.944136610
10.265791390 0.020786273 -0.050643773 0.012421667 6.042659548 -0.019288306 -0.024074809 -0.015343612 4.951643625
10.031608808 0.104971904 -0.079567580 0.062730152 6.121787516 -0.036127100 -0.037824477 -0.028738667 5.031005584
10.271637416 0.018887596 -0.017986270 0.011287037 6.110758820 -0.006896908 -0.008550232 -0.005486406 4.933596521
10.282958103 0.026111878 -0.001716198 0.015604195 6.062987500 -0.097686186 -0.000815838 -0.077708170 4.938206307
10.319576080 0.045618268 -0.141451677 0.027261017 6.044105857 -0.095167401 -0.067242661 -0.075704507 4.902189070
10.113849943 0.067365627 -0.052900685 0.040257019 6.096323878 -0.116264131 -0.025147689 -0.092486698 4.999341094
9.863204985 0.160113250 -0.105647712 0.095682065 6.164061418 -0.034812110 -0.050222333 -0.027692609 5.038733284
9.991497554 0.112831416 -0.189376231 0.067426917 6.086942284 -0.002728164 -0.090024819 -0.002170221 4.970524396
10.180397575 0.063744082 -0.122313645 0.038092821 6.092751383 -0.083274213 -0.058144910 -0.066243621 4.954482851
10.149964928 0.005834772 -0.119043057 0.003486801 6.071464141 -0.007662000 -0.056590152 -0.006095027 4.992569134
9.963872993 0.077686319 -0.175704741 0.046424561 6.088336564 -0.073743630 -0.083525728 -0.058662158 5.029594664
10.145457275 0.062846031 -0.037520468 0.037556154 6.102540968 -0.117715286 -0.017836311 -0.093641074 4.982265896
10.289990876 0.022684902 -0.005749073 0.013556269 6.041265411 -0.074126455 -0.002732968 -0.058966691 4.930687049
10.068864174 0.050428393 -0.143063640 0.030135500 6.197444438 -0.013117220 -0.068008949 -0.010434589 4.987074466
10.011590243 0.117121011 -0.168486111 0.069990336 6.076505019 0.001537467 -0.080094168 0.001223036 4.976452068
10.259454238 0.033707728 -0.008552229 0.020143398 6.083204858 -0.107647046 -0.004065520 -0.085631912 4.953939448
9.938042908 0.114539432 -0.096007292 0.068447610 6.082104706 -0.039376450 -0.045639514 -0.031323486 5.029656470
10.159869581 0.059782365 -0.031873374 0.035725339 6.104048992 -0.117243218 -0.015151821 -0.093265550 4.975552134
9.923955088 0.082915009 -0.047669787 0.049549174 6.224881527 0.014488088 -0.022661049 0.011525097 5.007055493
10.233240262 0.006325935 -0.118692415 0.003780315 6.017432297 -0.023445977 -0.056423466 -0.018650989 4.979290743
9.939461597 0.077332834 -0.197423377 0.046213322 6.093468494 -0.061696489 -0.093850235 -0.049078804 5.029102898
9.909943084 0.074494566 -0.226481592 0.044517202 6.110401251 -0.034166549 -0.107663799 -0.027179073 5.026461503
10.130869781 0.118461625 -0.079762943 0.070791473 6.041510312 0.004741716 -0.037917348 0.003771977 5.011544405
10.268034484 0.031026131 -0.005738166 0.018540903 6.076545642 -0.105885284 -0.002727784 -0.084230452 4.950302025
9.912368343 0.079861589 -0.243196932 0.047724480 6.128330919 -0.011405739 -0.115609862 -0.009073126 4.994850530
9.970724786 0.097486456 -0.083645724 0.058256924 6.065296997 -0.037687546 -0.039763127 -0.029979983 5.027758545
10.343486328 0.039600307 -0.156242178 0.023664745 6.018898788 -0.090859517 -0.074273703 -0.072277637 4.906543285
10.334650563 0.043317861 -0.149937972 0.025886317 6.031139043 -0.093711214 -0.071276837 -0.074546127 4.902206857
10.133961090 0.008159912 -0.120014797 0.004876281 6.080582745 -0.007146482 -0.057052093 -0.005684940 4.990366275
10.044919336 0.075171759 -0.101711556 0.044921886 6.086948950 -0.101693240 -0.048351181 -0.080895732 5.019222878
10.002188849 0.053267516 -0.119226956 0.031832131 6.163084321 -0.011143782 -0.056677573 -0.008864743 4.983431614
10.328892898 0.044349355 -0.146287701 0.026502727 6.036603524 -0.094489898 -0.069541588 -0.075165561 4.901717975
10.288951614 0.018843826 -0.129611017 0.011260880 5.993553259 -0.049937099 -0.061613901 -0.039724353 4.953418525
10.273814810 0.050236113 -0.131431646 0.030020595 6.064160740 -0.095362849 -0.062479383 -0.075859983 4.914603280
10.338054281 0.042475779 -0.152284997 0.025383097 6.027493583 -0.093008013 -0.072392556 -0.073986740 4.902952104
10.334733213 0.030744385 -0.154037342 0.018372535 5.995555862 -0.083232983 -0.073225577 -0.066210823 4.925969788
10.041032135 0.065116797 -0.053206293 0.038913141 6.048937995 -0.032256163 -0.025292968 -0.025659385 5.005288311
10.008605974 0.116546001 -0.171556939 0.069646715 6.078020198 0.000965530 -0.081553965 0.000768068 4.975432606
10.252104808 0.052354710 -0.129623944 0.031286647 6.069812076 -0.094303762 -0.061620047 -0.075017492 4.922172768
9.913087035 0.086088668 -0.038403888 0.051445720 6.226112577 0.016754199 -0.018256267 0.013327761 5.009719348
10.015920191 0.108571216 -0.070375776 0.064881065 6.126807171 -0.028764407 -0.033454919 -0.022881735 5.035957096
10.133845974 0.037277908 -0.149497890 0.022276902 6.156226357 -0.008905400 -0.071067633 -0.007084137 4.976879077
9.880448686 0.150159847 -0.109195560 0.089734011 6.140783745 -0.037839955 -0.051908893 -0.030101223 5.039057716
10.199695093 0.029700500 -0.023512022 0.017748720 6.075182329 -0.012817952 -0.011177039 -0.010196524 4.949402702
10.173679526 0.031856803 -0.127429256 0.019037304 6.115163328 -0.000606715 -0.060576746 -0.000482635 4.966054495
10.242025853 0.023447399 -0.072634915 0.014011930 6.058348541 -0.007311065 -0.034528858 -0.005815863 4.955362666
9.914003749 0.128724317 -0.104661296 0.076924355 6.102597373 -0.039837818 -0.049753415 -0.031690498 5.031352044
10.315826383 0.013187213 -0.015372116 0.007880545 6.142637575 -0.004368536 -0.007307527 -0.003475117 4.929057501
9.945224003 0.097422878 -0.229979247 0.058218930 6.112123527 -0.012372345 -0.109326498 -0.009842049 4.968333772
9.865434905 0.158810474 -0.106201988 0.094903539 6.160305165 -0.035423212 -0.050485822 -0.028178733 5.038979931