5.0420426496 3.0884724207 2.5119887563 2.6843869091 4.6613722144 4.9423819386 2.1969632321 1.4479399713 2.4583968291 7.3419385936 1.5886345224 -0.0804921811 7.7605264035 4.8099992303 2.4629029668 1.0553853116 4.6814547699 2.1754871413 3.8917725857 1.5592423097 4.7042023817 8.9402378736 1.6221323668 2.6920121304 6.0701237162 4.7387585934 0.1982312085 1.2392235357 4.6769824808 3.6990456231 3.7616921328 1.5697565042 1.2454310071 8.7957976401 1.6265830271 1.1575776247 6.1671133236 4.7041564146 3.6505815498 4.5756741506 4.7640741546 0.6218203643 0.4268586630 1.6592231300 3.2114626403 5.3898240789 1.4972176045 4.2944331818 9.5534470620 4.6956919879 1.7415780055 1.7735051505 5.9169079279 1.4839062373 3.0947926185 0.4101080054 3.9849864631 8.0847169096 2.7715883432 3.3606997768 6.7307252951 3.4785532687 0.8858433858 8.1968771714 0.3870794618 3.3445523286 6.8761218284 5.9087263764 0.8848312582 1.8723781669 3.5187627208 1.4742187220 3.2429900308 2.8322044554 4.0278628986
5.0511436577 3.0699278477 2.4663435460 2.7716315139 4.5938953221 4.9126381644 2.2094277512 1.4559245991 2.4819930125 7.3424968013 1.5203424616 -0.0391994207 7.9393189787 4.5520968748 2.4881476357 1.0696061877 4.4885807365 2.1710998201 3.9748582383 1.5425286277 4.7136366698 9.0470502945 1.5332131332 2.7109143098 6.1570452801 4.6222199388 0.2575130063 1.2393964221 4.5429291669 3.6993927284 3.8466290136 1.4725513262 1.2737775372 8.8737733332 1.5450124665 1.1864267404 6.2734602400 4.5745242498 3.7027248122 4.6588668280 4.5995520770 0.6307802206 0.4204923568 1.4784108113 3.1558212643 5.4618794278 1.5698882033 4.3050218878 9.6877214508 4.4746834979 1.7394355196 1.8133761524 5.7114481368 1.4945758027 3.2254858727 0.3615654250 3.9876161994 8.3000466281 2.7256030873 3.4387396032 6.8511261225 3.3885688297 0.9828880950 8.2785700273 0.3138499016 3.3761303311 6.8741822723 5.8392241210 0.9258613518 1.8333538199 3.2968864987 1.4824044258 3.2773460844 2.7691191900 4.0085780737
5.0462272964 3.0892079942 2.3830501158 2.8447315557 4.4791430087 4.7403716136 2.1938556222 1.4594434409 2.3174201446 7.4202749799 1.5569400709 0.1152827074 8.0484939149 4.5516466466 2.5122938788 1.0760806033 4.5454605517 2.0766160269 4.0897588476 1.3720125961 4.5723843463 9.1769111055 1.5406605963 2.8216773312 6.1844440864 4.6441098801 0.1986072981 1.3192790398 4.5659556223 3.5930917738 3.8726132966 1.5742482799 1.1290335333 8.9405696141 1.4990188095 1.3031485950 6.4191753650 4.5069539058 3.6470875226 4.6704385945 4.5398557585 0.5386293050 0.4654288284 1.4784719310 3.0987383236 5.5949164319 1.4589381704 4.1721399465 9.8017063679 4.6662468334 1.7845453640 1.8660016046 5.7218082965 1.3607967545 3.4010806458 0.1403592264 3.8958370862 8.4753554383 2.7649982976 3.5331914587 6.8862647096 3.4378332843 0.9760624324 8.4119765584 0.3515477198 3.5491097423 6.8607943881 5.8765288615 0.8894266611 1.7651196390 3.3225123284 1.3500605573 3.3505790284 2.5748656694 3.8180584003
4.9304530680 3.1343652150 2.4373430533 2.5706305080 4.6732211610 4.7731950745 2.1049506296 1.4934785630 2.2705359732 7.2540614583 1.5411113992 -0.0559765997 7.7562582299 4.6640359152 2.5098042618 0.9523816592 4.5558569819 2.0112616068 3.8163790266 1.5229336585 4.5695428865 8.8947919961 1.5719784006 2.7015765368 6.0001573792 4.7015171543 0.2440028525 1.1185373616 4.6317141956 3.5333796448 3.7415414350 1.5757263134 1.0864102405 8.7240666348 1.5203761653 1.1677373533 6.1594592436 4.5869355414 3.7440932720 4.4759171320 4.6440222598 0.4907140299 0.4818084175 1.4954655461 3.3105544008 5.3218589310 1.5709241430 4.2187294178 9.3591651639 4.5748402273 1.4446256991 1.6428423459 5.7726060177 1.2928019038 3.1243913660 0.3171610090 3.8349321162 8.1253692988 2.7587022801 3.3725232120 6.6898042197 3.4907027887 1.0115643531 8.1466295614 0.3467991146 3.3731452244 6.6412436489 5.9257011284 0.9677524896 1.7529532371 3.3490079649 1.3940894674 3.1219472105 2.7491288011 3.8380520086
4.8928277775 3.2214613561 2.4498613377 2.6548692752 4.6642845782 4.9130603060 2.2002960474 1.5154849035 2.3584302960 7.2803037247 1.6479601132 0.0059874850 7.7083272558 4.9078739695 2.5228521313 1.0515992511 4.6631274480 2.1466907776 3.8739775670 1.5214856043 4.6293549027 8.8774440052 1.7008710302 2.8092090494 6.0133676248 4.7850518201 0.2231797660 1.2285930966 4.7054765942 3.6747189724 3.7164100528 1.5863076877 1.1371096070 8.6983759951 1.6345851992 1.2777832281 6.1768726543 4.7449341273 3.7278859597 4.5034778984 4.7046678303 0.5746126355 0.5162846130 1.5695088481 3.2740171559 5.3836639682 1.6324520205 4.2997071134 9.4062704609 4.7484295205 1.6864166648 1.8005549989 5.8863469431 1.4692835635 3.1559455474 0.3038881950 3.9476621759 8.1026658601 2.8720891621 3.5211558998 6.6978536970 3.5824928642 0.9625714940 8.1391481866 0.4561218882 3.4966700529 6.7339671840 6.0047929546 0.9113913691 1.7871803270 3.4514383193 1.4517251313 3.1917362755 2.7501964514 3.9186767812
5.1273363022 2.9923474588 2.4582375899 2.7648263740 4.5579338403 4.9185231532 2.1769622988 1.4716906805 2.3731090013 7.4018283812 1.5815890824 0.0429700715 7.9404166963 4.7342771056 2.5413606670 1.0601432180 4.5329742059 2.1020570939 3.9705581393 1.5209456464 4.6793438144 9.0845957236 1.6545977185 2.8459610910 6.1664983250 4.6375303518 0.2231285661 1.3310897908 4.4943875727 3.6060473228 3.7866579579 1.5592519267 1.1926445614 8.8640652729 1.6526892613 1.3233433415 6.3122918164 4.6160908723 3.7022050619 4.6605223930 4.6247115045 0.6366606096 0.4744991978 1.5596536340 3.2787710335 5.4800814166 1.5721311761 4.3385250317 9.6618047593 4.6846105742 1.7020313987 1.8005766279 5.7547897343 1.3713398328 3.2469834815 0.3268420411 3.9612696549 8.3407381737 2.8574082407 3.5610000153 6.8519975263 3.4306007859 0.9683464744 8.3611382125 0.4379282433 3.5788298079 6.9048038034 5.8430461382 0.9268970841 1.7563781074 3.3299889849 1.3468614936 3.2940065111 2.7316855624 3.9239296687
5.0797742050 2.9787139978 2.4281998586 2.6996585248 4.5521808406 4.8172126771 2.1543319717 1.4290494388 2.2958586304 7.3229840661 1.5797188440 0.0614124617 7.9132295854 4.7464389250 2.5579277885 1.0266048747 4.5563644235 2.0354201824 3.9478169979 1.4549810248 4.5743965677 9.0057663546 1.5982757692 2.8391173620 6.1104672276 4.6107792069 0.2572412757 1.2636604077 4.6265795142 3.5520234345 3.7885081482 1.5029198961 1.1111001438 8.7233143092 1.5163509901 1.3323045929 6.2709806057 4.6109435668 3.7104875098 4.6003778161 4.5360529460 0.5962263443 0.4368800548 1.5924162060 3.1708063479 5.4607273016 1.5007179428 4.2188664485 9.6067883314 4.5593872069 1.6470791056 1.7677998254 5.7599925696 1.3405487241 3.2278430067 0.2556800873 3.8806451862 8.2834193929 2.8097620625 3.5109777643 6.7670200991 3.3641451755 0.9750724103 8.2977980380 0.3770659303 3.5710713435 6.8090738053 5.8084588844 0.9716242965 1.7362213765 3.3560721717 1.3097990995 3.2640386813 2.6709935209 3.8185103921
5.1914754927 2.9305276890 2.4166280285 2.7174703718 4.5862436384 4.9276859515 2.1575910646 1.4343550459 2.4302804193 7.4210371094 1.5873041981 -0.0873238543 7.9603151288 4.6910324364 2.4108286921 1.0261365232 4.5295771555 2.1530286568 3.9601764944 1.4955022998 4.6989910786 9.0954892781 1.6260714521 2.6270622696 6.1808151863 4.6521473416 0.2126266058 1.2654669276 4.5759502012 3.6667346583 3.8288328875 1.5098946724 1.2717786359 8.8722383970 1.5920235257 1.1064496883 6.3189820879 4.6209237683 3.6400972798 4.6872568155 4.5580825106 0.5999753774 0.4072187471 1.6000219104 3.1024653006 5.4697566372 1.5625414670 4.3371896215 9.7221299974 4.5584441676 1.6815477078 1.7589814247 5.7560793613 1.4732756860 3.2131474212 0.2862878393 4.0303472978 8.3451258980 2.8376932992 3.3041910434 6.9123334665 3.4407705744 0.9344590873 8.3691030256 0.4056789832 3.3433606617 6.9508072915 5.8432179629 0.9114633327 1.7577152206 3.3288746507 1.4216410972 3.2577139939 2.6980782409 3.9421559302
4.8793247119 3.1439966852 2.4389370554 2.6277518221 4.6031423907 4.8103446976 2.1298494602 1.4915945064 2.2652312353 7.2900905295 1.4929001202 -0.0297321457 7.8121307613 4.6034873645 2.5123180272 1.0108828147 4.5185016419 2.0024461085 3.8744228071 1.4670610389 4.5461986390 8.9157401369 1.5588693994 2.7582967786 6.0537852831 4.6777163896 0.2322422810 1.2095648810 4.5360221541 3.5235890575 3.7087162107 1.5031895172 1.0441974828 8.7033792432 1.5898249718 1.2339749148 6.2239312313 4.6037075292 3.7322550088 4.5395939974 4.5840351146 0.5656047442 0.4725558315 1.4699928191 3.1822095536 5.3767615172 1.6138379960 4.2098852285 9.4564450699 4.4996250940 1.5398252223 1.6749127846 5.7514295576 1.2959256282 3.2153295788 0.2354036543 3.8399826357 8.2136501034 2.7369875627 3.5033034733 6.7259838287 3.4706235425 1.0135936643 8.2158705957 0.3239793052 3.4628198635 6.7233002833 5.9255928510 0.8838398168 1.7735995181 3.3352981983 1.2967141593 3.1113948972 2.6725844334 3.8416042021
4.9504367801 3.2338980823 2.5047193599 2.7234963394 4.7081709575 5.0401667372 2.1589313761 1.5472968210 2.4853390996 7.2003801945 1.5799711132 0.0725914591 7.7709441454 4.8397978843 2.6032440845 1.1115539027 4.7096428763 2.2705124745 3.9112819635 1.6021247283 4.7625609693 8.8118988901 1.6875490120 2.8574013279 6.0437908315 4.7630036090 0.3293576784 1.2401297254 4.7241692733 3.8053304501 3.7375820134 1.6071334866 1.2427847691 8.6596992173 1.6159127702 1.3340217313 6.2071054277 4.8165663526 3.8411984681 4.5488396786 4.8123423695 0.7327630538 0.4557654277 1.5971049514 3.2168216055 5.4127580949 1.6192279391 4.3841579254 9.4747519204 4.6961086035 1.8938109535 1.7661250093 5.9383985176 1.5645840696 3.1366285845 0.4083602586 4.1058811647 8.0732054841 2.8886776777 3.5509483680 6.6772124528 3.4986279611 1.0342074533 8.1363638455 0.4660162692 3.6119330537 6.8221821479 5.9526533805 1.0247457739 1.8880658775 3.5031260512 1.6050913836 3.2490536889 2.8533362169 4.0422295572
4.8864138626 3.2136056349 2.4634196537 2.6359860027 4.6605828050 4.9206116723 2.1882768820 1.4984403109 2.3596158069 7.2978488042 1.6539740642 0.0018846900 7.7102666526 4.8509316509 2.5010660077 1.0601763673 4.6397861266 2.1561207525 3.8805241866 1.5184997920 4.6580502552 8.8567838876 1.6854991517 2.7925148955 6.0156449563 4.7798877391 0.2027758079 1.2163203032 4.7032764893 3.6820344050 3.7362390590 1.5819031027 1.1403260298 8.7309075346 1.6182925002 1.2582427705 6.1593802835 4.7268679680 3.7092421518 4.5059455595 4.7187895052 0.5837478837 0.4949263819 1.5542311887 3.2607706231 5.3904365128 1.5973309550 4.3008554431 9.4303887768 4.7436175820 1.6726117663 1.8250543136 5.8495966230 1.4792940806 3.1555604050 0.3221456614 3.9759620138 8.0710355220 2.8626684787 3.4754668268 6.7050086528 3.5804242699 0.9783522987 8.1429612488 0.4605827574 3.4760646327 6.7410557521 5.9755315848 0.9108500312 1.7885304430 3.4257522034 1.4700084592 3.1692575987 2.7307868923 3.9026396248
4.9492256731 3.1672984327 2.3625800005 2.7514347562 4.5298555159 4.8020300372 2.2188658742 1.4735766339 2.2610026233 7.3586581813 1.5291091746 0.0428110898 7.9181027552 4.5227633553 2.5479745236 1.0698678831 4.5301960372 2.0177784669 3.9928572669 1.4089104383 4.5664366829 9.0646488758 1.5653003191 2.8529988762 6.1519281497 4.6524032584 0.2360967454 1.3374564146 4.5221559286 3.5347375954 3.8056038361 1.5062777267 1.0967607216 8.7598448323 1.5864566336 1.3499168414 6.2975583351 4.5333781546 3.6985388953 4.6281395634 4.5753607207 0.5926176891 0.4726994236 1.5096122646 3.1681450498 5.5100317023 1.5665384292 4.2584336497 9.6579476933 4.6167807079 1.6793241165 1.7874939660 5.7174698523 1.2632031959 3.3580684273 0.1703564312 3.8698385670 8.3606259370 2.7901892514 3.5555143846 6.8846365899 3.4531890409 0.9907187573 8.3613824686 0.3450227838 3.6024651107 6.8545597405 5.8569550050 0.9369467669 1.7926289506 3.3115843561 1.3160071095 3.2459398999 2.5948897227 3.8050719529
4.9106937283 3.1377993152 2.4492516550 2.5791890514 4.6587854538 4.7858918792 2.1064591165 1.4956575032 2.2687342813 7.2620792681 1.5227376615 -0.0507786022 7.7653400910 4.6564537234 2.5140216200 0.9651327380 4.5428146120 2.0189326429 3.8162438205 1.5156417416 4.5735286822 8.8883830657 1.5566005647 2.7043725449 6.0104764187 4.6944223878 0.2304982285 1.1510102826 4.5989837098 3.5502837323 3.7216188251 1.5633666485 1.0795971106 8.7040150850 1.5373129832 1.1745073031 6.1798771505 4.5866743418 3.7374666195 4.4729122715 4.6395511964 0.5037269411 0.4737384708 1.5012672659 3.2947706692 5.3273320035 1.5691080051 4.1984907980 9.3635608271 4.5388871987 1.4548627178 1.6446938897 5.7725678804 1.2813223413 3.1648618982 0.2982848247 3.8300041138 8.1573254194 2.7602341557 3.4116611827 6.6856498168 3.5053166674 1.0178056809 8.1487600500 0.3209849318 3.3780701387 6.6400938545 5.9274182986 0.9570383070 1.7557613093 3.3489188024 1.3732816499 3.1042205896 2.7250786173 3.8426298651
4.9528088558 3.1616641467 2.4538480046 2.7355493287 4.6592298090 4.8629987427 2.2085479517 1.4758871275 2.3723214210 7.3340269607 1.5653008862 -0.0157417085 7.9243336304 4.6254891474 2.4792886019 1.0777685960 4.5673441573 2.1290401399 3.9545321463 1.4746400640 4.6142754526 9.0547243990 1.5562695881 2.7316203838 6.1234312574 4.6481689755 0.1877950612 1.2621017768 4.6170981366 3.6535534138 3.8223722650 1.4801455301 1.1447814366 8.8433011311 1.5380223574 1.1994499719 6.2917216196 4.5830728652 3.6642642992 4.6160455552 4.5004281042 0.5430817081 0.4731479241 1.4947134569 3.1251892313 5.4474835986 1.6130493203 4.2004975675 9.6694425917 4.6629855869 1.7184464633 1.8349531003 5.7713831449 1.3971032695 3.2685330724 0.2570507564 3.8984342135 8.3113810035 2.7630710825 3.4153519322 6.8257207987 3.4469417683 0.9274136117 8.3389675329 0.3494858708 3.4605838474 6.8060424773 5.8670624300 0.8606563630 1.8083644169 3.3764176904 1.4248380319 3.2156489899 2.6599989610 3.8902419223
5.2163576730 2.9320843570 2.4110092635 2.7332196677 4.5676918636 4.9229837041 2.1586067612 1.4448809832 2.4296335796 7.4215719451 1.5807121290 -0.0699498045 7.9916650410 4.6763075052 2.4192816056 1.0433053552 4.5167569428 2.1463718681 3.9611724842 1.4891474828 4.6858040698 9.1132591266 1.6162558804 2.6445161494 6.2096243566 4.6386737767 0.2294204915 1.2495030300 4.5388243435 3.6649029146 3.8184322240 1.4936652514 1.2541905241 8.9033148896 1.5768829493 1.1277600748 6.3457314536 4.6191988280 3.6626982142 4.7016209876 4.5356316298 0.6112571156 0.4066759631 1.5845679315 3.1031972280 5.4831694782 1.5574259424 4.3452590919 9.7531258686 4.5284441894 1.6963086207 1.7875699313 5.7312789552 1.4685109126 3.2476154774 0.2658302587 4.0170853136 8.3958514039 2.8348376279 3.3381101880 6.9421768765 3.4156038285 0.9471813338 8.3719525578 0.4131999996 3.3619422754 6.9478867655 5.8452665641 0.9343276479 1.7631697851 3.3044388445 1.4229462426 3.2438287617 2.6974977586 3.9424847248
5.1885316803 2.9304991915 2.4174913045 2.7158371592 4.5879325462 4.9279171490 2.1579362750 1.4332500401 2.4301547479 7.4210650274 1.5879372278 -0.0892152290 7.9568342082 4.6926290159 2.4100596771 1.0251186341 4.5304493838 2.1533289544 3.9598248200 1.4963160559 4.7006098157 9.0930300917 1.6268297518 2.6256753900 6.1779763400 4.6534417102 0.2103698678 1.2670674578 4.5795189522 3.6673096014 3.8298713300 1.5118116665 1.2730140616 8.8703367502 1.5936066641 1.1047695223 6.3161696257 4.6210544951 3.6382371195 4.6857586605 4.5608258738 0.5989996161 0.4067785987 1.6013257877 3.1026598088 5.4677069848 1.5627167652 4.3355939023 9.7179184468 4.5622819148 1.6795656993 1.7563739650 5.7588977651 1.4730679555 3.2095995431 0.2885973408 4.0311210898 8.3390515599 2.8371189128 3.3010257361 6.9089342028 3.4438504967 0.9326942907 8.3689262748 0.4051708682 3.3410192227 6.9502100637 5.8422161197 0.9082764391 1.7576859719 3.3325567636 1.4220381474 3.2597666465 2.6977168501 3.9423404277
4.9002773487 3.2149258971 2.4894709284 2.7211036176 4.7002312990 4.9634035139 2.2206996326 1.5248790236 2.3956066555 7.2644316395 1.5754020962 0.0727569741 7.8460480722 4.7124887729 2.5817208209 1.1346459021 4.6118175821 2.2080497144 3.9322821833 1.5459316167 4.6701483380 8.9125844253 1.6280737052 2.8125936797 6.1043591052 4.6674439539 0.2556578717 1.2842517999 4.6533875715 3.7366184190 3.8163991342 1.5082091805 1.1706428489 8.7214518809 1.6063011220 1.2816610508 6.2294987047 4.6834082260 3.7511565058 4.5981433542 4.5731410250 0.5991748964 0.4407028535 1.5788942876 3.1781309767 5.4372726011 1.6227111580 4.2932590575 9.6254471508 4.6956087710 1.7906037540 1.9026453745 5.8375229030 1.5425380554 3.2171142421 0.3344618530 3.9740919519 8.1424842055 2.8149704362 3.5141357298 6.8278604103 3.4737072908 0.9995702974 8.2063641540 0.4060024971 3.5126948792 6.7752321685 5.8961093177 0.9550941851 1.9163757505 3.4177986120 1.5361320206 3.1673614145 2.7505985588 3.9925470608
5.0797327138 3.0493589745 2.4118056416 2.8522960831 4.4564320226 4.7386639251 2.1905889615 1.4578354735 2.3372326110 7.4411104093 1.5517620449 0.1175984004 8.0875027442 4.5678296064 2.5022555065 1.0920047853 4.5374111940 2.0926817615 4.0968814759 1.3746524909 4.5724701660 9.1806835123 1.5233778622 2.8139101035 6.1944304978 4.6283293666 0.2019019739 1.3035816084 4.5319357010 3.6167603191 3.8842622904 1.5363846135 1.1475325595 8.9726842315 1.5124488644 1.2825943164 6.4241321998 4.5009345268 3.6275076747 4.6935443661 4.5141332508 0.5357870351 0.4324264477 1.4310956392 3.1147165917 5.5880450205 1.4627243670 4.1779889284 9.8446741474 4.6314707031 1.7764211026 1.8850402157 5.7212363150 1.3724430794 3.3746401472 0.1540551184 3.9051610783 8.4898568741 2.7566678491 3.5016818538 6.9132349168 3.4485628456 0.9948350098 8.4347761912 0.3381175091 3.5357122232 6.8714668094 5.8518518616 0.8873548199 1.7606739611 3.3187807245 1.3642073013 3.3529790568 2.5573820226 3.7958673667
5.1492805921 2.9145107900 2.4679319675 2.7682193372 4.4928919754 4.7745901924 2.1481544684 1.4084585002 2.2780557721 7.3962263294 1.5726535989 0.0909565587 8.0377893151 4.5936115591 2.5590057354 1.0249919120 4.4644983075 2.0335735713 3.9565971465 1.4356638074 4.6061550500 9.1460960102 1.5728160055 2.8017111419 6.1568082915 4.5864448408 0.2420022414 1.2613905650 4.4715709457 3.5531092494 3.7968168072 1.5222062980 1.1351828370 8.9022044214 1.5200481791 1.2836311078 6.3449688806 4.5169734152 3.7115697950 4.6500621432 4.5260111600 0.5668569521 0.4453851779 1.5812523657 3.2099797919 5.4762369275 1.4193732397 4.2900604603 9.7268917092 4.5654999539 1.6380512764 1.7702911901 5.6681460922 1.3232617820 3.2454420060 0.2210968401 3.9084306598 8.3838767969 2.7709755752 3.4879764988 6.8520955683 3.3599319637 0.9790024765 8.4167299677 0.3618350009 3.5371302031 6.8748000804 5.7657001350 0.9793163032 1.7287838583 3.2589722979 1.3177668562 3.2917098849 2.6450472629 3.8417055898
5.0039570479 3.0907172089 2.4627367784 2.7212857461 4.5975613246 4.9275681866 2.1939600670 1.4390899841 2.4650222502 7.3042642816 1.5624020874 -0.0402130978 7.8603269507 4.5419018066 2.4653469979 1.0453315227 4.4954571485 2.1703428635 3.9420827990 1.5266567620 4.7287352029 8.9771289991 1.5496522467 2.7134456241 6.1187563736 4.6413103482 0.2344010348 1.2221644990 4.5156733840 3.6963301697 3.8120642613 1.4662536781 1.2294208450 8.8399634873 1.5430777708 1.1843256563 6.2527010477 4.6154324307 3.7187010248 4.6217836301 4.6060203029 0.6714474111 0.4293270580 1.4894064467 3.2048429467 5.4337215415 1.5623253052 4.2852952786 9.6022053254 4.5470382786 1.6649001204 1.7998192348 5.7233707223 1.4993844050 3.2085065522 0.3436591767 3.9926098157 8.2079408537 2.7535833858 3.4091754616 6.8201996587 3.4001547743 0.9451962931 8.2148885614 0.3543757190 3.3954383204 6.8530216623 5.8244015557 0.9455312811 1.8244951797 3.2948797613 1.5160156999 3.2468887183 2.7644285707 4.0245352652
5.0004077676 3.1437680553 2.3490920097 2.8089485336 4.5058337670 4.7607368875 2.2147642214 1.4654635464 2.2800456809 7.3842872961 1.5514639346 0.0887822113 7.9757605923 4.5290703796 2.5326729380 1.0739549673 4.5353501745 2.0317421527 4.0633885411 1.3925240139 4.5483111688 9.1364783029 1.5477882504 2.8487551772 6.1742346883 4.6591069784 0.2326229155 1.3417084984 4.5569849475 3.5456270281 3.8346058652 1.5680707780 1.1090800870 8.8406064323 1.5316986490 1.3348929433 6.3687723241 4.5081958712 3.6665116874 4.6709145477 4.5725830992 0.5526169014 0.4749481172 1.5397588351 3.1261452899 5.5667956854 1.4842951400 4.2200384403 9.7396674874 4.6743051001 1.7525036670 1.8332563878 5.7405684588 1.3110032634 3.4129810806 0.1378682023 3.8901765538 8.4472372760 2.7773425645 3.5432750641 6.8741566414 3.4256221498 0.9500249744 8.3836195018 0.3662360176 3.5710864980 6.8472424907 5.8798514037 0.9087916783 1.7744630741 3.3075063251 1.3573540642 3.2983286672 2.5900754577 3.8366459722
4.8878065908 3.2187131500 2.4585813686 2.6450059385 4.6634028434 4.9178342347 2.1946628972 1.5068101031 2.3585350100 7.2901714507 1.6520801372 0.0038119047 7.7081072450 4.8794964799 2.5123334941 1.0549831983 4.6526967629 2.1540677966 3.8760361533 1.5187191400 4.6450892643 8.8664630525 1.6942403072 2.8001415732 6.0133971380 4.7838878831 0.2108830969 1.2244592838 4.7074680360 3.6801257151 3.7249363291 1.5848774215 1.1401683224 8.7164983687 1.6247542966 1.2655932671 6.1712001973 4.7357427817 3.7133028739 4.4981480169 4.7134112125 0.5800586608 0.5049263387 1.5613273015 3.2684009940 5.3883163772 1.6152547116 4.3016411178 9.4188970184 4.7447881036 1.6779191748 1.8175099424 5.8710796793 1.4776129519 3.1541824584 0.3144460993 3.9646355220 8.0826688264 2.8685148525 3.5004995755 6.7002236365 3.5873345448 0.9721871975 8.1401069282 0.4604818010 3.4852998089 6.7379000854 5.9885548253 0.9114463507 1.7857272641 3.4360998994 1.4609505945 3.1801867671 2.7405437382 3.9095903198
5.1238194443 2.9332728606 2.4645884111 2.7449790526 4.5197523256 4.8055803277 2.1540514637 1.4122602034 2.2856257606 7.3641099934 1.5774145318 0.0827156280 7.9911458550 4.6527322235 2.5716784974 1.0273089379 4.4960588044 2.0473026222 3.9619753942 1.4504372007 4.6094577642 9.0915921725 1.5722030528 2.8276332869 6.1382980886 4.5869186347 0.2325007844 1.2503519076 4.5576883809 3.5669458442 3.7809295038 1.5048239836 1.1417213747 8.8258334624 1.5018962181 1.3140402047 6.3254410589 4.5583734665 3.7088747951 4.6231820950 4.5329863987 0.5942086687 0.4437338834 1.6004474838 3.2090010177 5.4759318079 1.4292982409 4.2676470736 9.6711470072 4.5601571206 1.6444711964 1.7800675300 5.7070078071 1.3287718670 3.2452575993 0.2340264988 3.9144202152 8.3397289782 2.7919698754 3.5067746376 6.8011645795 3.3626834650 1.0013779702 8.3651658870 0.3781506806 3.5599615511 6.8419574306 5.7814349779 0.9900916259 1.7314440819 3.2965666334 1.2953896278 3.2744455212 2.6480957553 3.8219374850
5.2420029468 2.9472382053 2.4275532674 2.7940559835 4.4823317611 4.8661339579 2.1866785457 1.4793054475 2.4083718449 7.4457126279 1.5510018661 0.0057362030 8.0918581606 4.6314481363 2.4687228675 1.0842126717 4.4635115278 2.1351589756 3.9827533238 1.4311997864 4.6506209426 9.1767741902 1.5736002041 2.7376016838 6.2450994791 4.5888161164 0.2486644384 1.2583055493 4.4283672471 3.6544309136 3.7875678610 1.4877446561 1.2220873750 9.0095348725 1.5382071407 1.2120649257 6.4597734372 4.5686785021 3.6810277684 4.7459126648 4.4649282460 0.6489439978 0.4034337964 1.4576082939 3.1430976225 5.4936301065 1.5540052903 4.2833547471 9.8729010129 4.5347280467 1.7016816739 1.8681585126 5.6437226869 1.4393942818 3.3214149638 0.2217489162 3.9023467974 8.4469776618 2.7780004619 3.4591890212 7.0318528236 3.3944081717 0.9689316528 8.3627403467 0.3808553259 3.4208233360 6.9274390062 5.8134874161 0.9855416060 1.8670529709 3.2641400194 1.4358670036 3.2564325625 2.6490256253 3.9152041093
5.1784576438 2.9798854455 2.3134709129 2.7618531052 4.4454280836 4.6663958142 2.1405489851 1.4608012122 2.2751371732 7.5559162554 1.5219146320 -0.0380947593 8.1059577254 4.5082896241 2.3965185471 1.0133307848 4.4269331162 1.9445591467 4.0170788750 1.4321845986 4.5071314154 9.2571283145 1.5090818268 2.6617671170 6.2822159423 4.6295244852 0.2183656681 1.2236444354 4.4388654024 3.4731235745 3.8440608365 1.4937004519 1.1145347955 9.0729770592 1.5700109572 1.1401618778 6.4610238718 4.5080140511 3.6086085682 4.7818322161 4.5443209469 0.5477519577 0.4163563013 1.3700555374 3.1443969502 5.5378823697 1.5300777293 4.1986919897 9.8425197085 4.4872090136 1.5099708536 1.8294123057 5.6272497937 1.2810446776 3.2964217614 0.2065150899 3.8194283672 8.5380518308 2.7122280260 3.4013486482 7.0189576093 3.4211728868 0.9540446346 8.4514341050 0.3141127787 3.3152114357 7.0230115573 5.8543651197 0.8741671612 1.7242645302 3.2161384802 1.2198858388 3.3406213279 2.6666659196 3.7514965123
5.1709240843 2.9910419574 2.3077660575 2.7605423169 4.4584007081 4.6743059692 2.1471666896 1.4624715153 2.2785206616 7.5573164091 1.5216220071 -0.0509607732 8.1037523119 4.5107980006 2.3925944694 1.0090322807 4.4346895027 1.9417465273 4.0210260479 1.4293235057 4.5016095805 9.2541011292 1.5116293818 2.6675699076 6.2830215233 4.6379670812 0.2242552687 1.2271763193 4.4528531628 3.4696509292 3.8470619311 1.5117230170 1.1184852629 9.0709554478 1.5551922844 1.1398851631 6.4607281670 4.5018558836 3.6053913308 4.7777943528 4.5456109600 0.5419992266 0.4153876760 1.3656976778 3.1388547946 5.5408742848 1.5384074889 4.1947521234 9.8430634917 4.4863784646 1.5025814177 1.8262276437 5.6285380487 1.2763211083 3.3116109009 0.2047768969 3.8165783031 8.5388873321 2.7145018897 3.3980538317 7.0171925721 3.4264441966 0.9467867691 8.4381843993 0.3144124719 3.3200676420 7.0182279211 5.8526030380 0.8728446466 1.7216095360 3.2210879776 1.2332600887 3.3417994254 2.6564623006 3.7527767934
5.1419899417 2.9406999947 2.4369790792 2.6948228088 4.6116657385 4.9272096291 2.1731839328 1.4185372665 2.4266685999 7.4203801063 1.5955726316 -0.1173724059 7.9005187599 4.7208907552 2.4020452401 1.0227035311 4.5585452142 2.1497832480 3.9434837937 1.5081701908 4.7204991714 9.0442523430 1.6298907752 2.6146171193 6.1474925206 4.6716251910 0.1671212451 1.2689024029 4.6171180493 3.6672221565 3.8391148795 1.5398025270 1.2722221927 8.8783565526 1.6156723643 1.0913309158 6.2707116282 4.6300122746 3.6218532021 4.6485828254 4.6165786744 0.5895150600 0.3969978909 1.6221046529 3.1145708235 5.4450471515 1.5482096066 4.3047687481 9.6596721535 4.6268435127 1.6546720043 1.7304442018 5.8045546572 1.4570508089 3.1676227086 0.3201681077 4.0370444076 8.2385521047 2.8110440472 3.2748536117 6.8612733080 3.4677032648 0.9033219892 8.3573089448 0.3986916807 3.3075339773 6.9246995614 5.8484863925 0.8500503775 1.7775567499 3.3906623745 1.4355895121 3.2825183022 2.7134296586 3.9503596422
4.9317164011 3.1667959877 2.3746802144 2.7320009022 4.5382460869 4.8133900044 2.2089734104 1.4767729877 2.2612062092 7.3487404599 1.5200206549 0.0286574659 7.9025325415 4.5269077296 2.5462045325 1.0606966373 4.5215131017 2.0162143245 3.9724160621 1.4117934600 4.5658705172 9.0401044442 1.5717274965 2.8510194592 6.1335798316 4.6525824538 0.2430323331 1.3220094670 4.5194593578 3.5288957631 3.7963012060 1.4930250264 1.0933574405 8.7442284231 1.5946901554 1.3436390526 6.2764005493 4.5462169934 3.7094264597 4.6208070041 4.5698426384 0.5964686346 0.4728336396 1.4868995551 3.1678078941 5.4797987816 1.5946059214 4.2632512420 9.6292103686 4.5941652531 1.6610690197 1.7707867527 5.7143392211 1.2641450714 3.3288304273 0.1782814420 3.8617510893 8.3244093764 2.7778284444 3.5594145879 6.8741496306 3.4591403204 1.0021670730 8.3516792124 0.3511792824 3.5947716181 6.8480808345 5.8538447812 0.9303960852 1.7966130682 3.3203790709 1.3002207428 3.2322901821 2.6025787242 3.8030178949
4.9151871851 3.1700017873 2.4584536282 2.6228602142 4.6436738451 4.9330310237 2.1591471243 1.4576794781 2.3940676009 7.3165216825 1.6424846075 -0.0150639575 7.7484512605 4.6873109161 2.4404383312 1.0661177856 4.5535866251 2.1589540914 3.9005969354 1.5139995369 4.6761984746 8.8635440376 1.6155193573 2.7375820091 6.0545480750 4.7347459492 0.2253056277 1.1617413613 4.6151351837 3.6900247807 3.7912925981 1.5773380513 1.1732447659 8.7582469454 1.6128558252 1.2013427182 6.1460835366 4.6801970032 3.7229035874 4.5457877436 4.6798688334 0.6167047680 0.4524115990 1.5382686710 3.2368206277 5.4037910659 1.5624966890 4.2782498506 9.4856952483 4.7367874358 1.6505818100 1.8237080651 5.7612167372 1.4375152951 3.1579682200 0.3033815419 3.9917833852 8.0764912155 2.8417970651 3.3411486083 6.7500947797 3.4896771836 0.9226325544 8.1414290408 0.4125265496 3.4515257575 6.8088680328 5.9267485758 0.9100661887 1.8515712449 3.3536201877 1.5106696682 3.1743219297 2.7312507152 3.9634729114
4.8902414694 3.2208261651 2.4540256276 2.6508540864 4.6643570040 4.9154141065 2.1981520564 1.5120164281 2.3584236526 7.2846300565 1.6500499576 0.0050883022 7.7079295528 4.8965642730 2.5187517746 1.0528158037 4.6593663415 2.1505788755 3.8745196234 1.5203318770 4.6357078208 8.8730447892 1.6987594736 2.8052031596 6.0129014745 4.7850168445 0.2177847545 1.2275744128 4.7073253280 3.6776698124 3.7192904669 1.5861687810 1.1395815337 8.7060808148 1.6302354664 1.2718961655 6.1756184020 4.7413201880 3.7206822293 4.4995057364 4.7087086615 0.5769261615 0.5116930913 1.5661673326 3.2722192782 5.3857922644 1.6258992067 4.3010772786 9.4110845947 4.7467196619 1.6825085762 1.8089965780 5.8813743273 1.4737191277 3.1544152314 0.3080178801 3.9552195834 8.0932982513 2.8713195695 3.5135824731 6.6983305304 3.5864044744 0.9666711060 8.1388391476 0.4580527719 3.4920203392 6.7359237717 5.9982430339 0.9114902928 1.7860515873 3.4444323049 1.4555012609 3.1873764416 2.7462771042 3.9151842531