-28927.8010700678
-28927.8243070811
-28927.7789774287
-28927.7596191241
-28927.7718967581
-28927.8399649115
-28927.8300093597
-28927.7967423715
-28927.8038944719
-28927.7499265701
-28927.7773950875
-28927.7966403289
-28927.7723862906
-28927.8258404418
-28927.8078477398
-28927.7961599121
-28927.8119256357
-28927.7889084902
-28927.8099696824
-28927.8209953213
-28927.7967474056
-28927.7756579137
-28927.7949404346
-28927.7727107862
-28927.7621960408
-28927.768385539
-28927.7892469997
-28927.7972014273
-28927.7949347202
-28927.7729166402
-28927.7936835414
-28927.7939017766
-28927.7806649418
-28927.7993567039
-28927.7730888882
-28927.7941257262
-28927.7798865605
-28927.7999115437
-28927.8004644788
-28927.7983260733
-28927.8114242662
-28927.8101861488
-28927.8030224836
-28927.8062117922
-28927.7730477991
-28927.7943922616
-28927.758178282
-28927.7589893169
-28927.7961818173
-28927.7849945428
-28927.7494023431
-28927.808149922
-28927.8078012083
-28927.7768250093
-28927.7982595415
-28927.760363355
-28927.8028691475
-28927.8030560896
-28927.7973486408
-28927.8069037773
-28927.8035446698
-28927.7750154532
-28927.7572276528
-28927.7944728072
-28927.754150455
-28927.8148831034
-28927.7702976819
-28927.7968633261
-28927.7778891099
-28927.7422586782
-28927.7885807293
-28927.7704805424
-28927.8025337674
-28927.791698472
-28927.7678868906
-28927.772401393
-28927.7659976052
-28927.7951652005
-28927.7731258957
-28927.842636932
-28927.8323964771
-28927.7940476296
-28927.8205902801
-28927.8412951393
-28927.8022828786
-28927.8265438557
-28927.8025368967
-28927.8011673484
-28927.7829632141
-28927.807106502
-28927.777267058
-28927.8422376051
-28927.7974060568
-28927.8065618665
-28927.7802758192
-28927.7746939509
-28927.791471121
-28927.7766367066
-28927.8209980424
-28927.7775216204
-28927.7718636963
-28927.7981317841
-28927.8142802355
-28927.7727716036
-28927.8016393296
-28927.7893814238
-28927.8007069321
-28927.7945654619
-28927.7491839719
-28927.7889064494
-28927.7609093512
-28927.7553657148
-28927.8237008118
-28927.7928123694
-28927.7763308508
-28927.754597946
-28927.8054921875
-28927.7932288394
-28927.8063252636
-28927.779117023
-28927.753312617
-28927.8283072885
-28927.8417956925
-28927.8083386329
-28927.795982358
-28927.8049950358
-28927.8075753539
-28927.789475167
-28927.7777604001
-28927.8280753116
-28927.8107843908
-28927.8027125461
-28927.7903025287
-28927.7702303338
-28927.8028600317
-28927.831003255
-28927.8014859936
-28927.7861966051
-28927.7779745536
-28927.7993054105
-28927.7834334266
-28927.7561420552
-28927.8213662123
-28927.7904072925
-28927.8043985626
-28927.7975129975
-28927.8056794017
-28927.8171959338
-28927.7768758946
-28927.7940445003
-28927.7790631445
-28927.7548613521
-28927.80166899
-28927.7828142318
-28927.8240413621
-28927.8099096813
-28927.8212758705
-28927.7943688598
-28927.8032454808
-28927.8084685672
-28927.7688486765
-28927.7609226847
-28927.7913309824
-28927.7560557952
-28927.7736714837
-28927.8315798639
-28927.76085384
-28927.7881273879
-28927.7744436063
-28927.7590339435
-28927.8022192039
-28927.8148334426
-28927.7930346863
-28927.8102198909
-28927.7785613668
-28927.8073924935
-28927.7956396308
-28927.752056268
-28927.7571899651
-28927.7904525994
-28927.7940900793
-28927.8188541947
-28927.8127697323
-28927.810454589
-28927.7481530691
-28927.7856277514
-28927.7936495272
-28927.8413324189
-28927.7541812039
-28927.7875298262
-28927.8011718383
-28927.7638276345
-28927.7780741472
-28927.8047717665
-28927.8442346475
-28927.7944609703
-28927.7892163869
-28927.7814784257
-28927.7545110057
-28927.8075425642
-28927.7772824324
-28927.7929103304
-28927.810186557
-28927.77053238
-28927.8184955488
-28927.7999933139
-28927.7968736664
-28927.8178069651
-28927.817818666
-28927.7987454005
-28927.7670134057
-28927.7552059841
-28927.7554205457
-28927.780993247
-28927.8030400349
-28927.745917519
-28927.7803405822
-28927.7845886853
-28927.8171189256
-28927.7881333744
-28927.8041791029
-28927.7939134775
-28927.7980264761
-28927.7912708453
-28927.8001893718
-28927.8407276462
-28927.7948914541
-28927.8022804295
-28927.8066737052
-28927.8029990818
-28927.7586336643
-28927.8036468485
-28927.7868460045
-28927.800515228
-28927.8034114701
-28927.8140400951
-28927.7927799879
-28927.7979173585
-28927.769352359
-28927.8313842142
-28927.79988338
-28927.7528708404
-28927.8028031599
-28927.7639753923
-28927.775134639
-28927.8025451962
-28927.8001711402
-28927.8051146298
-28927.7864872225
-28927.7725623482
-28927.7895740803
-28927.7704444873
-28927.7636402842
-28927.8176396152
-28927.8042072666
-28927.7983452573
-28927.8115645408
-28927.8188931069
-28927.8082112837
-28927.7893501308
-28927.836797508
-28927.7941981084
-28927.8067444548
-28927.7947649213
-28927.7877443878
-28927.7629688437
-28927.7948692769
-28927.7603062111
-28927.8378213358
-28927.8218271729
-28927.8096232816
-28927.80756583
-28927.8062516569
-28927.811596242
-28927.7996365728
-28927.7770848779
-28927.7816518982
-28927.7634190558
-28927.8480898184
-28927.8015136131
-28927.7989681255
-28927.7708359228
-28927.7750999445
-28927.7596746353
-28927.8341395014
-28927.7797413879
-28927.7905600843
-28927.8042840027
-28927.7945730811
-28927.8038884854
-28927.8200607468
-28927.8285351837
-28927.7778089724
-28927.753906369
-28927.7742038741
-28927.7538160273
-28927.779430498
-28927.7574596297
-28927.780325752
-28927.805266061
-28927.8008902006
-28927.8302258262
-28927.8095640969
-28927.7641563479
-28927.7602353255
-28927.7853265216
-28927.7868084528
-28927.7885408646
-28927.7831743743
-28927.840691319
-28927.7479654467
-28927.8062960114
-28927.8368799585
-28927.7820082311
-28927.7734555614
-28927.807501339
-28927.7569594848
-28927.8116527056
-28927.7947755337
-28927.8391527882
-28927.8195392409
-28927.7937791894
-28927.8169416435
-28927.8020545752
-28927.7460417389
-28927.7735781486
-28927.7798092802
-28927.7967766578
-28927.8098235573
-28927.8161178193
-28927.7586327119
-28927.7804339172
-28927.8162647607
-28927.7955409895
-28927.804172164
-28927.7882492948
-28927.7567715903
-28927.7930725101
-28927.8128384411
-28927.7902096019
-28927.7541186177
-28927.8089126567
-28927.8008734656
-28927.808427478
-28927.8022129453
-28927.7425529692
-28927.8484811179
-28927.794125182
-28927.7691350762
-28927.800632509
-28927.766267406
-28927.7677150508
-28927.7899731351
-28927.8452278626
-28927.7737136613
-28927.7668750358
-28927.7978267446
-28927.8035752826
-28927.8045410141
-28927.8067183318
-28927.8092487171
-28927.8189574618
-28927.8257038407
-28927.8045649601
-28927.8107575876
-28927.7715475002
-28927.808898915
-28927.7668185723
-28927.7853809443
-28927.7662023708
-28927.7557046324
-28927.7960864414
-28927.7733555596
-28927.7420431642
-28927.851422667
-28927.7887048131
-28927.7996146677
-28927.7769841958
-28927.7602988641
-28927.79872989
-28927.7899606179
-28927.8027869692
-28927.7714831453
-28927.8044138009
-28927.8444372362
-28927.7771572601
-28927.7682169646
-28927.7874631583
-28927.800041478
-28927.843433953
-28927.7807019492
-28927.7979070182
-28927.7591094551
-28927.8010587751
-28927.7697250187
-28927.7465595713
-28927.7695984858
-28927.8453957567
-28927.8138717928
-28927.8214595473
-28927.7951050634
-28927.8393504788
-28927.8033940548
-28927.794898257
-28927.7772427038
-28927.7605302968
-28927.7443904169
-28927.8306303232
-28927.7919232379
-28927.792270455
-28927.780722902
-28927.7944477728
-28927.8012300707
-28927.8011699335
-28927.7694900485
-28927.7911395505
-28927.7602468904
-28927.7930586323
-28927.8033237134
-28927.7876288756
-28927.7917954805
-28927.7829219889
-28927.7503390945
-28927.7850895105
-28927.7771554914
-28927.7986632221
-28927.7768459621
-28927.8087902056
-28927.7819384339
-28927.7918522162
-28927.8013254465
-28927.7943053212
-28927.7792978426
-28927.7611365661
-28927.8126212943
-28927.8018106252
-28927.7482783775
-28927.8057436206
-28927.7973685051
-28927.7460643244
-28927.8116826381
-28927.7863137501
-28927.8087043537
-28927.7743765302
-28927.8284853869
-28927.7789789253
-28927.7715766163
-28927.8465103344
-28927.7735423657
-28927.7985387301
-28927.7631537449
-28927.7926357676
-28927.7618953552
-28927.7969475453
-28927.8216015906
-28927.8113229038
-28927.7981365461
-28927.7627621733
-28927.8029733671
-28927.7761384664
-28927.7428532467
-28927.7824472865
-28927.7934823134
-28927.818187244
-28927.8065896221
-28927.8140213193
-28927.8270884913
-28927.7629508842
-28927.8020570242
-28927.8109415365
-28927.7969132589
-28927.812826332
-28927.8054651122
-28927.7532640447
-28927.7774269248
-28927.8395517068
-28927.8046585672
-28927.7904554566
-28927.7676543695
-28927.8004057022
-28927.7719917258
-28927.8141147904
-28927.8108916036
-28927.8197795173
-28927.7991145227
-28927.8240956487
-28927.7728094274
-28927.7817195184
-28927.7825925952
-28927.8196846857
-28927.8071492239
-28927.7995860957
-28927.8099432874
-28927.8047836034
-28927.7750287868
-28927.8033722857
-28927.7778568645
-28927.8113830409
-28927.7707284379
-28927.7667874152
-28927.8413896988
-28927.8162725159
-28927.803392014
-28927.801819741
-28927.7885732462
-28927.7640970271
-28927.7786877636
-28927.8003843413
-28927.7741882276
-28927.7565694098
-28927.8030169053
-28927.8009726511
-28927.8136411765
-28927.8379594335
-28927.8504211525
-28927.7970129886
-28927.8017756586
-28927.7955265675
-28927.7849593041
-28927.8117597823
-28927.7547590373
-28927.7955975892
-28927.8123816982
-28927.8259876553
-28927.7806505198
-28927.8091106194
-28927.8455266434
-28927.7785654485
-28927.8149417439
-28927.7665184308
-28927.8028964949
-28927.8170306247
-28927.7800715979
-28927.8309372674
-28927.7426869852
-28927.7518538154
-28927.7897788459
-28927.7877155438
-28927.770735785
-28927.7519663344
-28927.7770138562
-28927.7820184353
-28927.8391033995
-28927.8028317319
-28927.7829131452
-28927.7472308758
-28927.7734082136
-28927.7720417947
-28927.761847055
-28927.8074546715
-28927.8354568038
-28927.7998206577
-28927.7756787304
-28927.7945937617
-28927.8082225764
-28927.7797526806
-28927.7904785863
-28927.8183445257
-28927.79671965
-28927.8052070124
-28927.7867338936
-28927.8009579569
-28927.7776337312
-28927.7539816085
-28927.7668910906
-28927.7708236777
-28927.8026246534
-28927.7764220089
-28927.7486684525
-28927.7803680657
-28927.8375977944
-28927.7958242599
-28927.7846040597
-28927.7813329809
-28927.8030268374
-28927.774282515
-28927.8201320406
-28927.8015145655
-28927.7906749163
-28927.8002825707
-28927.7918813324
-28927.8019375663
-28927.7583850884
-28927.8242849038
-28927.7940544324
-28927.8225026951
-28927.7770226999
-28927.7793649186
-28927.772308058
-28927.8053636138
-28927.7761821407
-28927.7913660851
-28927.8112409976
-28927.8416033081
-28927.7466050143
-28927.8106088775
-28927.763555929
-28927.7743010187
-28927.8255854712
-28927.7837055403
-28927.8030392186
-28927.7956038478
-28927.800965304
-28927.7631292547
-28927.8431319068
-28927.7964773328
-28927.7616745349
-28927.7794992067
-28927.797942665
-28927.7916716688
-28927.8110212658
-28927.8025094132
-28927.7722496896
-28927.7476315632
-28927.77480198
-28927.7988255379
-28927.7648351355
-28927.7709375573
-28927.782817089
-28927.8080191714
-28927.7508656345
-28927.7916734375
-28927.8406400256
-28927.7873598912
-28927.772147919
-28927.7991675849
-28927.7414798888
-28927.7687379262
-28927.7969437357
-28927.7960486176
-28927.8507563966
-28927.8118460424
-28927.7765926242
-28927.8002319576
-28927.7614753477
-28927.7429253568
-28927.7869276386
-28927.8104574462
-28927.777829517
-28927.8449278572
-28927.8001080098
-28927.797195849
-28927.756163008
-28927.8157720988
-28927.8267903907
-28927.7854076114
-28927.8099345797
-28927.7933653045
-28927.7769976654
-28927.8405246494
-28927.7419162231
-28927.7714722607
-28927.7544252899
-28927.7961030404
-28927.818933924
-28927.7627235332
-28927.8337989511
-28927.8000085523
-28927.7995750751
-28927.8200807472
-28927.8032744609
-28927.7906866172
-28927.8060664835
-28927.7555451738
-28927.8000210695
-28927.8179964923
-28927.845520793
-28927.802590231
-28927.8077337241
-28927.7901613017
-28927.799902564
-28927.7988254019
-28927.8423502602
-28927.8174138968
-28927.7834987338
-28927.7807165073
-28927.756029128
-28927.8025541759
-28927.7841696302
-28927.7561254563
-28927.7458946615
-28927.7709609591
-28927.8348505345
-28927.7881442589
-28927.7780870726
-28927.7762172434
-28927.8105050661
-28927.8032098339
-28927.7784609569
-28927.7427136523
-28927.7852591734
-28927.818127515
-28927.7560167469
-28927.8405887321
-28927.762428698
-28927.8007661168
-28927.7530756059
-28927.7890576085
-28927.8185985438
-28927.8092457239
-28927.7993675884
-28927.7518189849
-28927.8035143291
-28927.760119269
-28927.8182000333
-28927.7925689637
-28927.8311993129
-28927.7770666463
-28927.7917824191
-28927.7776417586
-28927.7672040213
-28927.8095337562
-28927.8296957487
-28927.8042713494
-28927.8219462226
-28927.8329756711
-28927.7929818963
-28927.7913671736
-28927.7954043885
-28927.8176092745
-28927.7957068428
-28927.7723830253
-28927.7548948221
-28927.7839760213
-28927.7509497177
-28927.8038463078
-28927.7569615256
-28927.7808717482
-28927.7932436696
-28927.8071411965
-28927.7767115379
-28927.8419348786
-28927.7923369868
-28927.77394523
-28927.7684347916
-28927.7537029641
-28927.7768677312
-28927.8383335899
-28927.7920643289
-28927.7720782579
-28927.7888599179
-28927.7688018729
-28927.7946172996
-28927.7887514806
-28927.7798849279
-28927.7716294064
-28927.8399874969
-28927.7963446773
-28927.7835371019
-28927.7646573092
-28927.8105400327
-28927.7913150638
-28927.8000544034
-28927.8229031104
-28927.7412109044
-28927.7798620703
-28927.8196060448
-28927.7931423073
-28927.8173996109
-28927.742799096
-28927.742169561
-28927.7465930413
-28927.7448287921
-28927.7537308557
-28927.7955524183
-28927.7558738872
-28927.8041042716
-28927.8359165399
-28927.8069009201
-28927.8495731102
-28927.818936373
-28927.7990406438
-28927.7890382885
-28927.7967812838
-28927.8198282256
-28927.760449479
-28927.8089678958
-28927.799163231
-28927.8167570144
-28927.7563824677
-28927.8421608691
-28927.7943744381
-28927.7852303294
-28927.7784883043
-28927.7708756514
-28927.7897553081
-28927.8363204927
-28927.7955973171
-28927.7723060171
-28927.7467926367
-28927.7720314544
-28927.7701447541
-28927.8104637048
-28927.7773092356
-28927.8007587697
-28927.7603282524
-28927.8200350321
-28927.8404387975
-28927.7997666432
-28927.7969498582
-28927.7539073215
-28927.8418727006
-28927.7817595191
-28927.8182077886
-28927.8058131456
-28927.7965961104
-28927.8313221722
-28927.7658107992
-28927.795109009
-28927.7798819346
-28927.8209312385
-28927.7960189572
-28927.7532323434
-28927.7828896073
-28927.771075519
-28927.7637228707
-28927.7741204713
-28927.8365481158
-28927.7969414227
-28927.8051046976
-28927.7731306577
-28927.8011666682
-28927.8103960846
-28927.8010436728
-28927.8162561891
-28927.7549326459
-28927.8141097563
-28927.797435173
-28927.7696897799
-28927.8063912512
-28927.7980497418
-28927.7461367066
-28927.7914224126
-28927.7822204797
-28927.7596909621
-28927.7541992994
-28927.8391352368
-28927.7574330986
-28927.7507060398
-28927.813565801
-28927.7938054484
-28927.8026911852
-28927.7636065421
-28927.7704794539
-28927.787223154
-28927.7931907435
-28927.7649555458
-28927.7860332008
-28927.8023472334
-28927.7965038639
-28927.8204166715
-28927.8411539123
-28927.7660265853
-28927.7548199908
-28927.8034129667
-28927.7669272817
-28927.7889659062
-28927.7765622835
-28927.8151763059
-28927.7970914934
-28927.76446302
-28927.803296366
-28927.7637504903
-28927.7469213465
-28927.8055188547
-28927.7760792817
-28927.8040695771
-28927.7609183309
-28927.7865439582
-28927.7624448888
-28927.7843052788
-28927.7775589
-28927.8154210722
-28927.777781489
-28927.7562797447
-28927.7831584557
-28927.7940336157
-28927.7620120919
-28927.7776395817
-28927.7990239088
-28927.8019338927
-28927.8013691207
-28927.7929635286
-28927.7575522844
-28927.7479366027
-28927.7610994226
-28927.7956650734
-28927.7723603038
-28927.7410587929
-28927.8033147337
-28927.7649744577
-28927.7969631918
-28927.8014251762
-28927.7851715528
-28927.810260844
-28927.7983000864
-28927.8272999236
-28927.7597634804
-28927.8018191968
-28927.7958058922
-28927.7902214388
-28927.7765675897
-28927.8178339043
-28927.7902208946
-28927.8025212501
-28927.7902081053
-28927.7501453496
-28927.8061028107
-28927.7701794485
-28927.7628496579
-28927.7677275681
-28927.8410253386
-28927.7918160251
-28927.7790162049
-28927.8042308045
-28927.8038390968
-28927.7574979978
-28927.82161438
-28927.8089001395
-28927.7584740696
-28927.7734818204
-28927.7794207019
-28927.7979389915
-28927.8416208594
-28927.7749483772
-28927.7560174271
-28927.7705579587
-28927.8132773604
-28927.7999471906
-28927.794979755
-28927.7745965342
-28927.8426200609
-28927.7542688245
-28927.7509324384
-28927.7824653821
-28927.7512361173
-28927.7799548611
-28927.8169635487
-28927.741691049
-28927.8066294867
-28927.83034025
-28927.7584475385
-28927.8020796096
-28927.8010878912
-28927.7810970583
-28927.783874931
-28927.771025314
-28927.7770135841
-28927.7602272982
-28927.7837952017
-28927.8123870044
-28927.8004118248
-28927.7746882365
-28927.7804778636
-28927.753817796
-28927.7968218287
-28927.7890782892
-28927.7801681982
-28927.8097085893
-28927.7818182957
-28927.7988468989
-28927.7887414124
-28927.8293588719
-28927.8065562881
-28927.8436881072
-28927.7537260937
-28927.771391579
-28927.8513666116
-28927.7798371719
-28927.7687848658
-28927.7887291673
-28927.7817412875
-28927.7755766877
-28927.7613956183
-28927.7638987923
-28927.8131011668
-28927.8059104263
-28927.7608901671
-28927.81672749
-28927.7725058846
-28927.8194128441
-28927.7965321637
-28927.7617051477
-28927.8408242466
-28927.785736733
-28927.7702644841
-28927.7782200002
-28927.7692444659
-28927.7657161036
-28927.7641691372
-28927.7959090233
-28927.7927673346
-28927.8018330746
-28927.7516535397
-28927.7655298418
-28927.7746723178
-28927.7715356632
-28927.845004049
-28927.8026998928
-28927.8334122776