-0.0391769070568407 -0.0383148166125287 -0.276849303308409 -0.0600856213760578 0.0158403012775467 0.0668486476352827 -0.418120807466235 0.254629841275174 -0.209037778036995 -0.271577516111817 0.0644315548029008 0.13306943220316 0.49031734691234 -0.195505811984331 -0.172271793168139 0.428172530078933 -0.258852361814075 -0.230609065298351 0.118586672692976 0.12798584966068 0.0981065610491745 -0.250193662174023 0.33693518179465 -0.132136893568648 0.125866233310275 -0.15314125287602 0.15505158153729 0.0329527837416294 0.0963445849636184 0.131278145556718 0.182138653559107 -0.0372436955892649 -0.197589690019269 0.0862936336814704 -0.0743336392889687 0.0894956839032004 0.056219969771456 0.185410894860854 0.288492537955193 0.212113587158767 0.0470789314276975 -0.049350499896381 -0.0709310431243328 -0.206936930729964 -0.215188882060174 -0.173931182290593 0.166952697697836 0.0974815261937846 -0.302779122395585 -0.0370961143441009 -0.100242632451305 -0.237165889190639 0.00285006638091196 0.130037074702351 0.106805884098174 -0.229536144503805 0.249855048062732 0.139650681562854 0.274535054549312 0.0218163132659577 -0.013550477985855 0.123173775471673 0.0704489615308091 0.184849880441084 -0.120061713814067 0.219509104468695 -0.185810186975383 -0.096488052445851 -0.198110595250458 -0.300352259376241 -0.0528759947285926 0.192178549103376 0.159707332734904 -0.195781948321101 -0.162282034109596
-0.0412340456327249 -0.00201008741235631 -0.00621718134026451 -0.336950608405643 0.0304459594553063 0.0261218803940364 -0.181140294717692 -0.017399417428548 -0.352315512954429 0.4879532187777 0.0780316550541159 0.289007272541984 -0.1949319420554 0.133001040894426 0.151092856046365 0.0186731412761834 -0.0419477835013231 0.0255986611711987 -0.0819793248071625 -0.467939762116429 0.534376005017839 -0.121862256427105 -0.134255224368137 0.0638168043548394 -0.217679251294771 0.0167229605365156 -0.491061680892741 0.0866844411599536 -0.077614622336945 -0.0264468676656171 -0.0702571573341325 0.379780794055751 -0.576616379907658 -0.0482025029283367 0.0668777010859858 0.0312280886326391 0.422836208226355 -0.13215309151019 0.0309200706331504 -0.37453780319968 -0.134509506339334 0.328270054400018 -0.000624006414657043 0.0312905664071598 -0.0425702472548809 0.19175868817419 0.0754240435759734 -0.188020820330645 0.214528108889317 0.225148045006915 0.0605872433435056 0.0062313224003412 0.000973419153643002 -0.234938029453102 -0.0544582507960831 -0.131840188417221 0.0775667998428675 -0.136666146556122 -0.0555499406340039 -0.0968027553101033 0.0197550609271421 0.349844684093756 -0.0164712496671504 0.109470831147173 0.235463819777772 0.183564586635204 0.150284501630345 -0.330702830953576 0.0807922470912699 0.195044299205464 -0.0461757033540715 0.173050065692724 -0.0426964883548383 -0.0509073020557335 -0.0245321681312327
0.135738235904907 -0.010833337569664 0.0590710645931008 -0.361024863300574 0.0453184980032406 0.291574774831545 0.368963140207263 0.121466820965324 -0.132510474664856 0.0883309747732473 -0.210116355255572 -0.406727226807351 -0.0206490330341724 0.275250335079009 0.0303462007042198 0.467481591769945 -0.089571274297065 -0.420582123250129 0.0656044914587168 0.207525198829155 -0.506677782090526 -0.179367262894258 -0.213521265411857 0.277591066186977 0.178743513589784 0.170304386046196 0.746298816420663 0.0064002437907119 -0.271381598152209 0.0284145318977433 -0.101482931975123 -0.301534966219019 0.155676873502863 -0.199739645371293 0.295878799298525 -0.0260344629317441 -0.155370655274657 -0.0186026930859831 -0.288593582257195 0.252593271513946 0.016017193083597 0.0109757766111638 -0.356231043934574 -0.00202654246408192 0.277356838810071 -0.22183518029622 0.149205924411768 0.351008621893159 -0.019829879990457 -0.1644384172162 -0.239748046760644 -0.0504630156591421 0.133889099467242 -0.0878841172748237 -0.0970873762829196 0.111792793211766 0.0922614181440187 0.129712601651136 -0.0953433979101884 -0.301929373240068 0.222545575732437 -0.0227136278053698 -0.0262332091033674 0.145584784591401 0.0656553992749929 -0.0788384668090371 0.00101224279130811 -0.178430096276448 0.0171837019848326 -0.00339565418968915 -0.0582333996161941 0.244442878706106 -0.296233868461541 0.0444425236090352 -0.066443956206906
-0.118864608801029 -0.0756364165873071 -0.100839899406908 -0.250217830531245 -0.228561182689062 0.0222760262735419 0.11833084806068 0.00462798329782727 0.0233684874420124 0.114861403248408 0.0609986196366458 0.0590152716833436 -0.200090343661195 -0.0709606107954022 -0.0884813842304266 0.220445756866139 -0.255346150245604 0.0026757456766938 -0.193476698418417 0.34937365823811 0.114072074985946 -0.282803975151613 -0.385064151210588 -0.19885904299379 0.411233596988518 -0.39343077368251 -0.304563209956898 0.144366082322973 -0.0375244599093331 0.45660583102005 -0.222347600891363 -0.267663784902955 -0.195170797415605 -0.0147984908151691 0.233310264883183 0.0357833097486172 0.120555108255652 0.292021632329969 0.00295702421712841 0.00775907110899062 -0.134573783885137 0.488151450728957 0.00398546494997891 0.0971069166568438 -0.20576090875195 0.27439647216056 0.0759824868939113 -0.143017025191657 -0.210764015807084 -0.0324107954754172 -0.030138455676184 0.373200058916424 0.424213547477825 -0.182311945822592 -0.0726030306457645 0.084913466217985 0.128955669271758 -0.097270438733367 0.351674280157497 0.204533978957659 -0.166081865507295 0.0922056252342615 -0.156333532910788 -0.0366448859725627 -0.060880348952368 0.312364961356302 0.214195151202057 0.0220417988966352 -0.149124420483689 -0.201836636025576 0.0759359499507498 -0.177419139036056 0.0644714068812988 -0.222354028645943 0.0812594162941672
0.152222598191402 -0.0365471841029419 -0.0803330483040521 -0.233638594587145 0.0651136681189639 0.0862854061556076 -0.335224627745736 -0.0569797303628493 0.171086772333712 -0.281905375061285 0.125955964764216 -0.0704654165825347 0.158650352771717 -0.20284939303725 -0.185538935732094 0.106703554245255 -0.178677179162515 -0.210567840737293 0.0630806979003017 0.0294776825053276 0.588763550513539 -0.4158515529892 -0.163753732798305 0.199282503465541 0.398912619898786 0.0868693033816835 0.050974407813552 -0.16083064712536 -0.156025257801116 -0.102694435158421 0.215882822444665 -0.0876712300431237 -0.408174242918471 -0.00657302183383078 0.162823251045258 0.208469307421912 -0.318557203008795 0.0847761693801495 0.156089021126553 0.31208393992605 0.0937248893068649 0.126155739376573 -0.140472662818585 -0.0250903543389873 -0.13947353264662 -0.00335168834835979 -0.16318757617487 -0.11644854440938 0.257783811892643 0.252242059003678 0.105459398068689 -0.257975873199503 -0.28755999932068 -0.198622758735418 0.258444070843133 0.359070311687791 0.0584722549763986 0.112655397876444 -0.0459245067050728 -0.284681136599249 0.156194693411853 -0.326694226087108 0.126206132972482 0.200656243174446 0.252693287375216 -0.063445023029914 -0.111423068768306 -0.0404478026924607 0.0637345290962114 0.165890318420802 0.167172526904483 0.0789767920876055 -0.293357062621575 0.0914895733740144 -0.159510643444747
-0.0287125226000868 0.0990876935083139 -0.0266900938989363 -0.14061073098697 0.0461528205477656 -0.352101340171813 -0.0121158031635286 0.0699969618287213 0.114407860885221 0.158589160548113 0.173660188157487 0.105093787388161 0.0835641519764852 -0.188031876068523 -0.00620098339872211 0.151749258344107 0.110849455949559 -0.508788656694702 -0.166652650114027 -0.0558363613781027 -0.0808866065285089 -0.103778668801028 0.34200359483632 0.221544902899373 -0.261164296581523 0.257162376579818 0.251132628563116 -0.101904592675591 0.298118228994307 0.117893503639035 0.131631929168818 -0.0581691220703909 -0.167077139026511 -0.056114811706522 -0.193926898349222 0.178837101696473 -0.148067440520502 0.0826059023236517 0.374917812050468 0.292610157539343 -0.189840903317607 -0.194044911923317 0.027512075154667 -0.18598039391667 -0.300124459753915 0.103722875891271 0.00217772325181094 -0.0890236296068221 0.148439478955611 0.0347299293279951 0.203864464040574 -0.24131153378476 -0.373006454948465 0.444975194772244 -0.116272166823696 -0.168880766961748 0.00739628864047761 -0.00785728719897785 -0.20275657626111 -0.280237758412968 0.114120668810573 -0.217774639172743 -0.0103268305087351 0.00909964360426125 0.0763853785510054 -0.366112816716168 0.101807405026337 -0.0933551648634052 0.105956134942656 0.0834469097329402 0.0735772211299571 0.210167520182031 -0.0217306955749479 0.261051682321275 0.0454280269412892
-0.0652424803207535 0.114740047241932 -0.0123795982115047 0.0780272841810013 -0.0682609538716697 -0.167615013529792 0.0138235290004268 0.25262078230355 0.156351016403247 0.0368444034747357 -0.147952769378789 -0.0626580087591001 -0.118600299532686 -0.277781841942921 -0.108112260939077 -0.0456051758575227 -0.156208577361747 0.293418511955363 -0.0628739813129987 0.232509880882842 -0.25196129468361 0.143912539959786 -0.160015864954759 -0.306983645221661 -0.173485867453269 -0.221085189891789 -0.250111644025578 0.0092472248494253 -0.368358931276714 0.129522854335925 -0.0411484279417151 0.0644536662786571 0.335796440793201 0.167377443720503 0.073562565849514 -0.198077170926641 0.0342712447611438 -0.0842812322774652 -0.0214046798626343 -0.272064997019188 0.0919073774217349 0.0124515890628043 0.121721102936521 -0.127075422501924 0.112555382015174 -0.0796455356741415 -0.0283746798193454 0.0757261480412483 -0.340502328476542 0.207821903980582 0.0099619911587564 -0.0821269060523266 0.291650108115227 -0.209094342277302 -0.0365878075118895 -0.186939672010236 -0.126653761801456 -0.1064302461205 0.0699146865700933 0.237125265781692 0.300637651679607 0.181600779055826 -0.0520948939919926 0.275466307632908 0.205477830440233 -0.0998628807106999 0.196249888854548 0.128693159774698 0.282495957152124 0.20404906915212 -0.226567036108065 0.134650659829918 -0.157314151149561 0.137949640590719 0.0869531213014108
-0.104771114108229 0.152303845009297 0.130247905052585 0.0226984583045602 -0.181822665143938 -0.139726014846535 0.498018825340291 0.192309675296815 -0.174196777109852 -0.0414793287475097 -0.121843230273547 -0.0610929790738849 -0.165720368589698 0.114372636790121 0.243507768969762 0.638520798719762 -0.146089748991231 -0.220058548930221 -0.345900870993457 0.150629800606399 0.125561557743168 -0.485760840245446 -0.207806734479773 0.297058677929288 0.374321573535598 -0.0863694811855181 -0.33606846336704 -0.176614641272783 -0.184504581465029 0.125910970482154 -0.0681434545179415 0.0259704424961241 -0.353682310688387 0.567548103745749 -0.0245162272998735 0.269521920197032 -0.0232062509164052 0.0648439595367739 0.355957478699636 -0.119647252198728 0.127679374322291 0.132854488089994 -0.180501633022592 -0.0661945593291898 0.130631770556121 -0.120967512989525 -0.129346733860425 -0.204434477316756 -0.291710271898099 0.162314944213047 -0.0796658473786153 0.197423339730731 0.0441316773975312 -0.194577130002567 0.111714374605886 0.0300201849919062 -0.194546019670398 -0.146019043690847 -0.29204091559371 0.233538064505509 -0.0209799338399671 -0.0246573807904572 -0.100297911140696 -0.00792465006697955 0.186778978145728 -0.121278873421396 -0.35981207456636 -0.109911260891016 -0.198221666849606 0.189455238042788 0.303548138953574 0.223917001449693 0.059458272529019 0.0202003757644664 0.109139673231195
0.112872913091442 0.0326208544951019 -0.198820476466308 -0.0386194921796357 -0.176955826485907 -0.163273708086247 0.183040596081817 -0.036467479946146 -0.056322813844741 -0.0105284048923738 0.43598893675878 -0.0793814835159822 -0.0760863594079292 -0.236457550635888 0.014690761648403 -0.300927157745905 -0.421475581136793 0.232028570619868 -0.522328336052862 0.140952944640826 0.471025598535347 0.0744645083722239 -0.0948518032398859 -0.27258615936056 0.0284916649527071 -0.375559559067767 -0.377060568317362 0.12280945034206 0.098987420536861 0.205121732836483 0.260974035045945 0.0847298895471712 -0.0570535209854313 -0.101971441323227 -0.136262740678661 0.07882509707951 -0.231617965657277 -0.202546003021059 0.295479507183996 -0.0828000205119772 0.0930396906686033 -0.160808792759787 0.144274293987566 0.0186379171810832 0.315352581685232 0.0874460015226294 -0.0780781919972774 0.00883661988683474 -0.0803021950820666 0.259623692363713 -0.0681475682808729 0.267158820503125 0.248818122693835 -0.338156712275093 0.00251016671870487 -0.0210339269784417 -0.0671047293777625 -0.246096868514713 0.329637880574709 -0.0132558297158934 0.0888156274686031 0.255528184255319 -0.152232368378364 -0.0155546518639974 0.0572525242672379 -0.0145110416303374 0.0276192901010667 -0.140446437579897 0.295156833904064 -0.00292102879147864 0.0635854051899481 0.157176082981176 0.309276810945735 -0.199268362405465 -0.0549773562559894
-0.0926735657677085 -0.0826902344637455 0.213439761483778 -0.079936327291355 0.201185118821315 0.00105029509842358 0.560928544968757 -0.095201473089055 -0.179560095531667 0.251146769623192 0.129113020703884 0.00828023345036261 -0.462436318644763 0.0487637744582898 0.418636313383576 -0.0810683834280402 -0.596086819861984 0.160701577813388 -0.360765182015529 -0.000104643844567539 0.147134644775807 -0.0768941996035832 -0.0780663649288496 0.470461755903562 0.142558340624805 0.232921257175982 -0.245666208957832 0.159811462359105 0.0531467317515155 -0.12201472276575 -0.0272451947844923 0.0654563959931864 0.188777238489657 -0.093584764257014 0.0857637295938692 0.0577389767338762 -0.0686165372550527 -0.219839748164307 0.218947575828559 -0.163728793110533 -0.229581910116416 -0.0573535685692404 -0.0509217002259934 0.126062151269883 0.0806955736623819 -0.086224213932003 -0.000344784755688131 -0.1765791600675 0.188629914354676 0.215080895783224 -0.08850966635058 0.271125516409729 0.127125816097834 -0.0658122364867526 0.0392326999665978 0.155128971702437 -0.332537055000615 -0.0999757520811303 -0.0763249576579505 -0.165931713160299 0.102173272817049 0.322444194758603 -0.158752682624636 -0.00359671435296142 -0.00799047027388199 -0.481230301707056 -0.139556065015432 -0.397067854334236 0.0252237945240747 0.11447496664304 0.237547954922893 -0.0852891041956587 0.0571422239986397 -0.216439980211686 0.168149802710874
0.132925707610744 -0.0391326841053281 -0.141119294929364 0.118534479325784 0.0197190655014923 0.0698138993782739 -0.241783845191321 0.0816952180547126 0.377815186705091 -0.411218941708075 0.0241146211936954 -0.0314826277140196 0.209670269087698 -0.110824002041421 -0.221023740558001 0.176963796901586 -0.189944775831625 -0.168260874310022 0.142799767086842 0.467423484868538 -0.536654772571653 0.143636917843382 0.0665861381382226 -0.111112993887352 0.0904737310401413 -0.176188095478834 0.515631130000539 -0.14275400147423 -0.19913595066111 0.0235939730726898 0.0232939254888807 0.0604818281683885 0.381889354668278 -0.268453627385784 0.207218723490765 -0.039989889456159 -0.192662687578366 0.0772163586631486 0.340067555156729 0.378826915276033 -0.0932260955514324 -0.0808644950527526 0.0833435514392887 0.0747103057073752 -0.00741762878568426 -0.135508122290932 0.0864571557579936 -0.0276930807236487 -0.261173552548118 0.202240299013219 0.0781928631389902 -0.180805023038783 -0.0816401964755051 -0.2510593521609 -0.079838368311551 -0.320749324430865 -0.207672780074319 0.133167648293147 0.154846150500903 -0.174585527706869 0.00633468069399268 -0.302006763405215 -0.287503692190557 -0.22709565464475 -0.369949414870067 0.195640023499968 0.095086544837159 0.322136433869297 -0.0263550793302102 0.264352977073726 0.0297638461392432 0.00897134562283815 0.141882655063323 0.00818741667422286 0.321181012428479
0.0690389692860711 -0.189546769268012 0.204519580787399 0.213564459922636 -0.0840269503062679 -0.213618195950928 -0.566456156797645 0.0210434400552206 0.420013395524863 0.02815896437563 -0.0177097494196857 0.304140777925879 0.408600017381871 0.407142973973606 -0.26670065015664 -0.486049317871011 -0.514621715421247 0.113384048135669 0.218111967733118 0.104852360926124 -0.214220348000012 0.0975311484591446 -0.149332422621908 0.0129701803023441 -0.334064546599081 0.00552015563357508 0.143278763358167 -0.248625804276792 0.151696036536182 -0.278743434028136 0.0151677010382624 0.141008223330216 -0.133983716014664 0.211755432673552 -0.180607048197709 -0.125055307792423 0.0767859562164507 0.0645737367342174 0.328257970221407 0.367222247156731 -0.0513711288262491 -0.240760546662135 0.176038457352204 -0.157950498853012 -0.255741071487019 -0.08530041704372 -0.0764275446210523 -0.0380726188199424 0.266385175961838 -0.0280975150418422 0.230278421602739 0.105759188542315 0.417525340281915 0.168232592189869 -0.130531240474485 -0.176709772040572 0.046384219712657 -0.0455282999127421 -0.232753364226344 0.104666727373845 -0.331025247123324 -0.0197689448770356 -0.153548258296046 -0.00778529634767831 0.238415187570869 -0.25335868852937 -0.125990417528767 0.254272715230691 -0.283929860643901 -0.0344594494152554 0.0871953190939971 0.0437915206251409 0.141697278621226 -0.0143223227558593 0.337813727290687
-0.0517889328739696 -0.0344370808293159 -0.179072871734479 -0.0425900447389883 -0.155185278832561 0.121073956605375 0.0903166367181984 -0.0604370909965095 0.0902793557416325 -0.222043182434439 0.172585210481475 -0.154948480353822 -0.213516123208192 -0.296629561033506 -0.183637348817053 -0.131490261457868 -0.00985760442437207 -0.0698871757804895 0.267695152345306 0.0698480950326412 -0.0286544156986807 -0.255698391196605 0.129138474612022 0.214538907517012 -0.182335599959448 -0.0366703398807008 -0.125317045958933 -0.204087635679602 0.0760303093879888 -0.312565250189024 0.00171646758312749 -0.167931259055143 -0.298794171665973 0.120401356366091 0.0970619223747816 0.147612869716582 -0.144149595548708 0.183416491169673 0.337195120189878 0.539610254127682 -0.174585270596686 0.186443963577002 0.0822148377349853 -0.113022036997705 -0.245114450504658 0.059214017854967 0.192090617420718 0.222187421247221 0.419042033252686 0.148080553139846 0.183383838176405 0.0963602686847943 0.0677930133382227 0.167810674379217 -0.351173429520599 -0.0566328887256955 0.110516498262298 -0.171060547095024 -0.110921961021225 -0.0516326098825763 -0.010589082895612 -0.275314098404446 -0.116443145095533 0.127693258272184 0.355858748389282 0.232930770252761 0.205112991090254 0.0227519372226685 -0.245361019170358 -0.112191313995745 0.00916237848896513 -0.0636473687441023 0.0833368665745252 -0.0321935373706025 0.0611022350404805
0.0944090595043937 -0.0641749588400546 -0.213779146925619 -0.244575804670827 -0.348600785027373 0.0918852659459786 0.034671822426589 0.188021591661195 -0.219367950978112 0.358899847636321 -0.0485830259994914 -0.0423905272368153 -0.076318272793187 0.0102119022568391 0.0636327134636592 0.264472533308919 0.126244956610147 -0.218921093479688 0.238421358215266 0.0564125452986822 0.207496402488635 -0.288569413899973 0.0537213730109957 -0.346530790942328 -0.00528695669740123 -0.244582746645774 -0.31688341571608 0.121475562711553 -0.0939696582012833 -0.0314967687740963 0.0563924907043917 0.238011267473042 -0.31400943808813 -0.251320318996861 0.0223508453368568 0.181609777912238 -0.0491949482355374 0.0487668597804884 0.0359110935096739 0.0647359732598246 0.370689635087536 -0.0468182217019199 -0.143915111061618 -0.00690572241090792 0.284361291531332 0.0991044056702227 -0.277511619140364 0.289567515631205 -0.212464285448669 -0.0388609186416723 -0.34284305958451 -0.217409799822764 -0.0908858786638311 0.142859673759531 0.05415228967806 -0.148842370612705 0.0956457594856465 -0.0844085018181554 0.130467734259232 0.0562482518916094 0.387758665930656 -0.306061648104661 0.281908460383484 -0.1925181916554 0.00420246594461037 0.0264172999945477 0.155040525799412 0.460188918533302 0.289669845484123 0.202138997601034 -0.383988659314209 0.106650846657696 -0.365692184456432 0.343677639239218 -0.0608240418222445
-0.20038679170244 0.0765779540782317 0.16093709074121 0.0167741254629749 -0.180453296308148 -0.234088280297584 0.413323388557671 0.164004158116754 -0.206617856992598 0.20113755343742 -0.101712274258548 0.0516115268475529 -0.0717008310128714 0.0872400562658761 0.322547295942071 0.14646101609579 -0.400729103343183 -0.0222456872719228 0.0343897725556048 0.147759679631197 0.036429941859397 -0.136608810985265 -0.0378062526701341 0.368343761775904 -0.300984750426944 -0.132446968449602 0.0649398616351122 0.0905189824323867 -0.0118833755579044 0.194417207468609 -0.0615645191498968 0.139377887658465 0.0906693918895661 0.296512318789961 -0.011191234944696 -0.00159691134793362 0.116819554403756 -0.0336490381177692 -0.111602788786372 0.272701601832823 0.0734427525041369 0.0933327962774657 -0.143849290854716 -0.181199430059831 0.112271532372908 -0.402060934092225 0.0154680057322548 -0.31341242824271 -0.113237238221054 0.316617049566272 -0.148603258142317 0.106759090044829 0.0757012083534766 -0.157558662933796 -0.0450899270503646 0.111033803950922 -0.339654121982123 -0.3504949157471 -0.156667261928598 0.167066854619183 -0.0974792122021357 0.352340452642201 -0.123879800034775 -0.0351330780952725 -0.0491959766762703 -0.0770289253395866 -0.248701908891023 -0.376434505021239 -0.129794619799581 0.237004166885399 0.372518202710544 0.153274693061108 0.274891152153061 -0.258713008094773 0.0502413866812128
-0.0924784191386501 0.161646714846877 0.125574413252329 0.0342761298546248 -0.172770072703205 -0.131419299047302 0.488930751694275 0.188192827043214 -0.159581862965497 -0.064753456752283 -0.123335497776913 -0.0649491176017079 -0.173500522733712 0.114254366105843 0.23099395924262 0.618131446970634 -0.0686964985220319 -0.213942926112325 -0.373919710319236 0.127496311871843 0.102974942368306 -0.490700955305694 -0.215372715841171 0.279307276659921 0.411118411626439 -0.0864669259449557 -0.353808808898528 -0.210623376536867 -0.20230200545719 0.0867870281230554 -0.0739199490041796 0.0144274808207933 -0.368547393041009 0.570190682208808 -0.02589408077171 0.269604452565843 -0.033046628958502 0.0729028211193904 0.361790023205814 -0.163322044800691 0.130621743258976 0.13178568105838 -0.163304304198049 -0.0512965668731174 0.131874384071588 -0.0700090460073323 -0.143992758336949 -0.186919103195579 -0.246274017430947 0.141039590772568 -0.0575158050948476 0.198284144624127 0.0313653854704747 -0.186212307301927 0.125307275771971 0.019117684782958 -0.173623164291104 -0.130925133275167 -0.288954822064609 0.243493627909685 -0.00317762475432484 -0.0900129895918242 -0.0877092823502391 -0.0247630530757576 0.18314009772272 -0.108958153441847 -0.347532492216125 -0.0446561821712849 -0.188298756438698 0.197002450360812 0.256115681023959 0.212785416067502 0.0190099556161919 0.0734304112153427 0.104515032365749
0.135090061133028 -0.0340118205862822 -0.0574417573620824 0.235740470334908 -0.124398648384498 0.106960150208101 -0.318439446544883 -0.0226182399273979 0.227739201433332 0.0190084129550926 -0.0134846577789526 -0.420970102516597 0.194525965076108 0.0170600319867074 -0.144753804479258 0.178504658229579 0.082285800145552 0.0449531444328955 0.103729560756035 -0.169297028348369 0.598178411202419 0.119861682091528 0.231821082702015 0.0348034628403939 -0.112604747170351 0.247651870902783 -0.429418486026781 -0.164994289432306 -0.0341586305008966 0.032830142184237 -0.113848646236734 0.273797662543858 -0.132526158386032 0.107250427604948 -0.0724868168429524 0.229098285861793 0.190955475961834 -0.121001965754076 0.452435760958525 -0.150446223935586 0.0231723123722211 0.157383056678662 0.182055864080112 -0.100629069056674 -0.0575600280463602 -0.245829216813989 0.140417127019011 -0.106416362170607 -0.415894233279614 0.0289680901222001 -0.017043834045165 -0.382801581598317 -0.395975650275948 -0.272962825778967 0.0675870680814694 0.0217155260741384 -0.000844864062036689 0.175695729477981 0.0359193210355367 -0.187053571821399 -0.188417798453525 0.0756808966490028 -0.122367477937118 -0.02578043807073 -0.166315835774018 0.0911815553745256 0.217996525260856 0.0375319161046463 0.0917536255321737 -0.114202172738651 0.138326307009126 -0.0345556086237769 0.305256636121022 -0.0999698385469164 -0.0834016583406948
0.180616047054121 0.0419207869320858 -0.113919351537117 -0.275364492000356 0.172587267362941 0.343888212479269 0.213555718176407 0.0795622319747807 -0.102885468024548 0.00968842592381817 -0.111807191382026 -0.337672830910287 -0.239572954725876 0.0386076651112079 0.0405673589276545 0.176360873521953 0.191402590570441 -0.450833193186561 -0.432279865255754 -0.156203178047899 0.0854719095359228 0.252636466024726 0.114229940638438 -0.191488722481817 0.519236843209913 0.03595480224082 -0.0729997516584616 0.0894134086445724 -0.171746774174019 -0.163582754526468 -0.0979852050426981 -0.0123916823901157 -0.309803115490771 -0.268943165174621 0.112914564941122 0.207670980303036 -0.066280691240566 -0.0275053902899035 0.376860536594822 -0.353698765740113 -0.0392735804857286 0.0619190740925471 0.16621993367568 0.124292204768648 0.101482417754756 0.289925413006236 0.12917267026639 0.255860370612029 -0.0697678766554789 0.0104289032514705 -0.135292149737033 -0.235905792182714 -0.20201789870474 0.16270652302208 0.0131894952886245 -0.0811905107650662 0.0574263307510896 -0.0688785325317464 -0.00722376770754194 -0.0756639273769108 0.263223749149056 -0.412716865635472 -0.185846439511216 -0.249505378213563 -0.175384369046111 0.00239292447515991 0.206131404525959 0.373096957732956 0.128963382577255 0.335672770795076 -0.392262979230358 0.122759056746151 -0.357687830232657 0.365554116288047 0.192019397899968
-0.00552375517614005 0.104349710517943 -0.145137412872611 -0.516336640343275 -0.178455550184586 0.0670797896899909 -0.109948798977765 0.219853117893834 0.20090461161143 0.180752572561407 -0.405617282146422 -0.259478425110197 -0.331639226240836 0.271577516111817 -0.0480286964444849 0.0102661525054969 0.155849908656165 0.165440375600179 0.351062100811268 -0.237267190602825 -0.211418875443727 -0.137002446675764 -0.517293861555375 0.264873625194731 0.473994449820904 -0.0587193378624659 0.0758482753782743 0.142134108822505 -0.00839978968555649 0.0613650016477238 -0.114212714256163 -0.0776488179913123 0.39110186964297 -0.0394707839962527 0.166117089602395 -0.0490581656180683 0.0419889211306371 0.0719535703229694 -0.175404680750585 -0.238476379794474 -0.112162260545042 0.24701218076695 -0.0277601864814672 -0.143871659440655 -0.130658510015175 0.0965993811551821 0.297982474817571 -0.145766304380749 -0.140394501322888 -0.196915290008703 -0.00847820829143634 0.0896779750230982 0.164782944861705 0.0516323527723931 -0.0756922094970642 0.279473112728094 -0.175788546254121 0.0323357193019191 0.116695113075081 -0.00145730051844916 0.0927337295505803 -0.176306880383478 0.125855691792764 0.0955953658897368 0.0543798321902032 -0.22417925383657 0.12502471168062 0.207472234131413 0.0667254918575239 0.0711238757617423 -0.12860291410039 -0.0510710812424399 -0.0668314212530075 0.130774466707804 -0.091913548066132
-0.0578019687287633 -0.0319819356898185 0.0308732765798057 -0.120122134707122 -0.114012168313257 0.0381628644942501 -0.20312707203512 0.158927774659404 -0.0973866525361791 0.495324310620223 -0.218915179945474 0.227955431097413 0.0301536251769935 0.547324588064793 0.160369905677043 0.454116233116003 -0.125390836581515 -0.0521542864443147 0.19417398123529 -0.0443885304705606 -0.842145121849215 0.016274817487176 -0.0137163140540272 0.0481266554242889 -0.49812115519321 0.0892241755497279 0.228657599007767 -0.154670030025403 0.160392274262983 0.0772778079969365 0.0391843632521538 0.345182248031378 0.529561102616816 -0.161649285948709 0.153294233435032 0.015081312016703 -0.0609929632126152 -0.226255932786378 -0.0521234332223292 0.129069569082921 -0.0923781461671972 -0.272548107053445 -0.022908517324245 0.0498750046701348 -0.0778773889441883 -0.134137725014409 0.0516791468257378 0.128326520653437 -0.0459391619855159 0.0421899812939094 0.246875912369847 0.0138667235112066 -0.206461276891021 -0.232874977343004 -0.158465747660171 -0.155751692566178 -0.0134563756587992 0.0522409325760574 -0.023732041241075 -0.122293687314536 -0.0347163024882848 0.0979085862081008 0.0370904579200702 -0.0496364064201135 -0.226751898329795 0.19207879035229 0.0655906075088233 -0.00521702272756739 -0.13356642618731 0.142893612303715 0.04105278295356 -0.103877142001199 0.0693994377629352 -0.252098077301079 0.0398651910173008
0.0156096734432049 -0.132994613139845 0.236485575645859 -0.119729527457356 0.0867919132165365 -0.00298813454929714 -0.135308604788759 0.0353019994856432 0.145921856041593 0.298461213978713 -0.128192823358166 -0.0900708393830471 0.405980835945484 0.324265306186298 -0.0617699501862837 0.0821510744095486 0.320650337010328 0.197277301146666 -0.47483365745891 -0.103208912635029 0.50299904958912 -0.101323780771714 0.185891948013645 -0.3637736282693 0.157944071098432 -0.170099469230175 -0.60255545496143 -0.0247057175049012 -0.0607034571463178 0.181261393613985 0.0957838276540316 -0.2011455238531 -0.0732293510520705 0.14553670498714 0.0928291174285521 0.0280028984944199 -0.0128637366864941 0.145056166054716 0.141836375230344 -0.467358693102369 -0.083565180417218 0.182366710291616 0.0625644206524107 -0.369301497208371 0.00411222027030274 0.136249628059317 0.238782340912497 -0.158992566425573 -0.115464326628042 -0.200011667945132 -0.161427399860597 -0.0619967213678773 -0.255152289167462 -0.0159827403190465 -0.2077848801142 0.153719236567882 -0.1158371363937 -0.225276857208704 0.144285092615261 0.0434534207342163 0.170585921696814 0.19379062995212 0.342497760608455 0.0160878983839804 -0.306608778574537 0.128170197662044 0.204453760580497 0.0484644982050303 0.127878120493914 0.0949878145268053 0.0605826153602078 -0.301850954634188 0.0602496576729475 -0.0194267312231796 -0.313784466677819