-0.501351135930893 0.429729545083623 1.30854582196635 0.429729545083623 -0.842037622123315 0.294229238075273 1.30854582196635 0.294229238075273 0.0871073402196533
2.23743995553377 0.69634610861 -0.996954538009946 0.69634610861 2.07381764586038 0.0703956448594809 -0.996954538009946 0.0703956448594809 -1.14345358271751
-2.46160764287692 0.0559895071713182 0.247126100618232 0.0559895071713182 -2.21834288758085 -0.133216413614516 0.247126100618232 -0.133216413614516 0.366827805605188
4.2836466322128 1.11689591251586 0.0455101899836685 1.11689591251586 -0.794532066798213 -1.14723603917164 0.0455101899836685 -1.14723603917164 -0.802117098462157
3.34302340108145 -2.41120365997541 0.13256816935323 -2.41120365997541 -2.49381860609409 -0.724321736900981 0.13256816935323 -0.724321736900981 -1.42750941781811
-1.074928903369 -1.7042022293626 -0.42652872856101 -1.7042022293626 0.537464451684502 -0.294553471741684 -0.42652872856101 -0.294553471741684 -3.59010952246196
0.877197771677783 1.12809931772536 0.229833477295489 1.12809931772536 0.72397545348079 -0.084272275008346 0.229833477295489 -0.084272275008346 1.350271679111
1.17331301636479 0.0423856918883833 0.753309342198086 0.0423856918883833 -0.445049764828025 -0.97679753579138 0.753309342198086 -0.97679753579138 -0.726336629178206
3.67005407042075 0.0856155692944187 1.09587928696856 0.0856155692944187 1.33750544919947 0.391929050547783 1.09587928696856 0.391929050547783 -1.17959228805644
6.37750556795542 -0.326605588177111 -1.83788115003806 -0.326605588177111 -2.94911318081817 -0.477346628874239 -1.83788115003806 -0.477346628874239 -2.01761085240771
3.25971547980286 -0.881004183730503 -0.00574567945911198 -0.881004183730503 -0.26238602863278 0.0363893032410425 -0.00574567945911198 0.0363893032410425 -0.191522648637066
-2.5766458344266 0.0134600901798404 -1.52099019032197 0.0134600901798404 -0.0403802705395213 1.17295071567181 -1.52099019032197 1.17295071567181 -1.41523233890894
2.83438798790641 0.442339183645139 0.989093196047715 0.442339183645139 -0.318939840568169 -0.675848709775406 0.989093196047715 -0.675848709775406 -2.36926738707783
1.10871735022137 -0.512011831873062 1.71504715112368 -0.512011831873062 1.68424944695086 0.889283707990055 1.71504715112368 0.889283707990055 -1.91715708475778
-0.682672590712166 0.334605720518076 0.203840266522506 0.334605720518076 -0.521138794599992 -0.976894862202199 0.203840266522506 -0.976894862202199 0.861513579264931
1.26988364328029 -0.0096349290081964 0.770794320655712 -0.0096349290081964 -0.26785102642786 -0.951930986009804 0.770794320655712 -0.951930986009804 -0.768867334854073
1.41845090441105 -0.1271980430586 0.512646658387689 -0.1271980430586 0 -0.190797064587899 0.512646658387689 -0.190797064587899 -1.7595729289773
-1.3115842265572 -0.0115728019990341 -0.0308608053307577 -0.0115728019990341 -0.115728019990341 0.804309738932872 -0.0308608053307577 0.804309738932872 -1.90372592884112
-1.37563193519794 0.691647811429605 -0.534542214373573 0.691647811429605 1.28749952709334 -0.887071846791986 -0.534542214373573 -0.887071846791986 -0.569028808849287
1.96735213819692 0.889766781884625 -0.388917250077501 0.889766781884625 1.94268909307006 0.459112070823197 -0.388917250077501 0.459112070823197 -0.335796845188867
-0.0385304648679592 -0.107885301630286 -0.683915751406276 -0.107885301630286 -0.782168436819572 0.233109312451153 -0.683915751406276 0.233109312451153 0.870788506015878
3.06748644050617 -1.59033537159451 0.352981554129541 -1.59033537159451 -1.45413053277278 -0.379838846291571 0.352981554129541 -0.379838846291571 -1.33135434003207
-2.49049515221836 1.28269141224508 -0.272667934938325 1.28269141224508 -0.585660001099924 -1.05226780525495 -0.272667934938325 -1.05226780525495 -2.6345099065872
-3.78089376549215 0.557365798256442 -0.162804442789682 0.557365798256442 0.999810813367225 -1.02471031638212 -0.162804442789682 -1.02471031638212 -0.643556385615685
-4.9032064916023 -0.485937681833885 1.05762907222669 -0.485937681833885 -0.931856966340274 0.0476409491994005 1.05762907222669 0.0476409491994005 1.31298455993548
-4.57581560373746 -0.518376444904869 1.18159336706257 -0.518376444904869 0.211543328619266 0.0400217108198612 1.18159336706257 0.0400217108198612 0.899535595570213
-1.56656988650024 0.0580211069074164 1.01536937087979 0.0580211069074164 1.22037728195266 0.00967018448456941 1.01536937087979 0.00967018448456941 1.23584957712797
-0.837301969947707 0.151712971618965 -1.54977681134816 0.151712971618965 1.10423998330259 1.10039914857806 -1.54977681134816 1.10039914857806 -2.38515836393361
1.83403784517388 -0.679202811957547 1.37362585499537 -0.679202811957547 -0.740083736278671 0.312014737145764 1.37362585499537 0.312014737145764 -0.100834030906863
3.15488403942388 -2.11797753833508 0.318752739223593 -2.11797753833508 -2.1640622717168 -0.629824689550232 0.318752739223593 -0.629824689550232 -1.6302474433785
-2.35044546968838 1.46134722420985 -0.124819408112537 1.46134722420985 -0.433987480514358 -0.950547800241625 -0.124819408112537 -0.950547800241625 -2.93421623993778
-5.52757287281969 0.0438696259747595 -0.257495630721414 0.0438696259747595 0.0305180006780935 0.267032505933318 -0.257495630721414 0.267032505933318 1.46104928246373
-2.43109655541917 0.58847972174829 -0.245039097252567 0.58847972174829 -1.25413711192259 -0.14277868658811 -0.245039097252567 -0.14277868658811 0.339581741074423
3.28957392460785 -0.311124638774906 0.445818842146969 -0.311124638774906 2.03369276077256 0.339581160614075 0.445818842146969 0.339581160614075 0.411671015939967
-4.71387983025798 -0.276390042615207 0.945444559566501 -0.276390042615207 1.26376964313022 0.205862928292706 0.945444559566501 0.205862928292706 0.718614110799538
-2.89332191090477 0.792797407420514 2.27152002273182 0.792797407420514 -3.24697173480314 0.788911145619433 2.27152002273182 0.788911145619433 -2.15881843050047
5.59680486426182 0.415365221199962 -1.14949910053013 0.415365221199962 -2.79164067271603 -0.256946857765558 -1.14949910053013 -0.256946857765558 -0.965965630697587
-2.57962517449312 0.105095840442312 -1.15796507832802 0.105095840442312 3.73567941935856 -0.0687900046531499 -1.15796507832802 -0.0687900046531499 0.611466708027999
-0.793730612774149 0.398801234710914 1.36676539663061 0.398801234710914 -0.706613838201377 0.383313808120199 1.36676539663061 0.383313808120199 0.360082668234126
0.971121389739855 0.470084656786424 0.831837046988322 0.470084656786424 -1.26516611332642 -0.106397761824088 0.831837046988322 -0.106397761824088 -0.827968037467446
3.04094013578057 1.26041463805137 -1.28888786029651 1.26041463805137 2.70495611328796 0.503026926330743 -1.28888786029651 0.503026926330743 -0.0721321630210122
3.63526514616833 -0.0501682026541278 -1.09791181962303 -0.0501682026541278 0.0212250088152079 -0.310656947204407 -1.09791181962303 -0.310656947204407 2.33282142341694
1.32120658029764 0.937692333476846 0.809215060791879 0.937692333476846 -0.638551220956625 -0.237778833028893 0.809215060791879 -0.237778833028893 0.418030529034668
-1.17246795260439 -0.0729194471341521 -0.113217036339868 -0.0729194471341521 1.72512060456849 -0.940277081466698 -0.113217036339868 -0.940277081466698 -1.01895332705881
3.85288204911996 -0.389275909349232 1.24568290991754 -0.389275909349232 0.193688501237179 -0.0018989068748743 1.24568290991754 -0.0018989068748743 -0.0398770443723604
2.68071071755836 -0.277183969379264 0.774596297991368 -0.277183969379264 1.16569148766348 0.411978913392468 0.774596297991368 0.411978913392468 1.35364500114668
5.1063887970197 -1.47385003434947 -1.32916580322878 -1.47385003434947 1.1883398182713 -0.9587741715598 -1.32916580322878 -0.9587741715598 -1.56451881918511
-5.08627073769868 0.186687090746993 0.939150364676199 0.186687090746993 -0.240026259531848 0.843901848988957 0.939150364676199 0.843901848988957 0.567681153495958
-1.75091982967475 1.75475956614333 0.163188799914861 1.75475956614333 0.130551039931889 -0.654675067893738 0.163188799914861 -0.654675067893738 -2.99691431373057
2.61390056179254 -0.154423520221173 1.35403062242712 -0.154423520221173 -0.640292644819499 0.789066524056971 1.35403062242712 0.789066524056971 2.2994038803665
1.86290512821843 0.4259691604158 0.325629758184523 0.4259691604158 -1.78528408120933 -1.27412108871037 0.325629758184523 -1.27412108871037 0.704269011887456
0.80869862871488 0.592151365575587 0.824029408406157 0.592151365575587 -1.5254125792821 -0.615147535112504 0.824029408406157 -0.615147535112504 0.670721611493384
2.51562569074782 0.227990654000186 -0.183551797712014 0.227990654000186 -0.877184380644784 -0.423135196830854 -0.183551797712014 -0.423135196830854 -0.121723823745862
3.12441691509671 -1.19417898043267 0.220434322230749 -1.19417898043267 -0.831899963896914 -0.161012896238112 0.220434322230749 -0.161012896238112 -0.795480380224008
1.23982947348722 0.454539666567078 0.70018450764801 0.454539666567078 -1.28044791177619 -0.174079021238455 0.70018450764801 -0.174079021238455 -0.880066162927747
4.55651618593385 -1.25005185795306 -1.27898824355383 -1.25005185795306 0.293222040754422 -1.33300283000859 -1.27898824355383 -1.33300283000859 -2.74124026257917
-2.34898049861745 0.875110381837872 -0.55270129379234 0.875110381837872 -0.393415851484131 -1.1399464184467 -0.55270129379234 -1.1399464184467 -1.53144316821628
4.59288588415782 0.00950514462781006 1.15392455781614 0.00950514462781006 1.20525233880632 0.418226363623643 1.15392455781614 0.418226363623643 -0.617834400807654
1.31758191668403 -0.490087694331683 1.43256402958492 -0.490087694331683 -0.486317788990671 0.139486497617479 1.43256402958492 0.139486497617479 0.933051571900705
-2.04371419922794 -0.654296447963748 -1.05264752069462 -0.654296447963748 -1.67422914626018 0.746667711205688 -1.05264752069462 0.746667711205688 1.43560338288516
1.76623849434715 -0.352870297481749 0.737819712916385 -0.352870297481749 -0.424576561141142 -0.218892804854989 0.737819712916385 -0.218892804854989 1.19447539201041
3.06826948488699 -1.72698094834165 0.370341470033264 -1.72698094834165 -1.65406397496722 -0.450933914289208 0.370341470033264 -0.450933914289208 -1.46217720292926
-2.68493126547562 -0.0445873062136746 1.55280140335449 -0.0445873062136746 0.0678502485860265 1.14957706890039 1.55280140335449 1.14957706890039 2.0355074575808
2.54834265860235 -0.301927334364958 0.862106979884849 -0.301927334364958 0.94376028414707 0.410165435363717 0.862106979884849 0.410165435363717 1.31974526656381
0.804277497106766 0.285755063677933 0.995411678772139 0.285755063677933 -1.85267686980594 -0.951886073046361 0.995411678772139 -0.951886073046361 -0.310356493001199
2.68123678583889 1.22391912729376 -1.04934461611387 1.22391912729376 2.51425247079726 0.519928435470527 -1.04934461611387 0.519928435470527 0.115750491108402
-2.69507134253647 0.313025283410751 -0.77492844551686 0.313025283410751 1.03451038785748 -0.673767835634117 -0.77492844551686 -0.673767835634117 -0.311116592658247
3.27720265108989 -0.993091712451482 -0.116497297037578 -0.993091712451482 -0.607313777999175 0.242543552848727 -0.116497297037578 0.242543552848727 -0.725720866791467
-2.87032637151061 0.380265161524943 0.0173725200696675 0.380265161524943 -1.97081588790339 -0.21040052084375 0.0173725200696675 -0.21040052084375 0.590665682368694
-7.10475167957213 0.504374075248021 -0.049448438749806 0.504374075248021 -3.55830965243604 -0.0593381264997672 -0.049448438749806 -0.0593381264997672 1.21840953079522
1.92295477958082 -1.05581461634071 1.24639487199787 -1.05581461634071 -1.5608522938322 0.190580255657167 1.24639487199787 0.190580255657167 -1.4465041404379
-2.89322045785778 -0.141132705261355 -0.907826590600067 -0.141132705261355 0.657983558313074 -0.589324404402144 -0.907826590600067 -0.589324404402144 0.461542090179026
2.78138515875665 -0.480007124942314 0.736137409002442 -0.480007124942314 1.84413804523292 0.159369954526302 0.736137409002442 0.159369954526302 -2.34311778380932
-5.58074757265863 0.0725020197473599 -0.644886386173886 0.0725020197473599 -0.763179155235368 0.234677590234876 -0.644886386173886 0.234677590234876 1.70379746406296
3.43690180689972 -0.379768155458532 1.2684256392315 -0.379768155458532 0.0550663825414871 -0.115829287414852 1.2684256392315 -0.115829287414852 -0.347487862244557
1.33803678456472 0.500818852979733 1.68955492288257 0.500818852979733 -1.82184669536778 0.0718155336348296 1.68955492288257 0.0718155336348296 -0.997857941031316
3.24319680773112 -0.35697950811092 1.27791068595026 -0.35697950811092 -0.00379765434160553 -0.170894445372249 1.27791068595026 -0.170894445372249 -0.541165743678788
2.28928092813424 -0.376164003129111 1.04110037229673 -0.376164003129111 0.459756003824469 0.398961821500573 1.04110037229673 0.398961821500573 1.0904956454349
1.79648771011451 0.551602956207611 1.67936653448139 0.551602956207611 -1.7643738393764 0.298470092742474 1.67936653448139 0.298470092742474 -0.69705990013907
-0.597143950972325 0.848674039645555 0.232329318545503 0.848674039645555 -2.62858543048589 0.37057486346514 0.232329318545503 0.37057486346514 0.468498791116551
-0.69172865570003 0.319996358731039 -0.302751045985055 0.319996358731039 2.76116618521812 -0.3985583390183 -0.302751045985055 -0.3985583390183 1.93913961099288
-2.09876451450215 1.62447829759269 0.0249624324689185 1.62447829759269 -0.182417775734404 -0.814159335909341 0.0249624324689185 -0.814159335909341 -3.06653881945099
0.908773166889042 -0.648848638223744 1.64426331466789 -0.648848638223744 2.16411237199848 0.960758072622102 1.64426331466789 0.960758072622102 -1.5710993732658
-0.550309629383902 0.219741692288711 -0.191079732424966 0.219741692288711 1.84391941790092 -0.429929397956173 -0.191079732424966 -0.429929397956173 1.12163802933455
3.32915651605044 -0.394566698198571 0.462857088271401 -0.394566698198571 2.12079600281732 0.273161560291318 0.462857088271401 0.273161560291318 -0.559601807541243
0.605445486475545 1.37949604513415 0.304638709967125 1.37949604513415 0.967563198323259 -0.0498151349631777 0.304638709967125 -0.0498151349631777 0.528806817301425
2.63729011592378 -0.466743430587949 0.779803048665233 -0.466743430587949 1.77210717141929 0.149889150473366 0.779803048665233 0.149889150473366 -2.52914224786072
2.3177681498971 -0.281686341219142 -0.448051428650581 -0.281686341219142 0.183379698646018 -0.557701145366757 -0.448051428650581 -0.557701145366757 1.88484082010392
-2.04282012045947 0.590276635373557 -0.343363532995076 0.590276635373557 -0.974149349227603 -0.0829473703302711 -0.343363532995076 -0.0829473703302711 0.24498409376615
0.883547762788576 0.672722917003883 0.847132562153038 0.672722917003883 -1.36844490809337 -0.551977778054468 0.847132562153038 -0.551977778054468 0.551977778054468
3.93368420695906 -2.15438939452037 -0.744418478285163 -2.15438939452037 -2.23902612073367 -0.284687169990191 -0.744418478285163 -0.284687169990191 0.861755757808147
-0.315040172192731 0.219573453346449 -0.213845450215672 0.219573453346449 1.65730223917146 -0.410506891039013 -0.213845450215672 -0.410506891039013 0.631989678762388
1.03333308606971 -0.602777633540663 -0.474567787676458 -0.602777633540663 0.558765298393249 0.288950548141715 -0.474567787676458 0.288950548141715 -0.124382686286169
-0.498170976244469 0.43085057404927 -0.407769293296631 0.43085057404927 3.45834523277048 -0.348142651352312 -0.407769293296631 -0.348142651352312 1.63300061324924
-1.96346959452524 -0.0946017798738809 0.322418310998737 -0.0946017798738809 -1.99629062019577 -0.0115838914131283 0.322418310998737 -0.0115838914131283 -0.106185671287009
-1.69601633242107 -0.519654835859655 0.392120498853805 -0.519654835859655 3.04559610760237 0.87370538336843 0.392120498853805 0.87370538336843 -0.135148327274855
-5.38734620636901 0.00572107561738302 0.0400475293216811 0.00572107561738302 0.541595158445593 0.284146755663357 0.0400475293216811 0.284146755663357 1.25291556020688
2.38087023894738 -0.381710370292778 -0.294958013408056 -0.381710370292778 -2.18423156334201 0.449184425647562 -0.294958013408056 0.449184425647562 -0.640039610793951
0.915014514359839 0.0976270716157987 0.248853319804977 0.0976270716157987 -1.56969017107755 -0.694875039147744 0.248853319804977 -0.694875039147744 2.72207246740521
3.92064883424867 -2.02958023558997 -0.790670594149267 -2.02958023558997 -2.15270169063997 -0.200072364456262 -0.790670594149267 -0.200072364456262 1.05230368613053
-8.25208234994612 0.662882008270533 -0.77469343135231 0.662882008270533 -4.34467243974904 -0.245585804268902 -0.77469343135231 -0.245585804268902 -2.09646418278331
3.22907807668342 -0.288378300620376 0.466717512846134 -0.288378300620376 1.95414243183544 0.358575650113493 0.466717512846134 0.358575650113493 0.686795689635369
1.31649356807292 -0.0925207778440703 0.539704537423743 -0.0925207778440703 -0.239012009430515 -0.159983845022038 0.539704537423743 -0.159983845022038 -1.96221149677632
-4.46387665701232 0.610362903380596 -0.65437026005067 0.610362903380596 2.05877894682609 -0.799785873395264 -0.65437026005067 -0.799785873395264 0.426680023366373
-0.512013575126561 0.435019052551138 -0.400371517392198 0.435019052551138 3.46860324202279 -0.344550488525016 -0.400371517392198 -0.344550488525016 1.5341158623153
1.8557609138719 -1.00599770279709 1.31465608888256 -1.00599770279709 -1.49375416475931 0.205772257390313 1.31465608888256 0.205772257390313 -1.29179250472808
-2.14789867042354 0.0229313025312122 -1.11216817276379 0.0229313025312122 3.45880479845784 0.0477735469400253 -1.11216817276379 0.0477735469400253 0.58474821454591
-1.70257078288781 0.161417546007422 -1.59111581064459 0.161417546007422 0.734065506843277 1.17988539581616 -1.59111581064459 1.17988539581616 -2.21949125760205
4.26411513331702 1.04233925481083 -0.195201714991846 1.04233925481083 -1.14846834257338 -1.28492002683953 -0.195201714991846 -1.28492002683953 0.288064666784083
-0.888308390924687 0.393945460323122 -0.266492517277406 0.393945460323122 3.07625057987614 -0.330218988800264 -0.266492517277406 -0.330218988800264 1.18376748616703
3.83809666872403 -1.00870580791089 -1.52173782493631 -1.00870580791089 -0.777262792711449 -1.61431503101609 -1.52173782493631 -1.61431503101609 -2.83131955260647
5.92822514639954 -1.21421478902159 -1.91108528001809 -1.21421478902159 -0.189178138830073 -0.511553130509892 -1.91108528001809 -0.511553130509892 -0.279906429901639
1.06261485100807 -0.567882936680036 1.71134891765611 -0.567882936680036 1.90192658115212 0.920162860112058 1.71134891765611 0.920162860112058 -1.81722539737611
-1.82054423765313 0.135428370494919 1.0931004189947 0.135428370494919 0.975084267563418 0.0715835672616001 1.0931004189947 0.0715835672616001 1.1782268233058
3.9040244419974 -2.35972314794621 -0.61348955517102 -2.35972314794621 -2.40395593719052 -0.44617422194256 -0.61348955517102 -0.44617422194256 0.396171938448997
6.25325378115766 -0.676131857709354 -1.95112336081842 -0.676131857709354 -1.99555488289647 -0.488746742858476 -1.95112336081842 -0.488746742858476 -1.290445945571
-1.15130434188895 -0.0633217388038921 -0.0594840576642622 -0.0633217388038921 1.63677100605212 -0.967095647186715 -0.0594840576642622 -0.967095647186715 -1.28370434120618
2.78275763865147 -1.14325913961058 0.4027173263069 -1.14325913961058 -1.22342088228779 0.185135453325921 0.4027173263069 0.185135453325921 -1.42191662605991
1.5837042034311 -0.217711161785541 0.418082496526216 -0.217711161785541 0.493221747053969 -0.254317463324703 0.418082496526216 -0.254317463324703 -1.23883430998321
-1.45882385515833 0.929211525041872 -0.328856753718522 0.929211525041872 2.37273971723655 -0.592706939841523 -0.328856753718522 -0.592706939841523 -1.15291059588528
1.6824141146524 -0.252458475394575 -0.541533065541035 -0.252458475394575 -2.33379552444909 0.217769524577 -0.541533065541035 0.217769524577 -1.36057773762267
1.13748672895377 -0.444601411824571 1.70141838983948 -0.444601411824571 1.41849021867839 0.848784513483272 1.70141838983948 0.848784513483272 -1.99012060530998
-1.498471298627 -1.7220952041619 -0.33065756972254 -1.7220952041619 0.745413018449657 -0.437691233910183 -0.33065756972254 -0.437691233910183 -4.13226396381579
-1.53380506262347 0.0287948384722804 -0.330180814482148 0.0287948384722804 1.60099301905879 -0.844648595186891 -0.330180814482148 -0.844648595186891 0.710272682316249
0.95844152583705 -0.652352415789289 -0.363480818181715 -0.652352415789289 0.474438120574029 0.235306003349216 -0.363480818181715 0.235306003349216 0.019130569377985
-1.04134716974395 -0.717971338843793 -0.891208391111732 -0.717971338843793 -1.66885027018115 0.537034862030612 -0.891208391111732 0.537034862030612 1.82283876108598
1.93357918826274 -0.231498195258149 0.829218945309928 -0.231498195258149 1.46678774536516 0.180264988110854 0.829218945309928 0.180264988110854 -2.73243771452242
4.72773247553557 -0.252626926173657 1.20045276196805 -0.252626926173657 0.653410997020585 0.260224728464594 1.20045276196805 0.260224728464594 0.112067583791321
2.21843140853301 -0.812654561111918 -1.8833558312025 -0.812654561111918 -0.496836200869372 -1.48858288089932 -1.8833558312025 -1.48858288089932 0.803025952567938
0.149316675261774 -1.4855094872197 -0.970558389201531 -1.4855094872197 0.671925038677983 -0.0287147452426488 -0.970558389201531 -0.0287147452426488 -1.68268407121922
-1.48708853610055 0.676471975829246 -0.567239957069282 0.676471975829246 1.04249505623544 -0.933263037475475 -0.567239957069282 -0.933263037475475 -0.578738064307173
-2.27935898064504 0.265893101715144 -0.42966783827882 0.265893101715144 0.385352321326296 1.25046828270383 -0.42966783827882 1.25046828270383 -1.7013304986556
-2.04610990913293 0.243538855163901 0.201351021985903 0.243538855163901 0.711440277683523 -1.12756572312105 0.201351021985903 -1.12756572312105 -2.00583970473575
-2.88042979849229 -0.0286135410446254 -0.892742480592312 -0.0286135410446254 0.707708248503735 -0.623775194772833 -0.892742480592312 -0.623775194772833 0.274689994028404
4.52954083812331 0.164043873557938 -1.17918596169294 0.164043873557938 -0.806709872320214 -0.192992792421104 -1.17918596169294 -0.192992792421104 1.7311453480173
1.13545385594981 -0.369503627698922 1.66469082270608 -0.369503627698922 1.10273738891397 0.802515691408596 1.66469082270608 0.802515691408596 -2.03804344652687
-1.66119383584005 -0.0554368483767105 -0.974923885245599 -0.0554368483767105 2.4258400203464 0.286742319189882 -0.974923885245599 0.286742319189882 0.77038103089015
4.60387603379014 -0.294389762886746 1.20604838343925 -0.294389762886746 0.550793749917138 0.212720344795584 1.20604838343925 0.212720344795584 0.151943103425417
-2.7972894657283 0.250964548340013 0.119690784592929 0.250964548340013 -2.15250362614703 -0.198841142146318 0.119690784592929 -0.198841142146318 0.584940447284799
-4.23262895511101 0.571769459937934 -1.00731196801146 0.571769459937934 -0.886434531850086 1.36418820810695 -1.00731196801146 1.36418820810695 1.97625014676534
-2.0338848555741 0.164647821641712 1.50120072673326 0.164647821641712 -0.0484258298946213 0.817428008621208 1.50120072673326 0.817428008621208 1.67359668115811
6.06893005213424 -1.01953390630827 -1.96376133090058 -1.01953390630827 -0.899815909734189 -0.496250405153834 -1.96376133090058 -0.496250405153834 -0.592797176584541
2.46504730223061 0.772229324618541 -1.08416432274032 0.772229324618541 2.1854470295239 0.131240944331722 -1.08416432274032 0.131240944331722 -1.1145970054839
1.00699677504619 -0.254642862655358 0.765857700561948 -0.254642862655358 1.06101192773066 -0.679047633747621 0.765857700561948 -0.679047633747621 -0.208344160354384
1.98980144324423 -0.307720716554847 0.411552860177649 -0.307720716554847 -0.319047859495517 -0.326599288122629 0.411552860177649 -0.326599288122629 1.43288358199466
-2.51313709457918 1.10585711724798 -0.405096964825215 1.10585711724798 -0.612445174309212 -1.11737646221931 -0.405096964825215 -1.11737646221931 -2.22131368863874
-1.29341968937561 -0.723699111912543 -0.925795938377483 -0.723699111912543 -1.70723700070858 0.585118430908014 -0.925795938377483 0.585118430908014 1.79192519465579
0.0211990456352064 -0.483723677676074 0.849889011375094 -0.483723677676074 0.815199663972028 0.664879158558747 0.849889011375094 0.664879158558747 -0.890359916678669
2.54428126779467 -0.449104193481938 -0.354657388844105 -0.449104193481938 -2.07975718784125 0.447176707673002 -0.354657388844105 0.447176707673002 -0.300687786193915
-1.6118673145477 0.0925474056199635 -0.185094811239927 0.0925474056199635 0.171598314587016 0.996812681365023 -0.185094811239927 0.996812681365023 -1.9512078018209
-3.05291172546112 0.444617401322649 0.0670759010616066 0.444617401322649 0.67842482788025 -1.10196123172639 0.0670759010616066 -1.10196123172639 -1.36068256439259
2.02325798505373 -0.0211758685400485 -0.637201135159642 -0.0211758685400485 -1.47653556092884 0.277211369978817 -0.637201135159642 0.277211369978817 -0.130905369156664
-0.215652659709563 -0.554535410681734 -0.781740891447166 -0.554535410681734 -1.32472348107303 0.375466684315757 -0.781740891447166 0.375466684315757 1.59236383553401
-0.148703510653549 -0.227883302040504 0.786004270597331 -0.227883302040504 1.72071205184821 -0.332168880940395 0.786004270597331 -0.332168880940395 0.807247629262123
1.02977304997509 0.166524638192998 0.156954256687653 0.166524638192998 -1.20969622227557 -0.591449577030303 0.156954256687653 -0.591449577030303 2.94959157994724
-3.31236300286925 0.481168361834581 -0.725601889646547 0.481168361834581 0.244433527811967 1.46852584031914 -0.725601889646547 1.46852584031914 -0.810287521329434
0.251093069501367 1.59281176149341 0.36418078782641 1.59281176149341 1.07529169458219 -0.0651691936110419 0.36418078782641 -0.0651691936110419 -0.33542967299801
-0.273635830350022 0.0924966187098665 -0.637841266520121 0.0924966187098665 -0.63976827940991 0.179212198750366 -0.637841266520121 0.179212198750366 0.595446982944766
1.64316620360211 -0.267760964010192 0.348667154574423 -0.267760964010192 0.730082052948653 -0.290877018457115 0.348667154574423 -0.290877018457115 -0.934273867229807
-1.27955040723061 0.71447949385781 -0.498028601616704 0.71447949385781 1.52090272955255 -0.838986644261986 -0.498028601616704 -0.838986644261986 -0.588056848832031
-4.55303835357276 -0.493611106561467 1.17971148633802 -0.493611106561467 0.453588584407835 0.0609867004245828 1.17971148633802 0.0609867004245828 0.829037958896672
1.38128635836352 -0.326029880675188 -0.233429677879868 -0.326029880675188 -3.01915244530574 0.233429677879868 -0.233429677879868 0.233429677879868 -2.61209738718464
-1.44440946869171 0.0385690111800188 -0.107993231304053 0.0385690111800188 0.0404974617390198 0.902514861612441 -0.107993231304053 0.902514861612441 -1.94773506459095
6.13550173675085 -0.909606961916792 -1.97178069663916 -0.909606961916792 -1.26881480675017 -0.492462367916735 -1.97178069663916 -0.492462367916735 -0.805320813416778
3.42929810594575 0.833127763425669 0.631962517587125 0.833127763425669 -0.438388413100978 -0.871083470187659 0.631962517587125 -0.871083470187659 -2.1805553534763
0.660729778388238 -0.782243300850443 -1.19994603431427 -0.782243300850443 1.36512847891133 -0.744270325081004 -1.19994603431427 -0.744270325081004 -0.197459474001083
2.22731114040233 0.230809444601278 -0.557789491119755 0.230809444601278 -0.800139407951096 0.328903458556821 -0.557789491119755 0.328903458556821 0.62318550042345
2.1145691571809 -1.1306938775548 1.0601446811475 -1.1306938775548 -1.6035641669875 0.169699418385122 1.0601446811475 0.169699418385122 -1.63788539767213
-3.55368167659135 0.524910393200016 -0.0747135231197102 0.524910393200016 0.858247650195646 -1.05556798048616 -0.0747135231197102 -1.05556798048616 -0.892730814712435
5.00798521051544 -1.43912055741314 -1.29250773923164 -1.43912055741314 1.06873027990198 -1.03400619138531 -1.29250773923164 -1.03400619138531 -1.84230580741227
0.27050383158356 -0.00959233445331772 -1.34868222413647 -0.00959233445331772 1.23549267758732 0.897842504830539 -1.34868222413647 0.897842504830539 -2.01439023519672
-1.50102695843806 0.774415182378874 0.290644710423676 0.774415182378874 1.32702255943442 0.961804535152034 0.290644710423676 0.961804535152034 1.23141574679505
-1.83155316829849 0.19178567207314 0.201374955676797 0.19178567207314 0.792074825662067 -1.12002832490714 0.201374955676797 -1.12002832490714 -2.07320311511064
-1.23767182659916 0.305574255324947 -0.0403588639108421 0.305574255324947 0.0249840586114737 -0.926332019286946 -0.0403588639108421 -0.926332019286946 1.33568621038263
-1.76281196300927 -0.662482249597435 0.119932131392639 -0.662482249597435 2.62137372901054 0.624408557091835 0.119932131392639 0.624408557091835 0.245575316661118
-2.80005535829124 0.379374763124742 -0.583505346328918 0.379374763124742 0.371671722249113 1.37884431673764 -0.583505346328918 1.37884431673764 -1.32492303060824
1.86837239661212 -0.384221742851685 1.52370289199516 -0.384221742851685 -0.519829416799339 0.580099494109408 1.52370289199516 0.580099494109408 1.74783224199198
-6.19156636616427 0.172751376100969 0.514327960664248 0.172751376100969 -2.60697531206916 -0.188456046655602 0.514327960664248 -0.188456046655602 2.20061696146802
5.19903683112089 -1.50280136973773 -1.3754780187715 -1.50280136973773 1.26551694293703 -0.887405173400967 -1.3754780187715 -0.887405173400967 -1.2867375014314
1.80762935871196 -0.948576839450534 1.36381730330639 -0.948576839450534 -1.39810321316605 0.224763186857757 1.36381730330639 0.224763186857757 -1.10286343381899
2.0396461904233 -0.33523270719792 1.48783055441774 -0.33523270719792 -0.542398986926972 0.638448807528624 1.48783055441774 0.638448807528624 1.90404644369156
-1.49933942663608 0.837641159268625 0.254352224161477 0.837641159268625 1.19143936580903 0.958123791766167 0.254352224161477 0.958123791766167 1.39224375330493
3.4159020534623 -0.0366678751501602 -0.978453300059539 -0.0366678751501602 -0.0598265331397351 -0.362818975170006 -0.978453300059539 -0.362818975170006 1.94146749479269