10.260333 0.000000 0.000000 0.000000 6.239928 0.000000 0.000000 0.000000 4.977081
10.568143 0.000000 0.000000 0.000000 6.280622 0.000000 0.000000 0.000000 4.819355
10.260333 0.000000 0.000000 0.000000 6.239928 0.000000 0.000000 0.000000 4.977081
10.619445 0.000000 0.000000 0.000000 6.280622 0.000000 0.000000 0.000000 4.819355
10.619445 0.000000 0.000000 0.000000 6.207563 0.000000 0.000000 0.000000 4.985316
10.619445 0.000000 0.000000 0.000000 6.311467 0.000000 0.000000 0.000000 4.971174
10.670747 0.000000 0.000000 0.000000 6.311467 0.000000 0.000000 0.000000 4.971174
10.670747 0.000000 0.000000 0.000000 6.180523 0.000000 0.000000 0.000000 4.794271
10.670747 0.000000 0.000000 0.000000 6.014480 0.000000 0.000000 0.000000 4.942719
10.722048 0.000000 0.000000 0.000000 6.014480 0.000000 0.000000 0.000000 4.942719
10.722048 0.000000 0.000000 0.000000 6.061396 0.000000 0.000000 0.000000 4.871971
10.722048 0.000000 0.000000 0.000000 6.196651 0.000000 0.000000 0.000000 4.989710
10.773350 0.000000 0.000000 0.000000 6.196651 0.000000 0.000000 0.000000 4.989710
10.311635 0.000000 0.000000 0.000000 6.239928 0.000000 0.000000 0.000000 4.977081
10.773350 0.000000 0.000000 0.000000 6.385506 0.000000 0.000000 0.000000 4.794473
10.773350 0.000000 0.000000 0.000000 6.320503 0.000000 0.000000 0.000000 4.889124
10.824652 0.000000 0.000000 0.000000 6.320503 0.000000 0.000000 0.000000 4.889124
10.824652 0.000000 0.000000 0.000000 6.132199 0.000000 0.000000 0.000000 4.883838
10.824652 0.000000 0.000000 0.000000 6.202374 0.000000 0.000000 0.000000 4.831246
10.875953 0.000000 0.000000 0.000000 6.202374 0.000000 0.000000 0.000000 4.831246
10.875953 0.000000 0.000000 0.000000 6.204394 0.000000 0.000000 0.000000 4.946046
10.875953 0.000000 0.000000 0.000000 5.997829 0.000000 0.000000 0.000000 4.962691
10.927255 0.000000 0.000000 0.000000 5.997829 0.000000 0.000000 0.000000 4.962691
10.927255 0.000000 0.000000 0.000000 6.089340 0.000000 0.000000 0.000000 4.883684
10.311635 0.000000 0.000000 0.000000 6.221666 0.000000 0.000000 0.000000 4.963013
10.927255 0.000000 0.000000 0.000000 6.181099 0.000000 0.000000 0.000000 4.952226
10.978557 0.000000 0.000000 0.000000 6.181099 0.000000 0.000000 0.000000 4.952226
10.978557 0.000000 0.000000 0.000000 6.033548 0.000000 0.000000 0.000000 4.934588
10.978557 0.000000 0.000000 0.000000 6.274296 0.000000 0.000000 0.000000 4.813506
11.029858 0.000000 0.000000 0.000000 6.274296 0.000000 0.000000 0.000000 4.813506
11.029858 0.000000 0.000000 0.000000 6.103669 0.000000 0.000000 0.000000 4.885019
11.029858 0.000000 0.000000 0.000000 5.917108 0.000000 0.000000 0.000000 4.906308
11.081160 0.000000 0.000000 0.000000 5.917108 0.000000 0.000000 0.000000 4.906308
11.081160 0.000000 0.000000 0.000000 6.009554 0.000000 0.000000 0.000000 4.870994
11.081160 0.000000 0.000000 0.000000 5.903455 0.000000 0.000000 0.000000 4.999506
10.311635 0.000000 0.000000 0.000000 6.227881 0.000000 0.000000 0.000000 4.951202
11.132462 0.000000 0.000000 0.000000 5.903455 0.000000 0.000000 0.000000 4.999506
11.132462 0.000000 0.000000 0.000000 5.930158 0.000000 0.000000 0.000000 4.920440
11.132462 0.000000 0.000000 0.000000 6.100181 0.000000 0.000000 0.000000 4.910909
11.183763 0.000000 0.000000 0.000000 6.100181 0.000000 0.000000 0.000000 4.910909
11.183763 0.000000 0.000000 0.000000 6.059675 0.000000 0.000000 0.000000 4.934676
11.183763 0.000000 0.000000 0.000000 6.066422 0.000000 0.000000 0.000000 4.811339
11.235065 0.000000 0.000000 0.000000 6.066422 0.000000 0.000000 0.000000 4.811339
11.235065 0.000000 0.000000 0.000000 6.001215 0.000000 0.000000 0.000000 4.829783
11.235065 0.000000 0.000000 0.000000 5.998914 0.000000 0.000000 0.000000 4.907197
11.286367 0.000000 0.000000 0.000000 5.998914 0.000000 0.000000 0.000000 4.907197
10.362937 0.000000 0.000000 0.000000 6.227881 0.000000 0.000000 0.000000 4.951202
11.286367 0.000000 0.000000 0.000000 6.039724 0.000000 0.000000 0.000000 4.859128
11.286367 0.000000 0.000000 0.000000 6.018986 0.000000 0.000000 0.000000 4.852789
11.337668 0.000000 0.000000 0.000000 6.018986 0.000000 0.000000 0.000000 4.852789
11.337668 0.000000 0.000000 0.000000 6.017618 0.000000 0.000000 0.000000 4.866530
11.337668 0.000000 0.000000 0.000000 6.016652 0.000000 0.000000 0.000000 4.887057
11.388970 0.000000 0.000000 0.000000 6.016652 0.000000 0.000000 0.000000 4.887057
11.388970 0.000000 0.000000 0.000000 6.006236 0.000000 0.000000 0.000000 4.912530
11.388970 0.000000 0.000000 0.000000 5.979602 0.000000 0.000000 0.000000 4.895918
11.440272 0.000000 0.000000 0.000000 5.979602 0.000000 0.000000 0.000000 4.895918
11.440272 0.000000 0.000000 0.000000 5.927262 0.000000 0.000000 0.000000 4.847805
10.362937 0.000000 0.000000 0.000000 6.280706 0.000000 0.000000 0.000000 4.965575
11.440272 0.000000 0.000000 0.000000 5.978905 0.000000 0.000000 0.000000 4.825863
11.491573 0.000000 0.000000 0.000000 5.978905 0.000000 0.000000 0.000000 4.825863
11.491573 0.000000 0.000000 0.000000 6.014940 0.000000 0.000000 0.000000 4.910795
11.491573 0.000000 0.000000 0.000000 5.965548 0.000000 0.000000 0.000000 4.897813
11.542875 0.000000 0.000000 0.000000 5.965548 0.000000 0.000000 0.000000 4.897813
11.542875 0.000000 0.000000 0.000000 5.851998 0.000000 0.000000 0.000000 4.830612
11.542875 0.000000 0.000000 0.000000 5.940429 0.000000 0.000000 0.000000 4.886631
11.594177 0.000000 0.000000 0.000000 5.940429 0.000000 0.000000 0.000000 4.886631
11.594177 0.000000 0.000000 0.000000 5.981032 0.000000 0.000000 0.000000 4.905245
11.594177 0.000000 0.000000 0.000000 6.016734 0.000000 0.000000 0.000000 4.908775
10.362937 0.000000 0.000000 0.000000 6.297702 0.000000 0.000000 0.000000 4.997858
11.645478 0.000000 0.000000 0.000000 6.016734 0.000000 0.000000 0.000000 4.908775
11.645478 0.000000 0.000000 0.000000 5.944029 0.000000 0.000000 0.000000 4.849280
11.645478 0.000000 0.000000 0.000000 5.879938 0.000000 0.000000 0.000000 4.874893
11.696780 0.000000 0.000000 0.000000 5.879938 0.000000 0.000000 0.000000 4.874893
11.696780 0.000000 0.000000 0.000000 5.831912 0.000000 0.000000 0.000000 4.863206
11.696780 0.000000 0.000000 0.000000 5.892507 0.000000 0.000000 0.000000 4.926987
11.748082 0.000000 0.000000 0.000000 5.892507 0.000000 0.000000 0.000000 4.926987
11.748082 0.000000 0.000000 0.000000 5.861765 0.000000 0.000000 0.000000 4.889417
11.748082 0.000000 0.000000 0.000000 6.010483 0.000000 0.000000 0.000000 4.930260
11.799383 0.000000 0.000000 0.000000 6.010483 0.000000 0.000000 0.000000 4.930260
10.414238 0.000000 0.000000 0.000000 6.297702 0.000000 0.000000 0.000000 4.997858
11.799383 0.000000 0.000000 0.000000 5.846656 0.000000 0.000000 0.000000 4.860175
11.799383 0.000000 0.000000 0.000000 5.833850 0.000000 0.000000 0.000000 4.969219
11.850685 0.000000 0.000000 0.000000 5.833850 0.000000 0.000000 0.000000 4.969219
11.850685 0.000000 0.000000 0.000000 5.822204 0.000000 0.000000 0.000000 4.976615
11.850685 0.000000 0.000000 0.000000 5.728039 0.000000 0.000000 0.000000 4.831008
11.901987 0.000000 0.000000 0.000000 5.728039 0.000000 0.000000 0.000000 4.831008
11.901987 0.000000 0.000000 0.000000 5.866114 0.000000 0.000000 0.000000 4.955452
11.953288 0.000000 0.000000 0.000000 5.852426 0.000000 0.000000 0.000000 4.996017
11.901987 0.000000 0.000000 0.000000 5.852426 0.000000 0.000000 0.000000 4.996017
11.953288 0.000000 0.000000 0.000000 5.683798 0.000000 0.000000 0.000000 4.884456
10.414238 0.000000 0.000000 0.000000 6.281971 0.000000 0.000000 0.000000 4.892876
10.260333 0.000000 0.000000 0.000000 6.239928 0.000000 0.000000 0.000000 4.977081
11.953288 0.000000 0.000000 0.000000 5.792023 0.000000 0.000000 0.000000 4.948840
12.004590 0.000000 0.000000 0.000000 5.792023 0.000000 0.000000 0.000000 4.948840
12.004590 0.000000 0.000000 0.000000 5.791731 0.000000 0.000000 0.000000 4.908166
12.055892 0.000000 0.000000 0.000000 5.778126 0.000000 0.000000 0.000000 4.929597
12.055892 0.000000 0.000000 0.000000 5.709830 0.000000 0.000000 0.000000 4.897178
12.107193 0.000000 0.000000 0.000000 5.709830 0.000000 0.000000 0.000000 4.897178
12.107193 0.000000 0.000000 0.000000 5.797367 0.000000 0.000000 0.000000 4.931302
12.107193 0.000000 0.000000 0.000000 5.846144 0.000000 0.000000 0.000000 4.875048
10.414238 0.000000 0.000000 0.000000 6.403876 0.000000 0.000000 0.000000 4.941430
12.158495 0.000000 0.000000 0.000000 5.846144 0.000000 0.000000 0.000000 4.875048
12.209797 0.000000 0.000000 0.000000 5.689593 0.000000 0.000000 0.000000 4.976227
12.209797 0.000000 0.000000 0.000000 5.728788 0.000000 0.000000 0.000000 4.898638
12.209797 0.000000 0.000000 0.000000 5.827131 0.000000 0.000000 0.000000 4.825392
12.261098 0.000000 0.000000 0.000000 5.827131 0.000000 0.000000 0.000000 4.825392
12.261098 0.000000 0.000000 0.000000 5.776603 0.000000 0.000000 0.000000 4.878115
10.465540 0.000000 0.000000 0.000000 6.403876 0.000000 0.000000 0.000000 4.941430
12.312400 0.000000 0.000000 0.000000 5.734629 0.000000 0.000000 0.000000 4.897615
12.363702 0.000000 0.000000 0.000000 5.734629 0.000000 0.000000 0.000000 4.897615
12.363702 0.000000 0.000000 0.000000 5.570689 0.000000 0.000000 0.000000 4.947714
12.415003 0.000000 0.000000 0.000000 5.570689 0.000000 0.000000 0.000000 4.947714
12.415003 0.000000 0.000000 0.000000 5.685740 0.000000 0.000000 0.000000 4.982213
10.465540 0.000000 0.000000 0.000000 6.266494 0.000000 0.000000 0.000000 4.834964
10.465540 0.000000 0.000000 0.000000 6.391041 0.000000 0.000000 0.000000 4.937744
10.516842 0.000000 0.000000 0.000000 6.391041 0.000000 0.000000 0.000000 4.937744
10.516842 0.000000 0.000000 0.000000 6.386011 0.000000 0.000000 0.000000 4.865636
10.516842 0.000000 0.000000 0.000000 6.289204 0.000000 0.000000 0.000000 5.031769
10.568143 0.000000 0.000000 0.000000 6.289204 0.000000 0.000000 0.000000 5.031769
10.568143 0.000000 0.000000 0.000000 6.205672 0.000000 0.000000 0.000000 4.886539