5.20318 -0.010599 2.47346 0.0730118 3.10936 -0.015076 2.95908 4.70549 4.93306 2.31711 1.58552 2.44452 7.44728 1.51324 0.0138719 8.08924 4.63321 2.50241 1.18763 4.70432 2.20487 4.08856 1.58436 4.69341 9.21873 1.51441 2.74206 6.3178 4.63437 0.253515 1.34738 4.66271 3.73815 3.92881 1.54275 1.24961 9.05897 1.55602 1.20878 6.47755 4.67598 3.69732 4.81604 4.67159 0.649269 0.46015 1.55162 3.13781 5.59032 1.54714 4.29766 9.94621 4.66711 1.80912 1.94649 5.90505 1.5393 3.38931 0.348793 3.98073 8.51947 2.74997 3.45474 7.07666 3.43365 0.919089 8.45986 0.313682 3.40763 7.01705 5.86994 0.966202 1.88688 3.46876 1.49219 3.3297 2.78508 4.02784
5.35708 -0.0309462 2.47346 0.0730127 3.10936 0.0637864 3.03592 4.72769 4.90612 2.39417 1.58737 2.49644 7.67825 1.49104 0.0408087 8.31999 4.63136 2.45049 1.18296 4.70024 2.2185 4.24713 1.55993 4.62818 9.5312 1.51848 2.72843 6.46704 4.6588 0.318752 1.4451 4.71794 3.7657 3.985 1.57762 1.35602 9.26907 1.50079 1.18123 6.72917 4.64111 3.5909 4.90316 4.7685 0.695147 0.526938 1.62818 3.10482 5.81101 1.45023 4.25178 10.1872 4.59054 1.8421 1.90905 5.94399 1.55609 3.48358 0.359166 3.86154 8.76765 2.71925 3.49507 7.19312 3.41505 0.981165 8.80512 0.274742 3.39084 7.23059 5.85956 1.08539 1.94652 3.49948 1.45186 3.52105 2.80368 3.96576
5.20318 -0.010599 2.47346 0.0730118 3.10936 -0.015076 2.95908 4.70549 4.93306 2.31711 1.58552 2.44452 7.44728 1.51324 0.0138719 8.08924 4.63321 2.50241 1.18763 4.70432 2.20487 4.08856 1.58436 4.69341 9.21873 1.51441 2.74206 6.3178 4.63437 0.253515 1.34738 4.66271 3.73815 3.92881 1.54275 1.24961 9.05897 1.55602 1.20878 6.47755 4.67598 3.69732 4.81604 4.67159 0.649269 0.46015 1.55162 3.13781 5.59032 1.54714 4.29766 9.94621 4.66711 1.80912 1.94649 5.90505 1.5393 3.38931 0.348793 3.98073 8.51947 2.74997 3.45474 7.07666 3.43365 0.919089 8.45986 0.313682 3.40763 7.01705 5.86994 0.966202 1.88688 3.46876 1.49219 3.3297 2.78508 4.02784
5.38274 -0.0309462 2.47346 0.0730128 3.10936 0.0637864 3.05031 4.72769 0.0867641 2.40544 1.58737 2.49644 7.71517 1.49104 4.86016 8.36003 4.63136 2.45049 1.18835 4.70024 2.2185 4.2674 1.55993 4.62818 9.57712 1.51848 2.72843 6.49808 4.6588 0.318752 1.45176 4.71794 3.7657 4.00399 1.57762 1.35602 9.31371 1.50079 1.18123 6.76148 4.64111 3.5909 4.92661 4.7685 0.695147 0.529141 1.62818 3.10482 5.83886 1.45023 4.25178 10.2363 4.59054 1.8421 1.91796 5.94399 1.55609 3.50014 0.359166 3.86154 8.80986 2.71925 3.49507 7.22768 3.41505 0.981165 8.84751 0.274742 3.39084 7.26533 5.85956 1.08539 1.95561 3.49948 1.45186 3.53779 2.80368 3.96576
5.38274 0.00558312 2.47346 0.0730128 3.10936 -0.0191936 3.18835 4.52233 0.164805 2.2674 1.41855 2.65746 7.57712 1.69639 4.78212 8.49807 4.80018 2.28947 1.27327 4.64153 2.2582 4.18247 1.53775 4.75086 9.4922 1.5772 2.68873 6.583 4.68098 0.196069 1.50165 4.54699 3.77494 3.9541 1.44321 1.28228 9.26382 1.67174 1.17199 6.81137 4.77552 3.66465 5.06932 4.80523 0.532482 0.386427 1.70144 3.02514 5.69615 1.4135 4.41445 10.379 4.51729 1.92179 1.84728 5.87162 1.57689 3.4443 0.387831 4.03766 8.75402 2.72712 3.40193 7.157 3.45089 0.877379 8.91819 0.347109 3.37004 7.32117 5.8309 0.909271 2.01145 3.49161 1.545 3.60847 2.76784 4.06955
5.38274 -0.0463686 2.47346 0.0730128 3.10936 -0.0121227 3.18121 4.57494 0.000967563 2.27454 1.41921 2.48655 7.58426 1.64379 4.94596 8.49093 4.79952 2.46037 1.33439 4.73427 2.23242 4.12136 1.57853 4.718 9.43108 1.48446 2.71451 6.64411 4.6402 0.228926 1.52732 4.69009 3.75113 3.92843 1.53436 1.26554 9.23815 1.52864 1.1958 6.83705 4.68437 3.68139 5.08333 4.8232 0.609666 0.372417 1.66747 3.09525 5.68214 1.39553 4.33726 10.3931 4.55126 1.85168 1.99557 6.0715 1.59374 3.37868 0.449819 3.95856 8.68841 2.61318 3.47396 7.30529 3.30297 0.867601 8.7699 0.147234 3.35319 7.38679 5.76891 0.988373 2.07706 3.60555 1.47297 3.46018 2.91576 4.07933
5.40839 -0.0463686 2.47346 0.073013 3.10936 -0.0121227 3.19622 4.57494 0.000967563 2.28518 1.41921 2.48655 7.62055 1.64379 4.94596 8.5316 4.79952 2.46037 1.34049 4.73427 2.23242 4.14091 1.57853 4.718 9.47629 1.48446 2.71451 6.67586 4.6402 0.228926 1.53435 4.69009 3.75113 3.94705 1.53436 1.26554 9.28242 1.52864 1.1958 6.86972 4.68437 3.68139 5.10754 4.8232 0.609666 0.373863 1.66747 3.09525 5.70924 1.39553 4.33726 10.4429 4.55126 1.85168 2.00485 6.0715 1.59374 3.39465 0.449819 3.95856 8.73003 2.61318 3.47396 7.34023 3.30297 0.867601 8.81192 0.147234 3.35319 7.42212 5.76891 0.988373 2.08674 3.60555 1.47297 3.47654 2.91576 4.07933
5.40839 0.0191029 2.47346 0.073013 3.10936 0.0763284 3.11219 4.62436 0.0416948 2.36921 1.53409 2.43883 7.70458 1.59437 4.90523 8.44756 4.68463 2.5081 1.23169 4.68087 2.2764 4.24971 1.59061 4.67353 9.58508 1.53786 2.67053 6.56706 4.62812 0.273393 1.43179 4.57517 3.75204 4.04961 1.48491 1.3549 9.38498 1.64356 1.19489 6.76716 4.73382 3.59203 5.05627 4.72826 0.62836 0.425131 1.638 3.0255 5.7605 1.49047 4.31857 10.3916 4.58073 1.92143 1.81979 5.93477 1.60992 3.35438 0.465895 3.95026 8.68975 2.66257 3.39381 7.15516 3.37422 0.939874 8.99698 0.283955 3.33701 7.4624 5.75283 0.99667 2.12702 3.55616 1.55312 3.66161 2.84451 4.00705
5.40839 0.102124 2.47346 0.073013 3.10936 0.00210507 2.9932 4.68789 -0.00319529 2.4882 1.68065 2.46816 7.82357 1.53084 4.95012 8.32857 4.53808 2.47876 1.1883 4.6302 2.26519 4.2931 1.62296 4.73655 9.62848 1.58852 2.68174 6.52367 4.59576 0.210376 1.33248 4.59734 3.79945 4.14892 1.5901 1.32809 9.4843 1.62139 1.14748 6.66785 4.62863 3.61884 5.07385 4.74619 0.694423 0.40755 1.73895 3.16578 5.74292 1.47254 4.25251 10.4092 4.47978 1.78115 1.91534 5.88281 1.68503 3.38259 0.387849 4.06303 8.71797 2.82364 3.35526 7.25072 3.34316 0.790539 8.90143 0.33592 3.2619 7.43418 5.83088 0.883903 2.09881 3.39509 1.59167 3.56605 2.87557 4.15639
5.43404 0.102124 2.47346 0.0730131 3.10936 0.00210507 3.00724 4.68789 4.93952 2.49981 1.68065 2.46816 7.86084 1.53084 0.00740542 8.36826 4.53808 2.47876 1.19366 4.6302 2.26519 4.31339 1.62296 4.73655 9.67441 1.58852 2.68174 6.55468 4.59576 0.210376 1.33853 4.59734 3.79945 4.16852 1.5901 1.32809 9.52954 1.62139 1.14748 6.69955 4.62863 3.61884 5.09789 4.74619 0.694423 0.409158 1.73895 3.16578 5.77018 1.47254 4.25251 10.4589 4.47978 1.78115 1.9242 5.88281 1.68503 3.3985 0.387849 4.06303 8.75953 2.82364 3.35526 7.28523 3.34316 0.790539 8.94387 0.33592 3.2619 7.46957 5.83088 0.883903 2.10855 3.39509 1.59167 3.58285 2.87557 4.15639
5.43404 0.0786665 2.47346 0.0730131 3.10936 0.0374787 3.14303 4.6928 4.87055 2.36402 1.6621 2.43457 7.72505 1.52593 0.0763766 8.50405 4.55663 2.51236 1.20171 4.59058 2.15818 4.30534 1.55988 4.59417 9.66637 1.62815 2.78875 6.56273 4.65884 0.352762 1.57173 4.49596 3.67689 3.93532 1.46526 1.24091 9.29635 1.72277 1.27004 6.93275 4.75347 3.70602 5.08087 4.81828 0.665864 0.42618 1.78758 3.10185 5.7872 1.40045 4.28106 10.4419 4.43115 1.84508 1.8434 5.89738 1.46502 3.49546 0.487967 3.82887 8.85648 2.70006 3.55404 7.20443 3.35205 1.04593 9.02467 0.321352 3.48191 7.37262 5.73076 1.11805 2.01159 3.51866 1.39289 3.66365 2.86668 3.901
5.43404 0.011039 2.47346 0.0730131 3.10936 -0.0213906 3.06734 4.52553 5.03297 2.43971 1.42721 2.53811 7.80073 1.6932 -0.0860371 8.42837 4.79152 2.40882 1.19875 4.72161 2.19442 4.3083 1.62329 4.68927 9.66933 1.49712 2.75251 6.55977 4.59544 0.257655 1.32209 4.6489 3.7746 4.18496 1.55058 1.27974 9.54599 1.56983 1.17233 6.68311 4.66815 3.66719 5.09874 4.76065 0.683388 0.408313 1.66232 3.17824 5.76934 1.45808 4.26354 10.4598 4.55641 1.76869 1.94062 5.99373 1.68525 3.49072 0.480026 3.98118 8.85175 2.64038 3.46061 7.30165 3.32333 0.766825 8.92745 0.225002 3.26168 7.37735 5.7387 0.965752 2.01633 3.57835 1.48632 3.56643 2.8954 4.1801
5.45969 0.011039 2.47346 0.0730133 3.10936 -0.0213906 3.08167 4.52553 0.043256 2.45103 1.42721 2.53811 7.83771 1.6932 4.90367 8.46834 4.79152 2.40882 1.20413 4.72161 2.19442 4.32857 1.62329 4.68927 9.71524 1.49712 2.75251 6.59081 4.59544 0.257655 1.32806 4.6489 3.7746 4.20464 1.55058 1.27974 9.59131 1.56983 1.17233 6.71474 4.66815 3.66719 5.12278 4.76065 0.683388 0.409917 1.66232 3.17824 5.79659 1.45808 4.26354 10.5095 4.55641 1.76869 1.94956 5.99373 1.68525 3.50707 0.480026 3.98118 8.89375 2.64038 3.46061 7.33624 3.32333 0.766825 8.96982 0.225002 3.26168 7.4123 5.7387 0.965752 2.02563 3.57835 1.48632 3.58314 2.8954 4.1801
5.22883 -0.010599 2.47346 0.073012 3.10936 -0.015076 2.97351 4.70549 4.93306 2.32833 1.58552 2.44452 7.48415 1.51324 0.0138719 8.12933 4.63321 2.50241 1.1932 4.70432 2.20487 4.10864 1.58436 4.69341 9.26446 1.51441 2.74206 6.34902 4.63437 0.253515 1.35375 4.66271 3.73815 3.94809 1.54275 1.24961 9.1039 1.55602 1.20878 6.50957 4.67598 3.69732 4.83976 4.67159 0.649269 0.462086 1.55162 3.13781 5.6179 1.54714 4.29766 9.99557 4.66711 1.80912 1.95586 5.90505 1.5393 3.40589 0.348793 3.98073 8.56171 2.74997 3.45474 7.11168 3.43365 0.919089 8.5018 0.313682 3.40763 7.05177 5.86994 0.966202 1.89595 3.46876 1.49219 3.34598 2.78508 4.02784
5.45969 -0.0833878 2.47346 0.0730133 3.10937 0.0762273 3.00694 4.66279 0.105357 2.52576 1.47004 2.50259 7.91243 1.55594 4.84157 8.39362 4.74869 2.44433 1.21393 4.80647 2.21991 4.31877 1.61372 4.61715 9.70544 1.41226 2.72701 6.60061 4.60501 0.329779 1.46346 4.80721 3.78917 4.06924 1.61446 1.39194 9.45592 1.41152 1.15775 6.85013 4.60427 3.55499 5.05562 4.83131 0.622373 0.477083 1.63856 3.01961 5.86376 1.38742 4.32456 10.4423 4.58017 1.92732 1.89272 6.05624 1.5906 3.5512 0.321119 3.92639 8.93788 2.70486 3.41778 7.2794 3.35524 0.959096 9.02665 0.162491 3.35633 7.36817 5.89761 1.02054 1.9815 3.51387 1.52915 3.63998 2.86349 3.98783
5.45969 -0.0508867 2.47346 0.0730132 3.10936 0.0289022 3.16966 4.665 -0.0145989 2.36304 1.50475 2.42996 7.74972 1.55373 4.96153 8.55634 4.71398 2.51697 1.23584 4.57705 2.25509 4.29686 1.4168 4.69966 9.68354 1.64168 2.69183 6.62251 4.80193 0.247273 1.49935 4.40309 3.79902 4.03335 1.24284 1.35445 9.42003 1.81564 1.14791 6.88603 4.97589 3.59247 5.10496 4.87233 0.615667 0.427745 1.71208 3.06023 5.81442 1.3464 4.33126 10.4916 4.50665 1.8867 1.88562 5.84567 1.65169 3.59567 0.308032 3.91242 8.98234 2.75045 3.47907 7.2723 3.53332 0.850672 9.03375 0.373063 3.29523 7.32371 5.9107 1.03451 1.93703 3.46828 1.46786 3.64708 2.68541 4.09626
5.48534 -0.0508867 2.47346 0.0730134 3.10936 0.0289022 3.18441 4.665 4.87453 2.37395 1.50475 2.42996 7.78627 1.55373 0.0724033 8.59673 4.71398 2.51697 1.24138 4.57705 2.25509 4.31698 1.4168 4.69966 9.7293 1.64168 2.69183 6.6537 4.80193 0.247273 1.50614 4.40309 3.79902 4.05221 1.24284 1.35445 9.46454 1.81564 1.14791 6.91847 4.97589 3.59247 5.12892 4.87233 0.615667 0.429435 1.71208 3.06023 5.84176 1.3464 4.33126 10.5412 4.50665 1.8867 1.89425 5.84567 1.65169 3.61244 0.308032 3.91242 9.02477 2.75045 3.47907 7.30658 3.53332 0.850672 9.07642 0.373063 3.29523 7.35824 5.9107 1.03451 1.94591 3.46828 1.46786 3.6641 2.68541 4.09626
5.48534 0.0432653 2.47346 0.0730135 3.10936 0.0315452 3.15004 4.63616 5.11928 2.4083 1.57006 2.67736 7.82063 1.58257 -0.172347 8.56237 4.64867 2.26957 1.32547 4.6075 2.26736 4.23288 1.54141 4.70928 9.64521 1.61123 2.67957 6.7378 4.67732 0.237651 1.55993 4.45765 3.79989 3.99842 1.39155 1.35798 9.41075 1.76108 1.14704 6.97225 4.82718 3.58895 5.21737 4.69437 0.555417 0.34098 1.62826 2.99734 5.75331 1.52436 4.39151 10.6297 4.59047 1.94959 2.16318 5.81565 1.63385 3.52414 0.224562 3.97825 8.93649 2.92808 3.4106 7.5755 3.46917 0.871162 8.80749 0.403081 3.31308 7.44653 5.99417 0.96868 2.03419 3.29065 1.53633 3.39517 2.74956 4.07577
5.48534 0.0081773 2.47346 0.0730133 3.10936 0.0578407 3.14675 4.7589 4.93456 2.41161 1.65775 2.51895 7.82393 1.45983 0.0123671 8.55906 4.56098 2.42798 1.26911 4.64405 2.22843 4.28924 1.54282 4.64407 9.70156 1.57468 2.7185 6.68143 4.6759 0.302854 1.52834 4.66095 3.73796 4.03004 1.55975 1.32234 9.44234 1.55778 1.20897 6.94064 4.65898 3.62459 5.19432 4.8133 0.673708 0.364024 1.71216 3.08934 5.77635 1.40543 4.27322 10.6067 4.50657 1.85759 1.99738 5.9155 1.5161 3.61485 0.3899 3.92481 9.02711 2.72759 3.43776 7.40976 3.40448 1.01521 8.9733 0.303234 3.43083 7.35583 5.82883 1.02212 1.94357 3.49114 1.50916 3.56092 2.81425 3.93172
5.51099 0.0081773 2.47346 0.0730134 3.10936 0.0578407 3.16132 4.7589 0.103314 2.4227 1.65775 2.51895 7.86067 1.45983 4.84361 8.59928 4.56098 2.42798 1.27478 4.64405 2.22843 4.30923 1.54282 4.64407 9.7472 1.57468 2.7185 6.71275 4.6759 0.302854 1.53523 4.66095 3.73796 4.04879 1.55975 1.32234 9.48675 1.55778 1.20897 6.97319 4.65898 3.62459 5.2186 4.8133 0.673708 0.365404 1.71216 3.08934 5.80338 1.40543 4.27322 10.6566 4.50657 1.85759 2.0065 5.9155 1.5161 3.63163 0.3899 3.92481 9.06954 2.72759 3.43776 7.44453 3.40448 1.01521 9.01548 0.303234 3.43083 7.39035 5.82883 1.02212 1.95244 3.49114 1.50916 3.57745 2.81425 3.93172
5.51099 0.00716394 2.47346 0.0730119 3.10937 0.000440879 3.14995 4.57453 -0.128485 2.43397 1.4723 2.34467 7.87203 1.6442 5.07541 8.58801 4.74643 2.60225 1.19792 4.67606 2.21821 4.38606 1.57393 4.6913 9.82406 1.54267 2.72871 6.63593 4.6448 0.255627 1.3288 4.62638 3.73741 4.25513 1.52412 1.26438 9.69318 1.59235 1.20952 6.76685 4.69461 3.68255 5.13434 4.72513 0.640627 0.44965 1.62306 3.11363 5.88764 1.49359 4.3063 10.5723 4.59567 1.8333 1.91006 5.79378 1.49043 3.56874 0.262995 3.94591 9.00688 2.85346 3.47386 7.34803 3.52708 0.983418 9.11192 0.424951 3.4565 7.45324 5.95573 1.00102 2.01509 3.36527 1.47306 3.67395 2.69165 3.96351
5.51098 0.110445 2.47347 0.0730018 3.10937 -0.0078841 3.03271 4.59386 -0.0292533 2.55118 1.59494 2.45235 7.98927 1.62486 4.97618 8.47081 4.6238 2.49459 1.25538 4.69296 2.27065 4.32907 1.69475 4.75225 9.76661 1.52577 2.67627 6.69292 4.52398 0.194688 1.40904 4.70184 3.7972 4.17462 1.70274 1.31588 9.61293 1.5169 1.14973 6.84736 4.51598 3.63105 5.19628 4.59816 0.587819 0.387531 1.59911 3.06918 5.82571 1.62056 4.35911 10.6345 4.61963 1.87775 2.11498 5.90129 1.62825 3.52179 0.448444 4.0754 8.96084 2.77084 3.35238 7.55268 3.31625 0.837195 8.90702 0.31745 3.31869 7.50017 5.77025 0.871517 2.06113 3.44792 1.59456 3.46931 2.90247 4.10973
5.53663 0.110445 2.47347 0.0730019 3.10937 -0.0078841 3.04667 4.59386 4.93344 2.56286 1.59494 2.45235 8.02661 1.62486 0.0134845 8.51042 4.6238 2.49459 1.26096 4.69296 2.27065 4.34915 1.69475 4.75225 9.81233 1.52577 2.67627 6.72414 4.52398 0.194688 1.41534 4.70184 3.7972 4.19396 1.70274 1.31588 9.65793 1.5169 1.14973 6.87931 4.51598 3.63105 5.22044 4.59816 0.587819 0.389015 1.59911 3.06918 5.85284 1.62056 4.35911 10.6843 4.61963 1.87775 2.12461 5.90129 1.62825 3.53806 0.448444 4.0754 9.00276 2.77084 3.35238 7.58796 3.31625 0.837195 8.94869 0.31745 3.31869 7.53521 5.77025 0.871517 2.0705 3.44792 1.59456 3.48533 2.90247 4.10973
5.53664 0.0646847 2.47348 0.0730106 3.10938 0.0316075 3.16563 4.61446 4.81952 2.44122 1.56969 2.37983 7.90764 1.60431 0.127428 8.63205 4.649 2.56708 1.1035 4.59152 2.20498 4.50424 1.54403 4.64575 9.96977 1.62721 2.74198 6.56903 4.67472 0.301158 1.32194 4.65958 3.72566 4.28533 1.62246 1.28668 9.75133 1.55906 1.22122 6.78793 4.59634 3.66031 5.08193 4.62584 0.72543 0.529455 1.58462 3.16611 5.99133 1.59291 4.22148 10.5438 4.63408 1.78084 1.91466 5.84196 1.51079 3.78663 0.428572 3.90171 9.24694 2.75123 3.49248 7.38058 3.42223 0.998347 9.15865 0.37677 3.43615 7.2867 5.79029 1.04529 1.82641 3.46733 1.45436 3.69275 2.79649 3.94858
5.22883 -0.00146821 2.47346 0.073012 3.10936 -0.00804225 2.97627 4.68606 4.92566 2.32557 1.57523 2.44415 7.48139 1.53267 0.0212702 8.13209 4.6435 2.50278 1.1916 4.69079 2.21233 4.11024 1.57996 4.69384 9.26606 1.52794 2.73459 6.34742 4.63877 0.253087 1.36152 4.6568 3.73855 3.94033 1.54597 1.25704 9.09614 1.56193 1.20838 6.51733 4.67276 3.68989 4.85852 4.65968 0.647985 0.443318 1.54884 3.12949 5.59914 1.55905 4.29894 10.0143 4.66989 1.81744 1.97317 5.88743 1.54677 3.41133 0.340195 3.9824 8.56715 2.7677 3.44603 7.12899 3.44214 0.91865 8.48448 0.331302 3.40016 7.04633 5.87853 0.964526 1.89051 3.45103 1.5009 3.32867 2.77659 4.02828
5.5365 0.0187149 2.47348 0.072903 3.10946 -0.00264002 3.21232 4.64437 4.84117 2.38901 1.53937 2.37373 7.86105 1.57464 0.105736 8.68435 4.67907 2.57323 1.30207 4.73659 2.09822 4.3054 1.6488 4.57679 9.77132 1.48178 2.84874 6.76786 4.56978 0.369895 1.56283 4.64329 3.62132 4.03825 1.55347 1.15544 9.51033 1.57522 1.32562 7.0349 4.66527 3.79133 5.25451 4.68115 0.652385 0.362014 1.59252 3.13821 5.81863 1.5378 4.2946 10.7112 4.62607 1.80877 1.94536 5.93936 1.44488 3.48447 0.410017 3.89519 8.96397 2.72472 3.53556 7.41461 3.36558 1.02727 9.12795 0.279054 3.50194 7.58905 5.80954 1.05205 2.10895 3.49404 1.41148 3.65879 2.85372 3.91977
5.56215 6.19981 2.47348 11.0515 3.10946 -0.00264002 3.22706 4.64437 4.84117 2.39988 1.53937 2.37373 7.89762 1.57464 0.105736 8.72478 4.67907 2.57323 1.30784 4.73659 2.09822 4.32527 1.6488 4.57679 9.81685 1.48178 2.84874 6.79929 4.56978 0.369895 1.56983 4.64329 3.62132 4.05687 1.55347 1.15544 9.55464 1.57522 1.32562 7.06759 4.66527 3.79133 5.27883 4.68115 0.652385 0.363371 1.59252 3.13821 5.8456 1.5378 4.2946 10.7612 4.62607 1.80877 1.95415 5.93936 1.44488 3.50048 0.410017 3.89519 9.00571 2.72472 3.53556 7.44908 3.36558 1.02727 9.17046 0.279054 3.50194 7.62434 5.80954 1.05205 2.11851 3.49404 1.41148 3.67563 2.85372 3.91977
5.56162 6.12607 2.47383 11.0507 3.11059 0.00572277 3.13329 4.56821 5.12502 2.52018 1.53861 2.63988 7.99224 1.64825 -0.177219 8.605 4.68199 2.30693 1.25334 4.64577 2.33815 4.38359 1.69296 4.75529 9.87152 1.57459 2.60853 6.73992 4.52277 0.190743 1.54105 4.66626 3.8642 4.07292 1.63514 1.32775 9.5842 1.55246 1.08272 7.05234 4.58452 3.61883 5.28991 4.71739 0.628911 0.367043 1.7371 3.08795 5.83405 1.49856 4.31922 10.757 4.48453 1.85811 1.96315 5.91687 1.63732 3.59351 0.367082 3.99888 9.09473 2.8199 3.33018 7.41523 3.28516 0.867971 9.16084 0.304893 3.31014 7.53198 5.85056 0.949613 2.02912 3.40254 1.61541 3.70797 2.92924 4.07791
5.56098 6.24497 2.47537 11.0524 3.11002 0.0662716 3.25378 4.49076 4.80019 2.33187 1.39671 2.37473 7.87105 1.72336 0.146278 8.794 4.82684 2.5719 1.22644 4.65572 2.20117 4.39912 1.55058 4.60815 9.89717 1.56804 2.74567 6.72706 4.66389 0.340218 1.49173 4.53074 3.70822 4.0356 1.47124 1.27074 9.6318 1.69049 1.24034 7.08907 4.74474 3.67575 5.22726 4.82369 0.668123 0.439941 1.67574 3.10056 5.89632 1.39435 4.27959 10.6841 4.54449 1.84331 1.93834 5.92933 1.557 3.65729 0.433551 3.7853 9.12344 2.72698 3.55444 7.37359 3.36201 1.02255 9.18396 0.296455 3.39318 7.46764 5.77864 1.16309 2.00514 3.49315 1.38957 3.74566 2.85328 3.92159
5.58662 6.24497 2.47537 0.0738226 3.11002 4.87978 3.26865 4.49076 4.80019 2.34243 1.39671 2.37473 7.90749 1.72336 0.146278 8.83475 4.82684 2.5719 1.23183 4.65572 2.20117 4.41933 1.55058 4.60815 9.94308 1.56804 2.74567 6.75816 4.66389 0.340218 1.49836 4.53074 3.70822 4.05412 1.47124 1.27074 9.67646 1.69049 1.24034 7.12185 4.74474 3.67575 5.25135 4.82369 0.668123 0.441655 1.67574 3.10056 5.92354 1.39435 4.27959 10.7337 4.54449 1.84331 1.94705 5.92933 1.557 3.67404 0.433551 3.7853 9.16573 2.72698 3.55444 7.4077 3.36201 1.02255 9.22654 0.296455 3.39318 7.50219 5.77864 1.16309 2.01417 3.49315 1.38957 3.76283 2.85328 3.92159
5.5885 6.16604 2.47385 0.0673163 3.11767 4.91276 3.2837 4.7662 4.89245 2.41833 1.57905 2.35631 7.89873 1.45274 0.0471988 8.75393 4.63827 2.59046 1.39308 4.5795 2.29235 4.42342 1.67839 4.78237 9.78165 1.63519 2.65187 6.75438 4.544 0.171268 1.56336 4.47153 3.85405 4.28001 1.51434 1.42997 9.61433 1.74783 1.09202 6.89271 4.69835 3.51935 5.2693 4.81226 0.554519 0.258047 1.61058 2.95342 5.90923 1.40929 4.40048 10.9157 4.60458 1.99796 2.17622 5.79903 1.69096 3.49994 0.493785 4.12534 9.02925 2.82239 3.31595 7.31949 3.24719 0.736734 8.99709 0.419074 3.25529 7.67304 5.72742 0.815634 2.1432 3.38829 1.63574 3.86191 2.96987 4.22026
5.58747 6.06583 2.47358 0.0750823 3.11734 4.9346 3.12565 4.60521 4.98543 2.60292 1.60069 2.53309 8.05307 1.61861 -0.0445949 8.56875 4.61871 2.42635 1.30082 4.5097 2.3378 4.49265 1.61964 4.73605 9.87489 1.70999 2.60796 6.68306 4.59772 0.208077 1.38592 4.51921 3.84875 4.31689 1.59794 1.38862 9.79599 1.69009 1.09814 6.85677 4.61683 3.54773 5.23265 4.6763 0.7272 0.310578 1.73783 3.11129 5.93686 1.54338 4.1994 10.8678 4.48573 1.83919 2.10018 5.67084 1.63874 3.69226 0.401921 3.98945 9.07245 2.89995 3.29328 7.49373 3.4366 0.892795 9.07849 0.548739 3.30431 7.48457 5.80311 0.955876 2.10659 3.31576 1.65701 3.67862 2.77778 4.05728
5.61312 6.06583 2.47358 0.0750921 3.11734 0.0282902 3.13985 4.60521 0.0791263 2.61469 1.60069 2.53309 8.09019 1.61861 4.86171 8.60827 4.61871 2.42635 1.30653 4.5097 2.3378 4.51321 1.61964 4.73605 9.92048 1.70999 2.60796 6.7138 4.59772 0.208077 1.39202 4.51921 3.84875 4.33663 1.59794 1.38862 9.84121 1.69009 1.09814 6.88832 4.61683 3.54773 5.25665 4.6763 0.7272 0.311683 1.73783 3.11129 5.96413 1.54338 4.1994 10.918 4.48573 1.83919 2.10961 5.67084 1.63874 3.70909 0.401921 3.98945 9.11431 2.89995 3.29328 7.52824 3.4366 0.892795 9.12037 0.548739 3.30431 7.51904 5.80311 0.955876 2.11605 3.31576 1.65701 3.69539 2.77778 4.05728
5.6062 6.11745 2.47568 0.070383 3.11649 0.034732 3.26605 4.74746 -0.0665727 2.48234 1.77022 2.38655 7.96514 1.45864 5.02815 8.74607 4.46989 2.55195 1.26338 4.68378 2.10025 4.49122 1.67624 4.49091 9.97232 1.54736 2.84853 6.73269 4.52317 0.446733 1.60667 4.48321 3.56419 4.15322 1.55835 1.11583 9.59727 1.72242 1.38885 7.06491 4.66762 3.82966 5.23695 4.66472 0.627316 0.418382 1.64081 3.10967 5.98638 1.53318 4.31676 10.8169 4.59526 1.84177 1.96168 5.94434 1.40373 3.66591 0.409371 3.77989 9.18722 2.76899 3.65439 7.38319 3.28961 1.18696 9.27563 0.284204 3.55715 7.55339 5.78736 1.16544 2.05161 3.47308 1.28597 3.84421 2.89509 3.74204
5.61666 6.0648 2.49146 0.0486592 3.15213 -0.0469009 3.23275 4.57844 -0.0923982 2.51148 1.77617 2.487 7.99277 1.6406 5.04407 8.69822 4.43001 2.45877 1.32101 4.71887 2.2153 4.46246 1.62958 4.77302 9.90907 1.51744 2.7156 6.77318 4.57054 0.186375 1.58869 4.56226 3.75714 4.28668 1.67013 1.3265 9.65355 1.67538 1.17626 6.94258 4.55209 3.62631 5.22464 4.62652 0.623115 0.325319 1.74099 3.09052 5.9999 1.57963 4.36229 10.9149 4.49034 1.81901 2.00529 5.98632 1.65847 3.76433 0.531522 3.96004 9.09402 2.72574 3.56486 7.53439 3.31295 0.858913 9.21125 0.233626 3.26514 7.48217 5.66497 1.01831 2.17742 3.51977 1.37694 3.68794 2.85555 4.08981
5.22883 -0.00457596 2.47346 0.073012 3.10936 -0.00213675 3.02142 4.69048 4.89549 2.28042 1.57654 2.41989 7.43624 1.52825 0.0514419 8.17723 4.64219 2.52704 1.25652 4.68749 2.23938 4.04532 1.57355 4.71498 9.20114 1.53124 2.70755 6.41234 4.64518 0.231953 1.39601 4.67727 3.74402 3.90583 1.56333 1.26842 9.06165 1.54146 1.20291 6.55183 4.6554 3.67851 4.89939 4.69764 0.549536 0.402454 1.5837 3.02514 5.55827 1.52109 4.39739 10.0552 4.63503 1.92179 1.98528 5.85417 1.53977 3.3803 0.336146 3.99278 8.53612 2.76864 3.42975 7.1411 3.4785 0.931554 8.47238 0.364559 3.40715 7.07736 5.88258 0.954152 1.92154 3.45009 1.51718 3.31656 2.74023 4.01538
5.64233 0.161347 2.49146 11.181 3.15213 4.9526 3.24738 4.57844 4.90711 2.52277 1.77617 2.487 8.02943 1.6406 0.0445602 8.73816 4.43001 2.45877 1.32678 4.71887 2.2153 4.48279 1.62958 4.77302 9.95461 1.51744 2.7156 6.8042 4.57054 0.186375 1.59571 4.56226 3.75714 4.30618 1.67013 1.3265 9.69791 1.67538 1.17626 6.97438 4.55209 3.62631 5.24849 4.62652 0.623115 0.326487 1.74099 3.09052 6.02734 1.57963 4.36229 10.965 4.49034 1.81901 2.01423 5.98632 1.65847 3.78141 0.531522 3.96004 9.13578 2.72574 3.56486 7.56893 3.31295 0.858913 9.25355 0.233626 3.26514 7.51647 5.66497 1.01831 2.18716 3.51977 1.37694 3.70468 2.85555 4.08981
5.68438 0.12942 2.46022 11.2383 3.07063 4.95638 3.2758 4.63989 4.68444 2.54335 1.61359 2.42018 7.99054 1.55559 0.199528 8.75673 4.64397 2.55839 1.28174 4.65677 2.23155 4.56536 1.7245 4.74416 9.97892 1.57948 2.70414 6.70948 4.46313 0.21715 1.47875 4.68397 3.76379 4.29429 1.6762 1.31651 9.7822 1.52388 1.18873 6.95883 4.51852 3.61927 5.3082 4.60629 0.745609 0.287853 1.45293 3.12037 5.97245 1.60213 4.20678 10.9808 4.82427 1.83206 2.25331 5.76331 1.58672 3.67249 0.464706 4.07372 9.4037 2.95128 3.34128 7.55906 3.37271 0.9383 8.98424 0.496677 3.39143 7.62777 5.73442 0.921463 1.85206 3.32924 1.62845 3.70861 2.7982 3.99057
5.67258 0.125892 2.45956 11.1322 3.07882 4.97579 3.2631 4.73347 4.75177 2.46658 1.64903 2.39455 8.05241 1.59675 0.177316 8.82193 4.58151 2.55335 1.27412 4.6824 2.15692 4.44515 1.66189 4.69883 9.98397 1.44595 2.77205 6.82944 4.5824 0.289761 1.55796 4.67677 3.66849 4.17066 1.57643 1.33861 9.72843 1.46134 1.25201 7.00693 4.61235 3.64638 5.32848 4.5347 0.561392 0.417343 1.44616 3.02764 5.97826 1.69816 4.47204 10.8616 4.71659 1.87273 2.13377 5.72334 1.36813 3.8168 0.325186 3.95245 9.40286 2.81356 3.45313 7.64419 3.43498 0.905687 9.15281 0.346793 3.52873 7.50162 5.89097 0.972268 1.81117 3.2744 1.49509 3.65527 2.86136 4.02626
5.69838 0.125892 2.45956 11.1832 3.07882 0.0648842 3.2778 4.73347 4.75177 2.47761 1.64903 2.39455 8.08918 1.59675 0.177316 8.86225 4.58151 2.55335 1.27966 4.6824 2.15692 4.46529 1.66189 4.69883 10.0296 1.44595 2.77205 6.86057 4.5824 0.289761 1.56481 4.67677 3.66849 4.18954 1.57643 1.33861 9.77292 1.46134 1.25201 7.03888 4.61235 3.64638 5.3527 4.5347 0.561392 0.41893 1.44616 3.02764 6.00548 1.69816 4.47204 10.9113 4.71659 1.87273 2.14327 5.72334 1.36813 3.83405 0.325186 3.95245 9.44586 2.81356 3.45313 7.67908 3.43498 0.905687 9.19466 0.346793 3.52873 7.53585 5.89097 0.972268 1.81918 3.2744 1.49509 3.67178 2.86136 4.02626
5.76195 0.0587006 2.50137 11.2007 3.1476 0.0472134 3.14113 4.6198 4.91019 2.47577 1.56883 2.55451 8.18476 1.65557 -0.0316328 8.77845 4.6859 2.3979 1.25429 4.59879 2.24014 4.42961 1.47691 4.71128 10.0747 1.66336 2.71949 6.92779 4.64515 0.240132 1.42504 4.4534 3.74963 4.13871 1.44227 1.27497 9.88054 1.65316 1.21581 7.21473 4.68747 3.64318 5.41355 4.59495 0.507546 0.411081 1.60923 3.13863 5.94104 1.56609 4.40235 10.9363 4.63546 1.81039 2.13935 5.85386 1.60718 3.67451 0.228226 4.05386 9.49899 2.96199 3.36192 7.75234 3.45394 0.947945 9.16148 0.552445 3.50818 7.72683 5.81993 0.972875 1.95596 3.33863 1.53377 3.53435 2.65345 3.93431
5.59487 0.068743 2.46333 11.1048 3.15165 -0.0359473 3.23321 4.6675 4.95121 2.5247 1.61773 2.40072 8.10518 1.50654 0.0819629 8.88492 4.59121 2.52144 1.27287 4.67821 2.2695 4.41169 1.58241 4.64107 10.084 1.57496 2.62177 6.86571 4.56911 0.357855 1.36032 4.60909 3.82828 4.12624 1.65757 1.39152 9.91783 1.57101 1.06456 7.18663 4.67743 3.61454 5.3628 4.53172 0.780513 0.402876 1.82865 2.97866 5.93335 1.59956 4.29862 10.989 4.57866 1.81545 1.92991 6.03441 1.58028 3.74451 0.340648 3.97444 9.33863 2.73873 3.35452 7.72354 3.41045 1.00536 9.38651 0.288976 3.29457 7.58138 5.78399 1.06499 2.17414 3.57158 1.55411 3.54003 2.73083 3.93114
5.6202 6.13516 2.46333 11.1554 3.15165 4.77539 3.2477 4.6675 0.139871 2.53595 1.61773 2.40072 8.14203 1.50654 0.0819629 8.92534 4.59121 2.52144 1.27837 4.67821 2.2695 4.43159 1.58241 4.64107 10.1299 1.57496 2.62177 6.89687 4.56911 0.357855 1.36623 4.60909 3.82828 4.14484 1.65757 1.39152 9.96299 1.57101 1.06456 7.21927 4.67743 3.61454 5.38707 4.53172 0.780513 0.404389 1.82865 2.97866 5.96023 1.59956 4.29862 11.0391 4.57866 1.81545 1.93843 6.03441 1.58028 3.76135 0.340648 3.97444 9.38114 2.73873 3.35452 7.75863 3.41045 1.00536 9.42924 0.288976 3.29457 7.61582 5.78399 1.06499 2.18377 3.57158 1.55411 3.55594 2.73083 3.93114
5.70838 6.03461 2.56835 11.3684 3.13856 4.92465 3.18639 4.66426 0.0517931 2.55357 1.53357 2.42815 8.1162 1.55982 -0.0606901 8.84928 4.61335 2.55172 1.27209 4.7004 2.3369 4.50535 1.66212 4.595 10.0935 1.63126 2.62587 6.91084 4.53815 0.372393 1.44047 4.66773 3.89369 4.2998 1.56637 1.24344 9.83129 1.6632 1.15207 7.09401 4.59678 3.69563 5.43486 4.57302 0.770839 0.325214 1.72904 2.97114 6.02225 1.69643 4.32219 11.0406 4.51979 1.98044 2.11602 5.80276 1.58451 3.73506 0.418824 3.85799 9.33486 2.8049 3.35189 7.62208 3.29072 0.942194 9.29057 0.442423 3.30823 7.76431 5.77061 1.00439 2.06288 3.49045 1.61542 3.68248 2.83213 3.94752
5.64045 6.02428 2.47022 11.3878 2.99807 4.99574 3.24935 4.68093 0.0552441 2.64733 1.62713 2.36185 8.07808 1.70011 0.0183649 8.82664 4.61495 2.51085 1.33011 4.56853 2.25852 4.52523 1.65645 4.68215 9.9032 1.59872 2.62838 6.9151 4.56461 0.29034 1.50872 4.45679 3.81668 4.2904 1.44492 1.31494 9.70102 1.70872 1.08728 7.15556 4.63322 3.64925 5.47109 4.58211 0.693119 0.163239 1.55519 2.94246 6.02885 1.6581 4.25915 11.0845 4.59775 1.89269 2.15479 5.77914 1.64586 3.82672 0.412068 3.96542 9.2527 2.8544 3.37452 7.68273 3.33708 0.921137 9.19791 0.456712 3.36163 7.68667 5.73637 1.04661 2.12992 3.4352 1.53602 3.70599 2.83057 4.18222
5.66587 6.02428 2.47022 0.153075 2.99807 0.0885419 3.26385 4.68093 0.0552441 2.65909 1.62713 2.36185 8.11463 1.70011 4.92556 8.86661 4.61495 2.51085 1.33585 4.56853 2.25852 4.54556 1.65645 4.68215 9.94809 1.59872 2.62838 6.94634 4.56461 0.29034 1.51528 4.45679 3.81668 4.30966 1.44492 1.31494 9.74498 1.70872 1.08728 7.1879 4.63322 3.64925 5.49574 4.58211 0.693119 0.163651 1.55519 2.94246 6.05604 1.6581 4.25915 11.1348 4.59775 1.89269 2.1643 5.77914 1.64586 3.84386 0.412068 3.96542 9.29461 2.8544 3.37452 7.71748 3.33708 0.921137 9.23957 0.456712 3.36163 7.72143 5.73637 1.04661 2.13932 3.4352 1.53602 3.72258 2.83057 4.18222
5.25448 -0.00457596 2.47346 0.0730121 3.10936 -0.00213675 3.03609 4.69048 4.89549 2.29141 1.57654 2.41989 7.47288 1.52825 0.0514419 8.21755 4.64219 2.52704 1.26241 4.68749 2.23938 4.06508 1.57355 4.71498 9.24655 1.53124 2.70755 6.44388 4.64518 0.231953 1.4026 4.67727 3.74402 3.9249 1.56333 1.26842 9.10637 1.54146 1.20291 6.58406 4.6554 3.67851 4.9234 4.69764 0.549536 0.404093 1.5837 3.02514 5.58556 1.52109 4.39739 10.1049 4.63503 1.92179 1.9948 5.85417 1.53977 3.39675 0.336146 3.99278 8.57822 2.76864 3.42975 7.17626 3.4785 0.931554 8.51416 0.364559 3.40715 7.11221 5.88258 0.954152 1.93074 3.45009 1.51718 3.3327 2.74023 4.01538