-30089.9200260024
-30088.9944720717
-30089.9200260024
-30088.9059591997
-30088.6174571809
-30088.5573916193
-30088.4703648963
-30088.8531826117
-30088.899299489
-30088.8575052739
-30088.6427108288
-30088.4796145852
-30088.4371248474
-30089.9060113305
-30088.247447041
-30088.4012938679
-30088.3504148647
-30088.1354492601
-30088.5323899487
-30088.5047306796
-30088.0771480838
-30088.8508997138
-30088.7819290954
-30088.0426368557
-30089.8911657595
-30088.6229088428
-30088.5485675162
-30088.1925940894
-30088.6430532839
-30088.5679792912
-30088.5073062358
-30088.613795755
-30088.5598138394
-30088.4000157498
-30088.3994957405
-30089.5911850324
-30088.3117612498
-30088.1746031561
-30088.4790042341
-30088.3863692478
-30088.2749997775
-30088.2568170041
-30088.1759675342
-30088.2923007665
-30088.3637648989
-30088.332729107
-30089.6022440053
-30088.0798979287
-30087.8587362952
-30087.7657452481
-30087.9630710822
-30088.1941620085
-30088.146259249
-30088.0430697886
-30087.8292833887
-30087.7499475513
-30087.8978769937
-30088.9263013314
-30087.7787679295
-30087.7122157215
-30087.8306964752
-30087.7186969256
-30087.6392210857
-30087.9960228266
-30087.9623366473
-30087.8563346197
-30087.7658512364
-30087.3407942639
-30089.0079165293
-30087.2694618346
-30087.7361441757
-30087.974630336
-30087.9552928481
-30087.7635136437
-30087.8140488312
-30087.7472088629
-30087.4978612843
-30087.5948038305
-30087.529801174
-30088.9602371751
-30087.7428089205
-30087.8114762682
-30087.7941381357
-30087.7711733722
-30087.7229127831
-30087.7143890936
-30087.4623375211
-30087.5728472482
-30087.6140096154
-30087.5706540118
-30089.2535999609
-30089.9200260024
-30087.3502944334
-30087.3262138677
-30087.3217975984
-30087.8939457671
-30087.2215400271
-30087.1854528525
-30087.8350365526
-30087.5476247573
-30088.9189801123
-30087.5350781389
-30087.5462595629
-30087.3952489771
-30087.0286118225
-30087.0039436272
-30087.7357849856
-30088.8519361949
-30087.3717080128
-30087.3516690158
-30087.2531328357
-30087.2338254163
-30087.4504879219
-30089.0083800749
-30088.7965445942
-30088.7262599387
-30088.6576532723
-30088.0837016701
-30087.9947004901
-30088.6245533619