-1.0284407328505e-05 1.31126193438439e-05 -3.5738315466555e-05 7.45619531316615e-06 2.10830350234353e-05 -3.93378580315318e-05 0.00994682165794686 0.00383119884005134 0.0439342167768239 -0.0100414382053691 0.00365225015253535 0.0441437615761422 -0.0102011036291441 -0.00366073478858137 -0.043522069153134 0.0104168190728595 -0.00381371534759288 -0.0436043444117621 0.093275203596426 -0.0186487158087782 -0.00867824001397576 -0.0930867418321312 -0.0189626473424808 -0.00866152785206694 -0.0934150715360937 0.0186641424197709 0.00862501820605075 0.0929862117504951 0.0190212684642533 0.00883867676830044 -0.0347078178522388 -0.00966477178696261 -0.000727364708308518 0.0347602683296142 -0.00965628715091659 -0.000816324831700087 0.0347453559389878 0.00966477178696261 0.000796527347592715 -0.0347142456068191 0.00967171376190935 0.000681856205879884 -0.0348191465615699 -0.00663524249816824 -0.0136841752811256 0.0350150645211779 -0.00659050532628924 -0.0135599910626339 0.0349186482024731 0.00663164295560326 0.0135990718104822 -0.0352114967011523 0.00658664867354105 0.0135160252213045 -0.0269212359536444 -0.0212807527543258 -0.0224066382466139 0.0339218320221578 0.0281543363923322 -0.010365397036217 0.0339395726247995 -0.0282561520248844 0.0102748942517262 -0.0269441187599503 0.0211604251885823 0.0222436303904571 0.0270431061804872 0.0214512168057958 0.0222366884155104 -0.0339956226447398 -0.0283371417325963 0.010107772632638 -0.033812045973926 0.028053806310696 -0.0104582138123568 0.0269040095713692 -0.021071722175374 -0.0224395483500651
1.61979415423954e-05 2.82821201533888e-06 0.000163007856156805 -1.36268397102692e-05 -7.9704156795914e-06 0.000140382160034094 0.226176228629582 -0.0514819433152137 -0.0887649767625102 -0.22598236755144 -0.0516395518575231 -0.0886271657043082 -0.225965398279348 0.0515248807158102 0.0871747502793401 0.225774108303037 0.0516902025636159 0.0871068731909719 -0.0486344480361339 0.414843423960824 -0.131732973470821 0.0484873810113363 0.414854222588519 -0.13190575151394 0.0484788963752902 -0.414442846295378 0.131870013198473 -0.0484475289329383 -0.414906415955711 0.13178413839728 -0.981040670803973 -0.455299454179147 -1.45744809969433 0.980830097563922 -0.455214607818687 -1.45719793148606 0.980891289787527 0.455223606675099 1.45755660019164 -0.980965851740659 0.455218207361252 1.45781653858687 2.12231497888789 -0.0777066677825351 -0.517849219551115 -2.12234377522841 -0.0776840420864124 -0.517764887411021 -2.1222810403437 0.0776860989678781 0.518116357031473 2.12307062571635 0.0777130955371154 0.518131526532282 -0.390308684727759 -0.450026895652006 0.0851014137619135 0.707122680694372 0.456453878901772 0.875849181546192 0.707157390569105 -0.456537439711316 -0.875560189700261 -0.390155704168747 0.449853860498704 -0.084856644867495 0.390031777060439 0.44964791524195 -0.0846674117726506 -0.707074343979928 -0.45630886875844 -0.875522908723695 -0.707316027552148 0.456517642227208 0.87588826229404 0.390177301424137 -0.449973416733898 0.0851986014111678
-1.0284407328505e-05 1.31126193438439e-05 -3.5738315466555e-05 7.45619531316615e-06 2.10830350234353e-05 -3.93378580315318e-05 0.00994682165794686 0.00383119884005134 0.0439342167768239 -0.0100414382053691 0.00365225015253535 0.0441437615761422 -0.0102011036291441 -0.00366073478858137 -0.043522069153134 0.0104168190728595 -0.00381371534759288 -0.0436043444117621 0.093275203596426 -0.0186487158087782 -0.00867824001397576 -0.0930867418321312 -0.0189626473424808 -0.00866152785206694 -0.0934150715360937 0.0186641424197709 0.00862501820605075 0.0929862117504951 0.0190212684642533 0.00883867676830044 -0.0347078178522388 -0.00966477178696261 -0.000727364708308518 0.0347602683296142 -0.00965628715091659 -0.000816324831700087 0.0347453559389878 0.00966477178696261 0.000796527347592715 -0.0347142456068191 0.00967171376190935 0.000681856205879884 -0.0348191465615699 -0.00663524249816824 -0.0136841752811256 0.0350150645211779 -0.00659050532628924 -0.0135599910626339 0.0349186482024731 0.00663164295560326 0.0135990718104822 -0.0352114967011523 0.00658664867354105 0.0135160252213045 -0.0269212359536444 -0.0212807527543258 -0.0224066382466139 0.0339218320221578 0.0281543363923322 -0.010365397036217 0.0339395726247995 -0.0282561520248844 0.0102748942517262 -0.0269441187599503 0.0211604251885823 0.0222436303904571 0.0270431061804872 0.0214512168057958 0.0222366884155104 -0.0339956226447398 -0.0283371417325963 0.010107772632638 -0.033812045973926 0.028053806310696 -0.0104582138123568 0.0269040095713692 -0.021071722175374 -0.0224395483500651
-1.77406026416712e-05 5.91353421389039e-06 0.000176891806050287 -2.51967979548373e-05 -5.14220366425252e-06 0.000154266109927576 0.251455044732864 -0.0560304795664283 -0.0892606851957441 -0.251093033594901 -0.0562569936378386 -0.0890773656351135 -0.251045982431373 0.0562225408732881 0.0874609139132557 0.250774216967717 0.0563310413706038 0.0875478171551816 -0.149737628270652 0.410812450508416 -0.158048972053183 0.149239348735585 0.410841761069302 -0.158251574877554 0.149278172373251 -0.410450953590819 0.158230748952714 -0.149495944698432 -0.410897039758693 0.158119420243383 -0.948852789857402 -0.457418556309186 -1.4389302529688 0.948715750129749 -0.457332681507993 -1.43871273775381 0.948859217611982 0.457316226456267 1.43902949749952 -0.94884867609447 0.457313912464618 1.43924032784976 2.25435725590911 -0.0842899740236944 -0.560717457508339 -2.25440122175044 -0.0842665769970221 -0.560656779505101 -2.25424284187758 0.0842557783693271 0.560970968148987 2.2552028913017 0.0842817464978316 0.561041930559553 -0.410536571281829 -0.464087737351538 0.0903063523108699 0.739902172172516 0.468966660188181 0.874230415832685 0.739951280217509 -0.468991085655586 -0.873883574195531 -0.410388990036665 0.463838597584005 -0.089995763209549 0.41032779781306 0.463662991328871 -0.089849467515301 -0.739784158598421 -0.468747088091717 -0.873805412699834 -0.740045125434382 0.469006769376762 0.874235043815983 0.410452496251918 -0.464081823817324 0.0904454489199879
-1.28555091606313e-06 6.9419749467409e-06 -2.13401452066479e-05 -3.7795196932256e-05 1.54266109927576e-06 -3.31672136344287e-05 -0.519600397008976 0.148247931869118 -0.96579686515148 0.519738979397728 0.148039415510532 -0.965843659204825 0.519820226215623 -0.14813608893942 0.966142935458084 -0.51996009415529 -0.147963310896301 0.966340396078792 -1.0507067318269 -0.383598880276459 1.79896472784364 1.05015008828024 -0.383593223852428 1.79901357877845 1.04956516261344 0.383544115807435 -1.79922492334905 -1.05008863894646 0.383581396784 -1.79899583817581 0.0645907060063095 0.25225182919064 0.467242479299557 -0.0648066785602081 0.252261342267419 0.467603976217154 -0.0646935500795945 -0.252293995260687 -0.467507817008632 0.0647573134050312 -0.252264684699801 -0.467771354946425 -0.628846513856021 0.00797478655270602 0.276845703765844 0.629049888010942 0.00805371937895229 0.276905353328349 0.628826716371913 -0.0079866136211338 -0.276946490957663 -0.627229547913796 -0.00800049757102728 -0.276825649171553 1.06834783282767 1.80749384395136 -0.450231812468026 -0.901317744964685 -1.58338118165224 -1.10194287780696 -0.90116373596494 1.58321277448223 1.10182203602085 1.06858360286567 -1.80784917022456 0.450262408579829 -1.06854580766874 -1.80759874490611 0.450290433589799 0.901257581181813 1.58344983007116 1.1017968392229 0.90090276912898 -1.58317266529365 -1.10178475504429 -1.0685923446119 1.80771881536167 -0.450303031988776
-1.49123906263323e-05 -2.28828063059237e-05 -2.64823488709005e-05 2.62252386876878e-05 -2.08259248402227e-05 -3.26529932680035e-05 -0.0160760713155526 0.883124114180193 0.16009916865412 0.0158593274311044 0.882885515930172 0.159940017450712 0.0161341782169587 -0.882574926828851 -0.15960371733107 -0.0159115207982966 -0.882727136057313 -0.159589576270993 -1.70837889676362 1.40127492397622 -0.316850248502446 1.70900033207645 1.40147598413949 -0.31661524979499 1.70901653001799 -1.40127878062896 0.31686978887637 -1.70891754259745 -1.40153511948163 0.316686726425923 -0.250862919980925 0.0321624270384338 0.176720313558084 0.251065522805297 0.0321027774759285 0.176536479777087 0.251077864094091 -0.0322292756860691 -0.176809016571292 -0.251165281556384 -0.0321745112170448 -0.176759651416115 1.27081798834468 -0.416046956728442 -0.449332698157332 -1.27077145140152 -0.416118176249192 -0.44929978805388 -1.27081490302248 0.415953111511569 0.449177146496488 1.2695632906506 0.416036158100747 0.449092814356394 -1.05375657282017 -2.2718816288867 0.065570810024716 -0.325919038884722 -0.755567895635661 -0.373602436353152 -0.325920581545821 0.75545013917175 0.37345022712469 -1.05380722352626 2.27165922857822 -0.065518873767707 1.05383216321403 2.27162580425441 -0.0656183754086103 0.325906440485744 0.755542441727523 0.373531216832402 0.326154037592178 -0.755352180191946 -0.373569012029334 1.0538632735462 -2.27176207265151 0.0655530694220743
1.92832637409469e-05 -3.93378580315318e-05 -2.85392303366015e-05 -9.51307677886716e-06 -3.70238663826181e-05 -3.49669849169171e-05 0.00647866239659175 0.873551130728637 0.158997194408871 -0.00635807772066502 0.8739499086228 0.159092582286843 -0.0062374930447383 -0.873574270645126 -0.158690461960298 0.00607114275619973 -0.872922496330682 -0.158406098097665 -1.81131835792664 1.36159742339266 -0.351269331618937 1.81127362075476 1.3618601899999 -0.350976997340624 1.81082650614616 -1.3615938238501 0.351193484114889 -1.81100031263001 -1.36191469735874 0.351042817547527 -0.232091819724938 0.0250836694742238 0.17778680659805 0.232099533030434 0.0250276194542834 0.177730756578109 0.232187721823276 -0.0251798286827453 -0.177973211480879 -0.232124729828389 -0.0251240357729882 -0.178085568630943 1.42140433733012 -0.42988256990748 -0.484233862867346 -1.42141976394111 -0.429944276351451 -0.484280656920691 -1.4217231539573 0.429805436852516 0.484166499999345 1.42185659414239 0.429844260490181 0.484158786693848 -1.06494806487505 -2.25659719982526 0.0726387689612311 -0.276984286154595 -0.718827364674943 -0.356952237998486 -0.276916409066227 0.71853657305773 0.356777917294267 -1.0649349522557 2.25623287469565 -0.072654452682407 1.06492286807709 2.25635808735487 -0.0726025164253981 0.277010768503466 0.718903983509541 0.356845023052086 0.276943405635465 -0.718614734553427 -0.356836281305857 1.06497223323227 -2.25649924084546 0.0725942888995353
-6.42775458031565e-06 -4.88509348103989e-06 -4.62798329782727e-06 -8.22752586280403e-06 2.31399164891363e-06 -1.0284407328505e-06 0.383524318323327 0.173759432688207 0.171030979423955 -0.383275178555794 0.173894158424211 0.171061575535757 -0.383294461819535 -0.173723694372741 -0.170878770195493 0.383103428953408 -0.173584854873806 -0.170975957844747 -0.438304213958609 -0.266507560409047 -1.9712730306578 0.437014292169432 -0.266369235130479 -1.97087271010254 0.437196069068963 0.266237080496308 1.97107994091021 -0.436952585725461 0.266354322739853 1.97132342425371 0.200388591473722 -0.0104944663481898 2.14994661027775 -0.20054928533823 -0.0104834106103116 2.15007387981844 -0.200467267189785 0.0104623275752882 -2.15011244634592 0.200501205733969 0.010494723458373 -2.15049734029019 0.0820037502745677 0.683824898552743 0.205794847296134 -0.0823102256129572 0.683784532253979 0.205667063535077 -0.0819793248071625 -0.683848295579415 -0.205858353511387 0.0838462018474694 -0.683741080633016 -0.205505341229837 0.79206520036306 0.93066481549694 -0.441644589458908 0.83810797775241 -0.447048274179488 0.0451524048248853 0.838134460101281 0.447025134262998 -0.0452110259466578 0.792212781608224 -0.930892358009083 0.441672871579061 -0.792166758885429 -0.930605423044618 0.441664901163382 -0.838225991326505 0.447072185426526 -0.0452485640334068 -0.8383072381444 -0.44702770536483 0.0452735037211784 -0.792251091025522 0.930755318281431 -0.441658730518984
6.68486476352827e-06 2.67394590541131e-05 -1.41410600766944e-05 -7.71330549637878e-06 3.41956543672792e-05 -2.80250099701762e-05 0.435301167018686 -0.447305898583067 0.322993639220128 -0.435265428703219 -0.447329295609739 0.323110110133124 -0.43505022747987 0.447191998771903 -0.322867398120171 0.435333305791587 0.447272474259249 -0.32239354405251 0.567292022003269 -0.853812010632854 -0.0530135486766113 -0.568218904213751 -0.853669571591355 -0.0529081335014941 -0.568302979243661 0.854021555432173 0.0526512804284647 0.568137914506039 0.854025412084921 0.0529765248102287 -0.106425618137202 -0.167107735138313 0.0130719959348963 0.106392450923568 -0.16710747802813 0.0131493861000433 0.106366739905247 0.167031630524082 -0.0132571152668094 -0.106502494081983 0.16707945301816 -0.0134062391730727 0.0787363940663017 -0.115561514277296 -0.13838749923273 -0.0785420187677929 -0.11553940280154 -0.138304452643552 -0.0787194247942097 0.115518319766517 0.138225262707123 0.0796941294987687 0.115574369786457 0.13846668916916 0.317903886033251 -0.138546907546322 -0.721317733909541 1.1739995493134 1.86111314421962 0.144794170778022 1.1738907917059 -1.86112882794079 -0.144795456328938 0.31789977227032 0.13837464372357 0.721301278857815 -0.318002873453788 0.138368215968989 0.721328532537236 -1.17400983372073 -1.8610460384618 -0.144890329986544 -1.17406665507122 1.86116688024791 0.144797256100221 -0.317840894038364 -0.138644095195576 -0.721282509814441
5.91353421389039e-06 3.34243238176414e-05 -7.9704156795914e-06 -3.34243238176414e-06 2.3397026672349e-05 -2.15972553898606e-05 0.419801022513529 -0.450222813611614 0.301461175596437 -0.419835732388263 -0.450259066147447 0.301417723975474 -0.419719004365085 0.450094258520007 -0.30126294364518 0.419814135132873 0.450151336980681 -0.300943098577264 0.385042039734831 -0.851813236068559 -0.120975740515388 -0.38551975045524 -0.85178443972804 -0.120897321909508 -0.385249527652684 0.852153649951133 0.120783936318711 0.385547261244844 0.852057490742611 0.121006593737373 -0.0726035448661309 -0.170659969429579 0.0287965976299973 0.0725703776524965 -0.170660740760129 0.0288716738034954 0.072645968046361 0.170601091197623 -0.0289210389586722 -0.0726539384620406 0.170627316436311 -0.0290837897046458 0.346369325747271 -0.139138260967711 -0.213257984584247 -0.346443373480036 -0.139142117620459 -0.213283181382202 -0.346314561278246 0.139075268972824 0.213116316873297 0.346923141081911 0.139127719450199 0.213264412338827 0.287614249569338 -0.163307903740614 -0.709470867997653 1.20457354963995 1.85908377354352 0.149548909396173 1.20444422321779 -1.85906937537326 -0.149554308710021 0.287602679611094 0.163177805987908 0.709466497124538 -0.287754117509006 0.163056449981432 0.7095114914066 -1.20458460537782 -1.85903775082072 -0.149632470205718 -1.20461931525256 1.85912054029972 0.149552251828555 -0.287653330317187 -0.163287849146323 -0.709486037498462
-5.39931384746514e-06 2.82821201533888e-06 5.14220366425252e-07 8.48463604601665e-06 4.11376293140201e-06 2.31399164891363e-06 -0.0661482794962115 -0.21103500994019 -0.231623107860941 0.0659981271492154 -0.211274379520761 -0.231833681100993 0.0663807071018357 0.211320402243556 0.231864791433161 -0.0661914740069912 0.211360254321954 0.231899501307895 1.81091212383717 2.47195988836929 1.10913270697032 -1.81082573481561 2.47203290766132 1.10901032252311 -1.8110877300923 -2.47209769942749 -1.10919981272814 1.81110109982183 -2.47174288737466 -1.1092018696096 -1.16199764596103 0.385144626697933 -0.935633984007891 1.16213365724795 0.385120201230528 -0.935829387747132 1.16209740471212 -0.385148740460865 0.935468405049902 -1.16221130452328 -0.385237443474073 0.935689005587098 -1.0395998290223 -0.216157159010152 -0.231327431150247 1.0397024159854 -0.216081568616288 -0.231197076287358 1.03956331937628 0.216066656225662 0.231315604081819 -1.03974355361471 0.216027575477813 0.23119244830406 -0.533243177550604 -0.545191601984861 0.707188758011457 -0.540683689142594 -1.78406236451446 -0.524841845203948 -0.540737682281069 1.78418294919038 0.525018737009999 -0.533391015905952 0.544931663589634 -0.707221668114909 0.533331623453629 0.544912894546259 -0.707198785308603 0.540595243239569 1.78395412112732 0.524964229651158 0.540739224942168 -1.78387236008906 -0.525009481043403 0.533303341333476 -0.545120125353928 0.707371049131355
1.0284407328505e-06 -1.25983989774187e-05 -1.92832637409469e-05 2.10830350234353e-05 5.14220366425252e-06 -2.93105608862393e-05 0.0595402906774638 0.943604399687482 -0.27475256976431 -0.059348229370604 0.94419883843107 -0.274537111430778 -0.0595266638377536 -0.94364425176588 0.275037962067676 0.0592916651302972 -0.943741182304951 0.274928176019444 -0.0819415296102303 -0.204402852764221 2.78621383824165 0.0833726048899918 -0.204811657955529 2.78603617510505 0.0828573560828337 0.204400795882755 -2.7860048076627 -0.0830031375567152 0.204662276939082 -2.78599323770446 0.551468689997814 -0.0240187190953571 -1.01534816810095 -0.551375873221675 -0.0240002071621658 -1.01539676192558 -0.551411354426958 0.0239595837532182 1.0153214286419 0.551375873221675 0.0239528988884547 1.01516407720977 -0.906824530868733 -0.261849238109601 0.075887870346489 0.906740198728639 -0.26179550208131 0.0758590740059692 0.90649774382587 0.261805015158088 -0.0758837565835576 -0.908107510682964 0.261642264412115 -0.0762447392807881 -0.0249954806813818 -0.234026830963796 -0.998177835845644 -0.38426325298988 -0.80541358974491 -0.165510566680196 -0.384244483946506 0.805456784255689 0.165330589551948 -0.0250219630302527 0.233826027910707 0.998278108817097 0.0251397194941641 0.234064369050545 0.998137212436697 0.384368411054814 0.805493808122072 0.165458887533371 0.384410834235044 -0.80551129161453 -0.165407979717095 0.0249792827398395 -0.233844025623532 -0.998347528566565
-2.23685859394984e-05 1.69692720920333e-05 -1.18270684277808e-05 4.26802904132959e-05 2.62252386876878e-05 -1.85119331913091e-05 0.0603537872971486 0.924562562408572 -0.266109039625068 -0.0602203471120612 0.924646894548666 -0.266081271725281 -0.0605383924086952 -0.924284626300519 0.266526072342239 0.0601848659067779 -0.925144659863365 0.266243508250888 -0.268140210072448 -0.229563912403592 2.70194803257518 0.269466641507641 -0.229957033873724 2.70180430798276 0.269814254475345 0.229713550530221 -2.70176908388766 -0.269970063246372 0.229882729030775 -2.70166983935694 0.5606230980711 -0.0298602624579479 -1.01930869336316 -0.560532852396792 -0.0298386652025581 -1.0193279766269 -0.560552135660533 0.029882116823521 1.01935985828962 0.560579132229771 0.0298818597133378 1.01920739195097 -0.622727548605743 -0.285157047548375 0.00935264002454248 0.622873587189808 -0.285062945221319 0.00938503590762727 0.623151780408044 0.285121309232909 -0.00954007334810448 -0.624649447225258 0.284988126158004 -0.00982983652458511 -0.0501814800085243 -0.246860742869038 -0.981938242453569 -0.33520894402456 -0.763934003887217 -0.157963611472356 -0.335217685770789 0.764084670454579 0.157795461412535 -0.0501758235844936 0.246757898795753 0.982042114967587 0.0501943355176849 0.24676972586418 0.981890419959491 0.335327728929204 0.764025020892074 0.157964639913089 0.335343155540197 -0.763988254135875 -0.157869766255484 0.0501827655594403 -0.24670647675911 -0.982081195715435
-1.0284407328505e-05 1.05415175117177e-05 -4.01091885811696e-05 4.62798329782727e-06 1.64550517256081e-05 -4.75653838943358e-05 0.0467035505602071 -0.0015863698304219 0.046144850132086 -0.0465809090028146 -0.00175272011896047 0.0460965134176421 -0.0468341625332791 0.00171415359147858 -0.045536527438605 0.0467678281060102 0.00156451546484883 -0.0455100450897341 -0.0893172494360509 -0.0150520014558168 -0.0624795742919506 0.089266598729958 -0.0153597623451223 -0.06240269834717 0.0892198046766133 0.0150843973389015 0.0623163093256106 -0.0892887102057143 0.0154191547974444 0.062574447949556 -0.0105281477821906 -0.0129233862489994 0.00797890031563742 0.010523776909076 -0.0129138731722206 0.00796913012867534 0.0105574583430768 0.0129290426730301 -0.00797761476472135 -0.0104456154133794 0.0129346990970608 -0.00815013569765703 0.193965207766521 -0.00515557339377957 -0.0817420121080573 -0.194046968804783 -0.00511237888299985 -0.0817425263284237 -0.193924070137207 0.00516277247890953 0.081634025831108 0.194114331672784 0.00511212177281664 0.0816383967042226 -0.0628012191311496 -0.0445530809878167 -0.0123189202082665 0.0723778021252702 0.04763454653362 -0.00685969968811286 0.0723662321670257 -0.0476232336855586 0.00676302625922491 -0.0627346275936975 0.0444309536507907 0.0121880511250113 0.0627806503164926 0.0445484530045188 0.0121813662602478 -0.0724495358663866 -0.0478404917903733 0.00661698767516014 -0.0723760023539878 0.0475980368876038 -0.00692269168299995 0.0626891190912689 -0.0442877432787412 -0.0123721420161916
-2.67394590541131e-05 -5.14220366425252e-06 1.07986276949303e-05 -2.59681285044752e-05 -3.03390016190899e-05 -2.93105608862393e-05 1.19653191443961 0.164495752787056 0.104548199579384 -1.1965365424229 0.164478783514964 0.104621733091782 -1.19633651070036 -0.164326574286502 -0.104438156420969 1.19670932046602 -0.164570828960554 -0.104364880018753 -0.88228516365237 -1.72353682761492 0.879638471426379 0.882414747184709 -1.72351857279191 0.879527656937415 0.882684198656716 1.72353091408071 -0.879382646794083 -0.882683170215983 1.72351908701228 -0.879642585189311 -0.634746421230201 -0.349786062971983 -1.46980018711623 0.634771618028156 -0.349752895758349 -1.46995419611597 0.634639977614351 0.349746725113952 1.46982255570217 -0.63459266934064 0.349780406547953 1.46985983667873 1.29745486043569 -0.532532267894021 -0.0594022225090787 -1.29759807080774 -0.532529182571823 -0.0594441314689423 -1.29751682398984 0.532495244027639 0.059348229370604 1.29716226904719 0.532494986917456 0.0593508004724361 0.136489254750071 -0.426529338898021 -0.313550496411095 0.483562291068795 1.74468182619251 0.469136095798918 0.48347307383522 -1.74463683191045 -0.469246910287882 0.136470999927063 0.426650694904497 0.31345485142294 -0.136508023793446 0.426537052203517 0.31334917913764 -0.483477701818518 -1.74474198997538 -0.469090073076123 -0.483563062399345 1.74468773972672 0.469081588440077 -0.136467914604865 -0.426603129520603 -0.313403943606664
-5.14220366425252e-06 3.47098747337045e-05 3.52240951001297e-05 -1.67121619088207e-05 1.85119331913091e-05 -1.74834924584586e-05 0.153226356346664 -0.311242675406579 0.159599860678321 -0.153193189133029 -0.311583346399335 0.159876768345641 -0.153327657758849 0.311266843763801 -0.159843086911641 0.153165935453609 0.311434736713438 -0.159640484087269 -0.797294050159055 1.19577832449261 1.29913301860152 0.796770059605668 1.19549833150309 1.29872421341021 0.79629646264819 -1.19559140538941 -1.29874761043688 -0.79618281994721 -1.19544125304242 -1.29908391055653 -0.0777130955371154 0.828585387896764 -1.04816828298804 0.0776670728143204 0.828483829374395 -1.04760521168681 0.077671443687435 -0.828528309436091 1.04792917051765 -0.0776416189061823 -0.828565590412657 1.04808986438216 -0.392916296205901 -0.316260437742156 -0.592303700626193 0.392676412404964 -0.316267379717103 -0.592309357050224 0.392611877748977 0.316285120319745 0.592372349045111 -0.391592692982723 0.316314173770448 0.592458480956487 0.507475594989035 1.05494082232405 -0.107104389020884 -1.45499886808904 -2.12731602906156 -0.772834901319855 -1.45481529141823 2.1269432192959 0.772691433837622 0.507623947564749 -1.05527455134186 0.107084848646959 -0.507543472077403 -1.05492822392507 0.107105417461616 1.45490168043979 2.12708771521886 0.772657752403621 1.45489345291393 -2.12714916455265 -0.772887608907413 -0.507739647147194 1.05547638283568 -0.107212632408016
-5.65642403067777e-06 2.85392303366015e-05 2.67394590541131e-05 -1.61979415423954e-05 2.545390813805e-05 -2.10830350234353e-05 0.16317394933516 -0.315313243827201 0.14494843688795 -0.163305075528599 -0.315406574823707 0.145160038568734 -0.163273708086247 0.315025794642369 -0.144962577948027 0.163493537292893 0.315416602120852 -0.14493481004824 -0.954014791005761 1.17299270583594 1.24849696778908 0.952728982979515 1.17271271284642 1.24800563022896 0.953019517486545 -1.17289294708485 -1.24822288833377 -0.952725640547133 -1.17266771856436 -1.24841186431843 -0.0578739595800628 0.820331122574906 -1.0347630722557 0.0578127673564582 0.820271215902218 -1.03424525234671 0.0576291906856444 -0.820320838167578 1.03456689718591 -0.0577232930127002 -0.820306439997318 1.03473376169482 -0.158642639466221 -0.324246794253107 -0.63689997612479 0.158511770382966 -0.324301044501765 -0.636977880510303 0.158662436950328 0.324292045645352 0.636969138764074 -0.157106663231709 0.324334468825582 0.637094865643665 0.482939827315237 1.0387696202407 -0.0973660837215221 -1.40264866368512 -2.09360219917762 -0.752362502981549 -1.40276976258141 2.09344561907604 0.752342191277076 0.483092550764066 -1.03901490335549 0.0972598972158553 -0.483077124153073 -1.03857241673018 0.0973437151355826 1.4026291233112 2.0935672321927 0.752135988910139 1.40261652491222 -2.0936651911725 -0.752457633749338 -0.483127517748982 1.03909666439375 -0.0974591576078451
-1.82548230080964e-05 2.82821201533888e-06 2.44254674051995e-05 2.69965692373257e-05 1.59408313591828e-05 1.61979415423954e-05 0.291642651919914 -0.174186749812707 -1.08001857826406 -0.291614112689577 -0.174270310622251 -1.07992627570828 -0.291698959050037 0.17425745511309 1.07981237589712 0.291683532439044 0.174265939749136 1.0799306465814 0.362328154819278 -1.18717670331323 0.817442232556329 -0.362274161680804 -1.1873731354932 0.817600355319005 -0.362439483528609 1.18712245306457 -0.817385411205839 0.362036334761332 1.18741324468179 -0.817661290432426 -0.440244624511315 0.715443023333316 -0.670165920069572 0.440293732556309 0.715536868550188 -0.67048987890042 0.440224827027208 -0.715462049486873 0.670205515037787 -0.440189345821924 -0.715551780940814 0.670497335095733 0.426405668899895 -0.365180278081656 0.407723271657116 -0.426179926159035 -0.365146853757838 0.407762866625331 -0.426483316175226 0.365175650098358 -0.40766593608626 0.42615550069163 0.365126542053365 -0.40772918519133 -1.19644244009585 -1.22896199317876 0.364395320692308 0.775008253698551 2.09558091914762 0.493606300375996 0.77488329814951 -2.09554440950161 -0.493541251499643 -1.19640258801745 1.22890877137084 -0.364400720006155 1.19656816697544 1.22904992486142 -0.364432087448507 -0.77492417866864 -2.09558940378367 -0.493586760002072 -0.774869157089433 2.09552075536475 0.493555649669903 1.19652394402393 -1.22897639134902 0.364431059007774
-3.59954256497676e-06 1.54266109927576e-05 -8.92172335747812e-05 3.80523071154686e-05 1.05415175117177e-05 -8.81887928419307e-05 0.304811835504064 -0.189438782991063 -0.24608221323427 -0.304997726166527 -0.189355736401885 -0.246348322273895 -0.305198272109433 0.1893585646139 0.247278546916758 0.305103912672194 0.189388903615519 0.247357993963371 -0.327823454011778 2.87704752353829 0.191494378905848 0.329546092239302 2.87788698828648 0.191081459951608 0.329823257016805 -2.8771393118737 -0.191599536970782 -0.329298495132868 -2.8772663243042 -0.190772413511387 -0.271326833683185 -0.0263951885187914 0.283250061319487 0.271246872416206 -0.0264214137574791 0.283764024575729 0.271366171541216 0.0264077869177688 -0.283380930402742 -0.271244301314374 0.0263882465438446 -0.284030133615354 -1.28095532864839 -0.663650748026964 -0.369597945249615 1.28055809341532 -0.663672088172171 -0.369721101027374 1.2811818427198 0.663614495491131 0.369362946542159 -1.28266639691767 0.663579785616398 0.369191968270323 -0.420069445544803 -0.75046502982944 0.695285842079629 -1.81758104776934 -2.2410726298527 -1.05867123397228 -1.81724886141263 2.24052318539117 1.05813721612174 -0.420335040364062 0.750532906917808 -0.695621627978904 0.420125238454561 0.75042337797976 -0.695506699727009 1.81730619698348 2.24054529686693 1.05816292714007 1.81733782153602 -2.24030618439654 -1.05820509321011 0.420302644480977 -0.750539591782572 0.695347291413417
1.82548230080964e-05 9.77018696207978e-06 -0.000107986276949303 2.80250099701762e-05 1.72263822752459e-05 -0.000101558522368987 0.294226866371384 -0.190452054223104 -0.257859659396691 -0.294653412165333 -0.190340468403589 -0.258073060848757 -0.294239464770361 0.190367464972827 0.259172206881991 0.29431222695221 0.190417087238187 0.259271708522894 -0.519917156754694 2.82963537731315 0.131055488138056 0.52049951131967 2.83046070100126 0.130776780699453 0.520721654517966 -2.82966854452678 -0.131333681356292 -0.520314649097941 -2.82992334071835 -0.130542553322547 -0.250033482529882 -0.029715252314616 0.288260624569935 0.250083104795242 -0.0297435344347694 0.288666601549228 0.25021423098868 0.0297142238738832 -0.288542674440919 -0.250081562134142 0.0296959690508751 -0.289210389586722 -0.997509863589658 -0.672538275730075 -0.421042093367897 0.997054521455188 -0.672556530553083 -0.421109970456265 0.997507035377643 0.6724858252527 0.420746673767386 -0.997954664206616 0.672503308745158 0.420710164121369 -0.432067749354604 -0.753093467232423 0.695274272121384 -1.76089133769315 -2.20340778778333 -1.03564573151467 -1.76062008644986 2.202944218123 1.035236412103 -0.432306090494442 0.752950256860373 -0.69557406259501 0.432128941578208 0.752946657317808 -0.695412083179586 1.76076946746631 2.20318101660174 1.03528963391092 1.76067896468182 -2.20272310336544 -1.03527035064718 0.43234671390339 -0.753166743634638 0.695365546236425