10.4063000000 0.0000000000 0.0000000000 0.0000000000 6.2187000000 0.0000000000 0.0000000000 0.0000000000 4.9469000000