0 0 0 -0.00976633030933159 0.00193938211197284 -0.00732635467064377 -0.00547490424132966 0.000189747315210918 0.001217673827695 0.00976633030933159 -0.00193938211197284 0.00732635467064377 0.00547490424132966 -0.000189747315210918 -0.001217673827695 0.011725767015595 -0.000174063594034948 -0.0103044619227956 -0.00372989742786556 -0.0014966383764807 -0.00455702088726058 -0.011725767015595 0.000174063594034948 0.0103044619227956 0.00372989742786556 0.0014966383764807 0.00455702088726058 0.00225254231512581 0.00019386107814232 0.00610868084294878 0.00059135342138904 -0.00123747131180237 0.00407982438721795 -0.00225254231512581 -0.00019386107814232 -0.00610868084294878 -0.00059135342138904 0.00123747131180237 -0.00407982438721795 -0.000926882210481516 0.00130354862888801 0.000142439041499795 0.00892712267132558 0.0001282979814231 -0.00218749343877302 0.000926882210481516 -0.00130354862888801 -0.000142439041499795 -0.00892712267132558 -0.0001282979814231 0.00218749343877302 -0.00114799696804437 -0.00215098379275683 0.000917883354069074 0.000818381713165788 -0.00372115568163633 -0.000974704704559065 0.000499307975798919 -0.00195660849424808 -0.00243689031648927 -0.0014274757371965 -0.00142670440664686 -0.000873917512739715 0.00114799696804437 0.00215098379275683 -0.000917883354069074 -0.000818381713165788 0.00372115568163633 0.000974704704559065 -0.000499307975798919 0.00195660849424808 0.00243689031648927 0.0014274757371965 0.00142670440664686 0.000873917512739715