-9.20527793416879 -0.29172358983908 -0.741297615276019 -0.29172358983908 -5.05321204591119 0.43958349153834 -0.741297615276019 0.43958349153834 -2.21390231192946