10.169766 0.000000 0.000000 0.000000 6.437849 0.000000 0.000000 0.000000 5.145804
10.558196 0.000000 0.000000 0.000000 6.285078 0.000000 0.000000 0.000000 5.075381
10.424041 0.000000 0.000000 0.000000 6.679910 0.000000 0.000000 0.000000 5.057409
10.322583 0.000000 0.000000 0.000000 6.263270 0.000000 0.000000 0.000000 5.107144
8.991082 0.000000 0.000000 0.000000 8.450746 0.000000 0.000000 0.000000 5.346203
9.603624 0.000000 0.000000 0.000000 8.526689 0.000000 0.000000 0.000000 5.083510
9.179714 0.000000 0.000000 0.000000 8.568053 0.000000 0.000000 0.000000 5.028179
10.598436 0.000000 0.000000 0.000000 6.492641 0.000000 0.000000 0.000000 4.999727
10.171219 0.000000 0.000000 0.000000 6.374579 0.000000 0.000000 0.000000 5.211564
10.347803 0.000000 0.000000 0.000000 6.541606 0.000000 0.000000 0.000000 5.028663
10.523337 0.000000 0.000000 0.000000 6.413321 0.000000 0.000000 0.000000 5.095219
10.233740 0.000000 0.000000 0.000000 6.377709 0.000000 0.000000 0.000000 5.083076
10.169714 0.000000 0.000000 0.000000 6.557701 0.000000 0.000000 0.000000 5.091365
9.224717 0.000000 0.000000 0.000000 8.847666 0.000000 0.000000 0.000000 4.978480
9.344385 0.000000 0.000000 0.000000 8.677555 0.000000 0.000000 0.000000 5.071985
9.356575 0.000000 0.000000 0.000000 8.702634 0.000000 0.000000 0.000000 5.062154
9.116885 0.000000 0.000000 0.000000 8.928139 0.000000 0.000000 0.000000 5.066852
9.123875 0.000000 0.000000 0.000000 9.102375 0.000000 0.000000 0.000000 5.044618
9.192343 0.000000 0.000000 0.000000 8.759004 0.000000 0.000000 0.000000 4.981074
8.906894 0.000000 0.000000 0.000000 8.969826 0.000000 0.000000 0.000000 5.097312
10.442493 0.000000 0.000000 0.000000 6.278444 0.000000 0.000000 0.000000 5.015943
10.431687 0.000000 0.000000 0.000000 6.255724 0.000000 0.000000 0.000000 5.053705
10.041719 0.000000 0.000000 0.000000 6.490146 0.000000 0.000000 0.000000 5.050111
10.203105 0.000000 0.000000 0.000000 6.975605 0.000000 0.000000 0.000000 4.857001
10.150133 0.000000 0.000000 0.000000 6.379428 0.000000 0.000000 0.000000 5.081776
10.613988 0.000000 0.000000 0.000000 6.371808 0.000000 0.000000 0.000000 5.008615
10.499533 0.000000 0.000000 0.000000 6.235701 0.000000 0.000000 0.000000 5.112442
10.432873 0.000000 0.000000 0.000000 6.303195 0.000000 0.000000 0.000000 5.089344
10.205363 0.000000 0.000000 0.000000 6.457681 0.000000 0.000000 0.000000 5.067077
10.613008 0.000000 0.000000 0.000000 6.376489 0.000000 0.000000 0.000000 4.996553
10.549704 0.000000 0.000000 0.000000 6.350248 0.000000 0.000000 0.000000 4.991820
10.174369 0.000000 0.000000 0.000000 6.763242 0.000000 0.000000 0.000000 4.949552
10.061110 0.000000 0.000000 0.000000 6.608251 0.000000 0.000000 0.000000 5.037966
9.142910 0.000000 0.000000 0.000000 8.572587 0.000000 0.000000 0.000000 4.971876
9.019695 0.000000 0.000000 0.000000 8.858711 0.000000 0.000000 0.000000 4.932073
8.950254 0.000000 0.000000 0.000000 8.801423 0.000000 0.000000 0.000000 4.756102
10.305162 0.000000 0.000000 0.000000 6.313742 0.000000 0.000000 0.000000 4.829257
10.122874 0.000000 0.000000 0.000000 6.147621 0.000000 0.000000 0.000000 4.827918
9.912398 0.000000 0.000000 0.000000 6.262393 0.000000 0.000000 0.000000 4.866580
10.144259 0.000000 0.000000 0.000000 6.112170 0.000000 0.000000 0.000000 4.873384
9.897574 0.000000 0.000000 0.000000 6.211368 0.000000 0.000000 0.000000 4.888112
10.116318 0.000000 0.000000 0.000000 6.123880 0.000000 0.000000 0.000000 4.889729
10.025923 0.000000 0.000000 0.000000 6.111399 0.000000 0.000000 0.000000 4.898620
10.339876 0.000000 0.000000 0.000000 6.209687 0.000000 0.000000 0.000000 4.841467
10.129673 0.000000 0.000000 0.000000 6.093227 0.000000 0.000000 0.000000 4.836635
10.214368 0.000000 0.000000 0.000000 6.160922 0.000000 0.000000 0.000000 4.802120
10.219178 0.000000 0.000000 0.000000 6.326163 0.000000 0.000000 0.000000 4.741289
10.408704 0.000000 0.000000 0.000000 6.120042 0.000000 0.000000 0.000000 4.801309
10.006529 0.000000 0.000000 0.000000 6.274223 0.000000 0.000000 0.000000 4.879697
10.010748 0.000000 0.000000 0.000000 6.165423 0.000000 0.000000 0.000000 4.812767
9.991323 0.000000 0.000000 0.000000 6.076225 0.000000 0.000000 0.000000 5.019214
10.113057 0.000000 0.000000 0.000000 6.125476 0.000000 0.000000 0.000000 5.006195
10.042171 0.000000 0.000000 0.000000 6.303455 0.000000 0.000000 0.000000 4.796084
10.210783 0.000000 0.000000 0.000000 6.153755 0.000000 0.000000 0.000000 4.928434
10.101264 0.000000 0.000000 0.000000 6.178015 0.000000 0.000000 0.000000 4.821364
10.051792 0.000000 0.000000 0.000000 6.345165 0.000000 0.000000 0.000000 4.720093
10.057338 0.000000 0.000000 0.000000 6.068074 0.000000 0.000000 0.000000 4.859385
10.522229 0.000000 0.000000 0.000000 6.059269 0.000000 0.000000 0.000000 4.837948
10.150566 0.000000 0.000000 0.000000 6.132119 0.000000 0.000000 0.000000 4.907066
10.402508 0.000000 0.000000 0.000000 6.030235 0.000000 0.000000 0.000000 4.917082
10.284135 0.000000 0.000000 0.000000 6.192714 0.000000 0.000000 0.000000 4.854928
10.293286 0.000000 0.000000 0.000000 6.128947 0.000000 0.000000 0.000000 4.795722
10.251477 0.000000 0.000000 0.000000 6.131541 0.000000 0.000000 0.000000 4.850489
10.645359 0.000000 0.000000 0.000000 6.063231 0.000000 0.000000 0.000000 4.898197
10.100837 0.000000 0.000000 0.000000 6.232415 0.000000 0.000000 0.000000 4.969079