10.2849 -0.24782 5.00251 5.0414 6.39238 2.55667 0.571252 3.09218 4.87069 3.11362 4.52099 5.07153 2.40381 1.43264 2.40479 7.28672 1.48055 -0.093872 7.97144 4.81037 2.49099 1.17783 4.92678 2.17781 4.06113 1.56657 4.7438 9.17424 1.48934 2.66558 6.33828 4.6465 0.344611 1.33821 4.92789 3.74667 4.00132 1.43413 1.13428 9.10274 1.50797 1.07038 6.46136 4.84443 3.91107 4.82922 4.54066 0.778602 0.53012 1.3221 3.04001 5.50274 1.49944 4.24025 9.89597 4.96948 1.68725 2.02433 6.0006 1.50153 3.34354 0.336754 4.05767 8.54788 2.69955 3.31132 7.19445 3.557 1.031 8.41783 0.24124 3.39183 6.85092 5.94828 1.07809 1.81621 3.55014 1.53644 3.22815 2.80361 4.2528
10.2521 6.20696 4.91185 4.86477 6.27912 2.70268 0.0511314 2.94639 4.97031 2.8279 4.68459 5.00196 2.17865 1.44367 2.45416 7.34533 1.44768 5.04589 8.35524 4.75826 2.53029 1.16332 4.49942 2.1981 3.95421 1.727 4.86994 9.26806 1.58514 2.61655 6.59265 4.69923 0.169501 1.22347 4.67202 3.69356 3.84218 1.70486 1.38972 9.22357 1.45564 1.03879 6.79886 4.88052 3.67573 5.09588 4.69659 0.565825 0.191243 1.25173 2.9651 5.4256 1.57045 4.5458 10.2096 4.6889 1.70937 2.03698 5.68207 1.54696 3.17292 0.51366 4.11807 8.97101 2.94092 3.19756 7.31923 3.49577 0.787274 8.22627 0.628899 3.38759 7.28377 5.93173 0.892471 1.69926 3.19703 1.55926 3.21363 2.91714 4.23127
-0.115852 -0.125131 5.02741 5.58708 -0.0672317 2.43953 10.1198 3.33591 -0.32456 2.99759 4.66829 4.87611 2.30895 1.31957 2.6769 7.46668 1.39535 5.16244 8.07196 4.67894 2.42196 1.07458 4.96912 2.15977 4.06943 1.41051 4.9518 9.28386 1.40405 2.66203 6.46686 4.75212 0.117085 1.1757 4.66647 3.64211 3.72238 1.38792 1.42841 9.21061 1.34538 1.06156 6.54109 4.79165 3.58745 4.93612 4.77438 0.505371 0.352698 1.67562 3.12287 5.54035 1.13996 4.60301 9.99976 4.7376 1.71471 1.47845 6.38864 1.67244 3.25134 0.169399 4.2244 8.53784 2.73238 3.11946 7.21819 3.52028 0.802128 8.69188 0.200424 3.44037 7.20105 6.03241 0.838079 1.87718 3.95844 1.27669 3.27066 2.63674 4.29229
10.2796 6.18637 -0.287304 5.48924 0.240186 2.44866 0.246336 2.9793 5.06553 3.08216 4.63963 4.84603 2.28821 1.5946 2.25416 7.3316 1.60318 0.0118887 8.08818 4.52826 2.6892 1.16228 4.68714 2.09931 4.03093 1.5635 4.7769 9.26324 1.65814 2.75984 6.31195 4.47357 0.308273 1.2544 4.69942 3.63926 3.9613 1.59363 1.18438 9.05196 1.6269 1.22881 6.50059 4.47433 3.86121 4.79197 4.56893 0.680415 0.444074 1.52445 3.20881 5.51052 1.66695 4.24162 9.97587 4.828 1.69496 1.82616 5.94953 1.47845 3.48692 0.271838 4.23418 8.70409 2.99061 3.46048 6.97776 3.22773 1.01691 8.3916 0.604145 3.51125 6.96896 5.72999 1.03277 1.71535 3.43341 1.44343 3.2709 2.80554 4.16201
9.65634 -1.03769 4.55524 5.2289 7.25984 2.62496 9.4962 3.2552 -0.0786651 3.86658 4.61143 0.519403 2.32589 1.39494 2.79496 6.58208 1.66675 4.4923 8.30593 5.98954 1.90981 2.0504 4.75308 3.21952 3.82338 1.11992 0.287775 8.16705 0.780931 1.89429 6.66299 5.05246 4.70296 2.31403 5.14329 4.75525 3.78987 0.653012 1.73102 8.07262 1.73511 0.714687 7.02209 5.88146 3.48514 5.31194 5.72365 -0.00199082 9.58644 0.56174 2.62689 5.16824 0.476981 -0.305798 0.960252 5.83937 2.78847 3.32169 4.92127 2.37234 2.64076 0.580575 4.68397 6.96771 1.03476 2.86333 6.37618 3.59881 4.29991 7.96779 -0.679324 1.29782 7.93776 5.22798 0.312846 1.53744 3.30376 3.13645 3.86697 2.67183 0.138391
1.33718 7.27951 0.570475 4.86978 7.25476 2.87379 9.62452 3.47888 0.0276092 3.72165 4.44398 0.769857 2.2309 1.69308 2.53911 6.75131 1.74118 4.1889 8.31321 5.86607 2.14097 1.79118 4.91695 3.14039 3.69518 1.09516 0.324227 8.55998 0.714104 1.63666 6.65552 4.89518 4.67937 2.02991 5.08479 4.66334 3.47195 0.186683 1.56162 8.18439 1.60589 0.378854 6.98679 5.82718 3.53621 5.3469 5.44987 0.429214 10.0888 0.814415 1.92669 5.04175 0.786709 4.67158 0.704672 5.89485 2.51617 3.21661 5.40449 2.37869 2.52742 0.93966 4.42748 7.5535 1.14425 2.71699 6.31022 3.49614 4.01069 8.30726 -0.834462 1.28586 7.78235 4.76981 0.599596 1.41359 3.46739 2.87381 3.46706 2.50305 1.07703
1.52234 -0.726259 4.73065 4.54802 7.06086 2.35712 9.0031 3.25229 0.781947 3.33625 4.16814 0.518645 2.81725 1.99027 2.34282 6.97725 1.69616 4.82193 7.89514 6.31011 2.02131 1.66187 4.86352 3.14507 4.00059 0.733864 5.02122 8.71205 0.826613 2.37155 6.3597 4.99353 4.45426 1.64781 4.13109 4.63149 3.43264 -0.2436 1.02449 7.46419 1.48659 1.61322 6.41632 5.94184 3.23099 4.88429 5.20744 0.0682352 0.811141 1.41998 1.85388 5.52752 0.444095 4.67564 9.4884 4.77413 2.5295 2.29351 6.25776 3.1433 3.21298 0.626951 3.6367 8.49486 0.821761 3.91153 6.70566 3.54006 4.08582 8.83997 -0.592093 1.76948 7.58182 5.41375 0.358048 2.70339 3.8805 2.31586 3.92442 2.21357 0.60617
0.296991 0.181254 4.91118 5.07712 -0.0764554 2.51472 9.95887 3.20235 4.93505 2.99989 4.55575 4.79145 2.11554 1.6822 2.43589 7.3664 1.59386 -0.0109943 8.27577 4.81488 2.40306 1.00619 4.8037 2.3727 4.00039 1.35962 4.82522 9.39031 1.41797 2.55983 6.5586 4.64938 0.228938 1.02971 4.53935 3.93526 3.82326 1.42346 1.35629 9.27526 1.38786 1.08943 6.82294 4.87263 3.70909 5.00913 4.48195 0.490419 0.262563 1.74579 3.11685 5.51126 1.34528 4.43482 10.1419 4.55559 1.93821 1.44665 6.23219 1.9404 3.36978 0.0243225 4.23924 8.38156 2.52411 3.20979 7.35863 3.44211 0.932314 9.06134 0.0812507 3.26944 7.14977 5.8897 1.03034 1.80615 3.72065 1.57573 3.11435 2.47582 4.1711
10.3102 6.27943 5.09561 5.11033 6.41169 2.47711 10.1752 3.17307 -0.124689 3.04029 4.68046 -0.113381 2.41384 1.46555 2.33728 7.36426 1.60337 0.0654468 8.05797 4.58925 2.53903 1.14483 4.71679 2.08633 4.14824 1.60501 4.74858 9.23521 1.37674 2.80684 6.36876 4.69002 0.206721 1.01834 4.6134 3.62288 3.99646 1.62076 1.10268 9.04146 1.45983 1.21027 6.52627 4.66562 3.89357 4.8892 4.9207 0.539337 0.551333 1.38225 3.22909 5.61962 1.67139 4.31165 9.79084 4.70488 1.56343 2.05865 5.83314 1.35774 3.39444 0.462003 3.97625 8.61145 2.72422 3.43936 6.87443 3.38786 0.975364 8.45521 0.160544 3.47574 7.10126 6.04672 0.84209 1.81724 3.42719 1.48129 3.38495 2.87683 4.09293
10.1418 6.21416 4.98728 5.11662 -0.101242 2.43765 0.122872 2.92885 -0.00627746 3.15116 4.71477 0.259163 2.22281 1.41498 2.42862 7.47271 1.73938 -0.0732471 8.06308 4.68383 2.51899 1.09242 4.62454 2.22122 4.03412 1.56118 4.82262 9.25004 1.29356 2.58196 6.40547 4.92702 0.0745089 1.15741 4.73016 3.76114 3.82475 1.39637 1.28577 9.19678 1.30271 1.01987 6.29134 4.89826 3.53476 5.0179 4.76907 0.742119 0.376535 1.36438 3.04872 5.5732 1.65787 4.54789 9.9945 4.48658 1.66112 1.72917 5.94224 1.6214 3.44075 0.370594 4.04072 8.47388 2.56223 3.33239 7.29172 3.73774 0.721225 8.61552 0.0147308 3.14764 6.98228 6.2503 0.701506 1.92379 3.47677 1.57186 3.4099 2.85843 4.27785
10.234 6.20076 4.989 5.08168 6.00966 2.61252 -0.0162514 3.15115 0.0247499 2.95923 4.64091 4.91527 2.34612 1.49789 2.35081 7.31217 1.44844 0.169056 8.26999 4.92269 2.6154 1.09132 4.78164 2.15872 3.94528 1.49425 4.76449 9.412 1.59899 2.73454 6.3624 4.5546 0.145045 1.11731 4.72552 3.6951 3.88564 1.52897 1.2194 9.19518 1.51267 1.16026 6.75138 4.57892 3.71041 4.87178 4.79499 0.422764 0.393945 1.39954 3.16829 5.43959 1.47339 4.19552 10.1657 4.93513 1.54993 1.93479 5.99571 1.53599 3.05463 0.27281 4.16643 8.99766 2.98424 3.33773 6.86779 3.28792 0.794278 8.54703 0.459141 3.5217 7.09575 5.78917 0.987461 1.77268 3.49792 1.39313 3.3477 2.82212 4.05064
10.1566 6.18705 -0.0723548 5.41566 0.180995 2.60202 0.303587 2.92137 4.89938 3.02368 4.91754 4.98474 2.36431 1.34745 2.2797 7.35845 1.60437 0.0774821 7.97571 4.61302 2.41817 1.2567 4.54291 2.21861 4.12484 1.57732 4.78087 9.21562 1.64124 2.70827 6.26738 4.69594 0.23234 1.30187 4.5514 3.7557 4.0859 1.51204 1.24575 9.0425 1.62284 1.13411 6.39978 4.69498 3.78565 4.74136 4.71009 0.704123 0.458011 1.5143 3.12179 5.62327 1.51924 4.39027 9.98031 4.70932 1.86429 1.92957 5.81307 1.45954 3.34753 0.290201 4.07963 8.55002 2.83437 3.44963 7.07674 3.45736 0.830825 8.30796 0.472111 3.3051 7.07825 5.877 0.931719 1.82825 3.23357 1.55143 3.33259 2.79811 4.33082
10.165 6.22674 0.120566 5.31843 0.125106 2.66846 0.233965 3.21622 4.97745 3.01952 4.64202 -0.057265 2.40512 1.57428 2.53856 7.32274 1.64727 5.01852 8.03129 4.60343 2.2998 1.3172 4.78743 2.3659 3.95735 1.3673 4.86029 9.16351 1.49881 2.65662 6.34955 4.71994 0.0690373 1.3218 4.77093 3.88256 3.97282 1.36433 1.2923 9.01582 1.36004 1.05796 6.63592 4.68661 3.57982 4.81581 4.61611 0.251673 0.530621 1.33998 3.24797 5.44489 1.50613 4.2992 10.0105 4.91551 1.86278 2.20017 5.91146 1.78293 3.2458 0.200593 4.11068 8.68814 2.89066 3.08064 7.16269 3.50408 0.614928 8.3463 0.42458 3.50762 7.00612 5.87502 0.78825 1.9266 3.51232 1.64435 2.93927 2.5474 4.29113
8.93057 -1.09561 4.76245 6.20844 7.42569 1.98805 1.51904 2.27993 4.07534 3.31616 4.70813 0.491677 2.54723 -0.217423 2.72454 7.03921 2.24392 4.52834 7.64678 4.09314 2.4243 1.48578 5.76866 2.88257 4.0735 1.32777 0.494178 8.83723 1.1397 1.86137 6.38941 5.35429 4.77439 2.22337 4.7837 3.82579 4.05407 0.442237 1.80869 8.87591 1.79475 0.44931 6.15764 4.89757 3.30148 4.98141 5.63018 0.499287 1.07579 1.06277 2.46264 5.51206 1.22062 4.85544 9.17192 5.27861 2.91973 1.52375 7.21783 3.57303 3.01084 0.717755 4.48461 8.00092 2.08479 2.83991 7.1438 4.06369 0.523629 8.13873 -0.191542 1.82842 7.10529 6.61515 4.97728 2.07571 5.76864 1.44768 3.66384 2.78171 0.849239
8.76227 -0.992343 4.78723 5.97774 -1.08009 1.76441 1.13891 2.71459 4.89158 3.49829 4.71987 0.407843 2.17488 -0.0806527 2.953 6.8625 2.23099 4.60954 8.08345 4.37899 2.08854 1.8143 5.44086 2.76152 3.84409 1.17606 0.379816 8.70406 1.17232 2.03542 6.59054 5.27852 4.8671 2.04992 4.78479 4.09951 3.72554 0.511969 1.82714 8.51315 1.43364 0.419728 6.88207 5.17548 3.31754 5.07851 5.66724 5.06268 0.841515 1.36053 2.50195 5.27169 0.88885 -0.173743 0.726393 4.74837 1.9238 1.28442 6.91486 2.88401 2.63908 0.399617 4.74409 8.05205 2.36687 2.74014 6.75221 3.8542 0.457012 8.06838 -0.153361 2.48115 7.36656 6.35709 0.516543 3.08002 5.63082 1.92577 3.5919 2.74856 0.417147
8.73202 -0.794511 4.82107 6.13811 7.34239 2.1177 0.875915 2.48707 4.46992 3.55153 4.57381 0.619049 2.35155 0.156948 2.85284 6.87185 2.18043 4.26537 8.08108 4.4998 1.88534 1.83303 5.49048 3.22337 3.93318 1.2248 0.287163 8.50812 1.17091 2.07859 6.45097 5.29416 4.73292 2.20268 4.54447 4.48512 3.69247 0.178021 1.48488 8.43207 1.28846 0.47198 6.67195 5.34924 3.20113 4.97624 5.70066 -0.0361444 0.626291 1.04715 2.49689 5.27366 0.802011 4.75615 10.0692 4.74847 2.40898 1.46721 7.00459 3.51103 2.65597 1.0609 4.48311 7.87472 2.52459 2.66069 6.77764 3.84645 0.202845 7.78906 -0.00109338 2.6524 7.55357 6.06566 0.265172 3.09455 5.44169 2.30355 3.91538 2.71474 0.826467
8.35845 -0.895818 4.53739 5.98632 -1.03314 2.23371 1.04829 2.1004 4.68942 3.46437 4.53074 0.307615 2.53835 -0.0959241 2.96805 6.83695 2.39443 4.48225 8.14753 4.31432 2.22692 1.93881 5.60928 2.80536 3.81995 1.27815 0.632821 8.4695 1.05673 2.03342 6.54675 5.37141 4.55777 2.06771 4.59703 4.05206 4.02053 0.339028 1.83768 8.29809 1.05962 0.523419 6.85608 5.50961 3.10961 5.23416 4.66089 4.73967 0.806923 0.879063 2.42834 5.32115 1.37894 0.123943 0.805395 5.02448 1.97196 1.63173 7.08996 3.21991 2.83201 0.713404 4.56242 8.01409 2.57549 2.98588 7.56526 4.19376 0.0965325 7.54033 0.0824251 2.61023 6.61448 6.69954 0.304827 3.24037 5.48716 1.90132 3.06048 2.60445 0.936188
7.53994 -0.781697 4.93426 5.27046 7.39864 2.28493 1.29211 2.99254 4.95861 3.97695 4.42709 0.46836 2.00726 -0.138339 2.80599 6.72252 2.27087 4.41037 8.40942 4.45083 2.10211 2.23466 5.60092 2.93729 3.72396 1.06671 0.470446 8.3008 1.26048 2.12978 6.77133 5.29546 4.49478 2.45332 5.1516 4.43096 3.39083 -0.0212746 1.6034 8.08794 1.5677 0.576634 7.17194 5.76425 3.06196 5.74396 4.10574 4.48961 0.671396 0.859252 2.22913 5.08236 0.81251 4.8318 1.21372 4.54561 2.36559 1.50325 7.01773 2.94755 2.4927 1.06623 4.49499 8.09988 2.59567 2.90937 8.08471 4.59865 0.171594 7.44681 0.129962 2.62859 6.1201 6.48281 0.153717 3.56739 5.62588 2.10803 3.68073 2.50254 1.0908
8.43895 -0.880229 4.52448 5.65084 7.0555 2.19699 1.18953 2.4977 4.46845 3.65946 4.52533 0.432315 2.2764 0.0384654 2.87478 6.83298 2.13521 4.20789 7.98505 4.53505 2.15904 1.85574 5.60122 2.93807 3.97927 1.21545 0.478089 8.39824 1.02812 2.01419 6.67469 5.35619 4.88638 2.19439 4.70782 4.22405 3.85242 0.216039 1.59538 8.30084 1.12872 0.404216 7.04783 5.7109 3.37361 5.16948 5.71113 5.37012 0.705967 1.03303 2.35372 5.39405 1.11138 4.82438 0.714357 4.75126 2.29533 1.46079 7.08119 3.2056 2.8791 1.01886 4.35079 7.93646 2.46909 2.59657 6.9254 3.85994 0.131975 7.56925 -0.0132242 2.75481 7.52768 6.27933 0.853488 3.03538 5.68065 2.02079 3.84041 2.66769 0.910179
8.94211 -1.25129 4.51345 6.21123 -0.912504 1.74711 1.33943 2.08086 4.59532 3.40057 4.48042 0.101566 2.67262 -0.296543 2.85764 6.99877 2.35714 5.08857 7.52408 4.30804 2.14413 1.79344 5.49859 2.62509 3.98359 1.15429 0.464188 8.6417 1.22934 2.39586 6.18573 5.5489 4.70412 2.48279 4.50386 3.45711 4.15156 0.281674 1.88181 8.55785 1.56998 0.798629 6.26722 5.2524 3.1613 4.8543 5.97774 0.135994 1.33187 0.937997 2.41199 5.37272 1.12185 -0.18641 9.19964 5.23459 2.36413 2.16878 6.95001 3.23337 2.89268 0.389351 4.63999 8.19549 2.44446 3.29542 6.7166 4.306 0.393402 7.78063 0.0458812 2.84685 7.09725 6.72501 -0.0544922 2.51211 5.65587 1.19142 3.55945 2.60805 0.586033
10.2802 6.29974 4.83682 5.20146 0.00565251 2.39346 -0.0895464 3.32578 0.00375326 3.09843 4.48446 4.67186 2.19413 1.40644 2.47324 7.37031 1.54796 0.161087 8.18502 4.84499 2.57137 1.14851 4.66687 2.11281 4.01815 1.35966 4.77994 9.29116 1.75698 2.78377 6.37101 4.60797 0.232528 1.22185 4.57935 3.60235 3.79786 1.59107 1.25231 9.21154 1.79194 1.22658 6.64053 4.63913 3.73091 4.82962 4.67542 0.611074 0.378999 1.645 3.31811 5.52833 1.43131 4.54532 10.0616 4.79856 1.74163 1.9201 5.9239 1.43906 3.33628 0.162217 4.06733 8.72898 3.01852 3.50715 6.99157 3.35041 0.898253 8.53055 0.522861 3.53082 7.21473 5.82449 0.996562 1.72341 3.46289 1.42655 3.29333 2.52243 3.97666
-0.159166 -0.0397733 5.04618 4.96296 6.34094 2.40399 10.3976 3.11639 4.91326 3.07502 4.57533 4.87961 2.38791 1.78603 2.24286 7.20546 1.54438 0.308212 8.1855 4.4792 2.64358 1.0791 4.81289 2.18087 4.14249 1.41466 4.63443 9.29908 1.4504 2.76069 6.33286 4.76091 0.295391 1.28161 4.65571 3.76445 4.07744 1.55435 1.1627 9.20971 1.52744 1.21204 6.53205 4.75686 3.79317 4.89471 4.53644 0.663521 0.404646 1.65409 3.22551 5.6184 1.33549 4.07309 10.0776 4.59634 1.62752 1.61455 6.15859 1.55258 3.19383 0.280819 4.02396 8.36704 2.60562 3.39822 7.27524 3.64337 0.870177 8.78439 0.0734264 3.31507 6.86297 5.99878 1.12807 1.95848 3.69615 1.47814 3.4619 2.72838 3.85997
9.96462 6.17028 0.140227 5.41095 -0.0263001 2.49315 0.176245 3.07512 4.89439 3.02984 4.8074 4.96636 2.48485 1.70261 2.45798 7.31927 1.67263 0.0644557 7.95867 4.57399 2.6208 1.22674 4.67856 2.19928 4.03655 1.48184 4.62362 9.22015 1.32771 2.6887 6.28693 4.75344 0.280558 1.41143 4.6175 3.70039 3.78695 1.66039 1.06022 9.17192 1.47577 1.11527 6.46212 4.61713 3.81747 4.78519 4.80618 0.709178 0.619191 1.56546 3.14959 5.56769 1.48494 4.34922 9.77095 4.44197 1.73245 1.78674 5.94963 1.59507 3.45988 0.178638 4.06411 8.43174 2.5171 3.30027 6.98126 3.51073 0.932216 8.63586 0.0252497 3.25344 7.17061 6.00804 0.694059 2.03446 3.5279 1.41721 3.40985 2.78502 3.97483
0.345329 -0.293346 4.99811 5.09338 6.61893 2.48453 10.0744 3.13663 0.236317 3.0175 4.37195 0.171917 2.36577 1.31875 2.48392 7.35044 1.45558 4.70576 8.0474 4.81847 2.41953 1.1625 4.77783 2.35575 4.05079 1.44885 4.67868 9.18242 1.43962 2.61099 6.43152 4.95042 0.288284 1.13261 4.75605 3.92528 3.92924 1.57523 1.38955 8.97331 1.23149 1.10165 6.46382 5.06427 3.54483 4.92913 4.90316 0.726953 0.513599 1.38063 2.99533 5.56285 1.48946 4.25513 9.92831 5.02053 1.84996 2.01159 6.04768 1.87568 3.47813 0.208244 3.92189 8.56751 2.74174 3.14831 7.33963 3.73339 0.663951 8.6154 0.291416 3.51619 7.01463 6.24262 0.91881 1.82689 3.53497 1.53263 3.18496 2.63922 4.09656
0.136889 6.24504 0.0225966 4.94257 6.05132 2.45756 0.285432 3.29613 4.96693 3.08658 4.60226 4.87605 2.32479 1.42362 2.4988 7.32486 1.60255 -0.0215771 8.02386 4.79144 2.59714 1.28948 4.69188 2.15693 4.03214 1.46674 4.60743 9.21887 1.63264 2.8095 6.32894 4.74285 0.275102 1.55544 4.65868 3.67505 3.89989 1.37059 1.00316 9.08841 1.5885 1.27437 6.44283 4.80939 3.82257 4.81559 4.72324 0.618399 0.569323 1.48522 3.31779 5.52711 1.33625 4.07773 9.89838 4.71365 1.73692 2.07332 5.93846 1.54294 3.22947 0.346597 3.80219 8.61644 2.85047 3.47329 7.06296 3.45223 0.786694 8.48862 0.482725 3.62757 7.0122 5.89729 1.10958 1.86786 3.38085 1.56461 3.31267 2.75527 3.9937
10.3588 6.19139 0.10745 5.27778 -0.101142 2.53978 -0.243819 3.35227 4.8368 2.96964 4.82052 -0.0361874 2.29426 1.65793 2.40117 7.43827 1.50964 0.0435055 8.01133 4.36654 2.54523 1.14424 4.72208 2.17738 4.10005 1.5669 4.63582 9.38034 1.44595 2.65102 6.33893 4.73686 0.289032 1.28563 4.75192 3.77096 3.93737 1.33835 1.20442 9.21155 1.49403 1.11179 6.45696 4.73612 3.72036 4.84597 4.68766 0.718505 0.277627 1.45675 2.94603 5.60287 1.54924 4.37888 10.2468 4.60893 1.92351 1.66139 5.99944 1.39878 3.31439 0.391231 3.97357 8.60601 2.70678 3.36033 7.00474 3.47139 0.941863 8.63446 0.348917 3.38835 7.17533 5.9021 1.02683 1.96227 3.46303 1.45861 3.39325 2.90217 4.19441
10.1771 5.90235 0.0129936 5.50327 0.259275 2.43 0.175765 2.91875 5.0571 3.01217 4.69796 0.082745 2.28361 1.56347 2.35273 7.34344 1.59585 5.07323 8.10653 4.45819 2.31551 1.11198 4.75382 2.22797 3.9627 1.53101 4.83424 9.35056 1.59667 2.65691 6.32947 4.73711 0.206494 1.17316 4.74245 3.79016 3.80552 1.40494 1.27844 9.16255 1.66041 1.14778 6.45783 4.81739 3.73958 4.81237 4.74519 0.819086 0.353935 1.65939 3.03383 5.5085 1.65992 4.49465 10.1307 4.51064 1.73266 1.67157 5.94905 1.40988 3.46859 0.235079 4.1584 8.55517 2.77175 3.40139 7.08698 3.57381 0.857218 8.7272 0.310934 3.19524 7.25797 5.90621 0.733023 1.97123 3.52442 1.60083 3.09926 2.70927 4.25036
10.3098 5.99128 4.87503 5.08449 0.155488 2.53674 10.3658 2.96645 4.93134 3.03234 4.60802 0.0973198 2.41563 1.72907 2.57413 7.34223 1.41351 -0.0639402 8.10878 4.4947 2.40263 1.13376 4.6954 2.17393 4.00483 1.5904 4.7478 9.27502 1.4807 2.58556 6.46469 4.89988 0.222802 1.15865 4.54662 3.80854 3.92088 1.59145 1.20822 9.25455 1.39873 1.04337 6.53332 4.90128 3.83497 4.88722 4.77052 0.564734 0.318552 1.34413 3.18998 5.55462 1.53181 4.48445 10.1252 5.00412 1.70201 2.08768 5.77964 1.55795 3.32209 0.395337 4.02984 8.70463 2.79126 3.23608 7.27914 3.66724 0.765933 8.37706 0.344288 3.30436 6.89778 6.05252 1.06577 1.54724 3.36793 1.51914 3.25988 2.79929 4.09883
0.133698 0.0794387 0.122773 4.88097 5.92576 2.35876 10.2796 3.23165 0.0360516 3.11446 4.77033 4.88411 2.33212 1.66758 2.44419 7.2685 1.5336 0.0376886 8.00236 4.49314 2.44491 1.25574 4.77121 2.18602 4.15284 1.59671 4.63429 9.09742 1.51984 2.95568 6.39599 4.72104 0.169882 1.36984 4.84285 3.70507 4.18842 1.36241 1.07594 9.10792 1.28683 1.44519 6.41495 4.78009 3.6632 4.90446 4.61487 0.567466 0.388886 1.36152 3.39778 5.62388 1.48619 4.12235 9.93603 4.79465 1.65752 2.11502 5.76554 1.44561 3.41234 0.469608 3.85682 8.6935 2.87029 3.54082 7.26582 3.47085 0.674193 8.29686 0.378614 3.75217 7.07839 5.79103 0.993608 1.78462 3.30108 1.55538 3.28262 2.87792 4.07515
0.0123102 0.079652 5.03124 4.99525 6.06581 2.58065 10.2953 3.19202 0.0245911 3.20155 4.439 4.93792 2.10024 1.59658 2.45878 7.44471 1.63963 4.75167 8.21562 4.65693 2.50775 1.01331 4.86652 2.26355 3.97419 1.38068 4.8275 9.29363 1.48745 2.67179 6.45826 4.7004 0.210925 1.107 4.84184 3.79913 3.71719 1.40067 1.31664 9.33554 1.39421 1.1377 6.5269 4.79694 3.62486 5.0185 4.57965 0.614651 0.0948952 1.6226 3.31885 5.50982 1.48002 4.47301 10.2304 4.74405 1.59789 1.62514 6.28635 1.74189 3.4432 0.0923497 4.18287 8.44348 2.85326 3.17812 7.51223 3.56762 0.52293 8.59341 0.330086 3.46955 7.07219 5.85237 1.09246 1.8834 3.69712 1.78608 3.19868 2.56951 4.07146
10.6156 6.42531 0.130551 5.23565 -0.140211 2.58368 -0.0398957 3.0341 4.9973 2.95901 4.72865 4.75215 2.27536 1.60884 2.32794 7.30395 1.58853 0.303564 8.21373 4.63766 2.64131 1.10259 4.66192 2.12214 4.11848 1.5335 4.7441 9.38721 1.48161 2.68017 6.21325 4.72149 0.229459 1.09475 4.75322 3.62348 3.99302 1.43873 1.32912 9.1787 1.51267 1.1463 6.55032 4.55261 3.69757 4.70353 4.93522 0.567344 0.324017 1.38908 3.00259 5.58601 1.26876 4.41371 10.0137 4.72284 1.70679 1.82002 5.89292 1.46062 3.32906 0.377224 4.07435 8.87962 2.7679 3.41308 6.89627 3.46405 0.858213 8.62357 0.247097 3.29538 7.11564 5.88144 0.856197 1.68864 3.35059 1.34261 3.35868 2.84306 4.14049
0.263962 -0.19413 4.80921 5.04672 6.54476 2.56323 10.0007 3.27882 5.11376 3.03496 4.62192 4.90982 2.48607 1.89599 2.42765 7.30415 1.0693 0.178031 7.99323 4.56579 2.30852 1.1476 4.85006 2.22818 4.11162 1.33357 4.71871 9.30444 1.48133 2.74426 6.29985 4.79731 0.223286 1.28444 4.67413 3.76739 4.07259 1.50903 1.27643 9.03476 1.37409 1.2225 6.3656 5.03412 3.69367 4.84987 4.7243 0.578863 0.641776 1.52692 3.17004 5.62212 1.31124 4.21057 9.7805 5.17641 1.81402 2.08291 5.93852 1.66926 3.33062 0.161018 4.15034 8.86587 2.86217 3.19731 7.12496 3.61405 0.778663 8.57289 0.271667 3.44683 6.96525 5.95747 0.976681 1.57427 3.46354 1.58661 3.39263 2.66306 4.07309
0.398252 -0.133331 -0.0296225 5.38352 -0.0332256 2.45974 9.69322 3.38047 5.01961 3.02959 4.44479 0.109259 2.4439 1.2831 2.45842 7.32161 1.62385 -0.0303823 7.94511 4.64836 2.41645 1.25741 4.56848 2.32834 4.11273 1.56108 4.7633 9.15329 1.45487 2.65442 6.30481 4.84496 0.120592 1.23782 4.63946 3.8447 4.08803 1.68018 1.20728 8.94495 1.50689 1.10035 6.26161 4.78892 3.59719 4.89527 4.97788 0.680916 0.566634 1.63492 3.14012 5.58763 1.27455 4.1928 9.84435 4.64117 1.75741 1.97687 5.95389 1.71652 3.12341 0.421161 4.16002 8.45352 2.74753 3.34508 7.22161 3.68164 0.753943 8.79867 0.127944 3.35374 7.10684 6.08148 0.62523 2.0318 3.46051 1.61301 3.52816 2.96399 4.15608
8.80003 -1.0796 4.74024 5.94255 -0.804497 2.59189 1.32799 2.65208 0.273368 3.64926 4.59806 4.93073 2.43948 -0.256828 3.01623 6.92624 2.03753 4.56335 7.77557 4.53238 2.12507 1.71173 5.33067 2.41547 3.90491 1.23736 0.554294 8.60526 1.21919 2.25786 6.42694 5.4373 4.80814 2.21378 4.53774 3.6145 4.20275 0.849862 2.00616 8.27428 1.3285 0.632906 7.37909 5.78318 3.62112 4.97415 5.8065 4.36227 0.961314 1.06901 2.32102 5.27916 1.16783 4.73102 9.66384 4.47441 1.68373 1.32059 6.78526 2.95001 2.85341 0.392616 4.78788 8.06222 2.61241 2.80199 6.66702 3.90431 0.269207 7.91308 0.197817 3.07097 6.86744 6.31807 1.00214 2.7763 5.533 1.35878 3.57441 2.77554 0.625087
8.52449 -1.28356 4.72239 5.74304 -1.20618 2.39815 1.05449 2.29203 4.76974 3.57089 4.56137 0.19012 2.35309 0.104963 2.57882 7.03922 1.94546 4.6018 8.20111 4.54874 2.16813 2.00015 5.70579 2.66907 3.85241 1.12435 0.410835 8.16077 1.15442 2.36945 6.6035 5.279 4.77535 2.11682 5.40023 4.13654 3.98637 0.605841 1.91756 8.2707 0.867722 0.884257 7.37551 5.74168 3.53987 5.08784 5.26001 4.32474 9.65094 1.13292 2.86222 5.20352 1.24211 4.70715 1.01799 4.87736 1.83341 1.56198 7.1704 2.35488 2.97374 0.239327 4.49465 7.58625 2.58392 2.75759 7.28567 3.87831 0.375963 7.36658 0.15195 3.27725 6.70908 6.39316 0.96172 3.43598 5.38964 1.97967 3.18686 2.63189 0.430635
8.81366 7.18354 4.74048 5.95291 -1.13545 2.57765 1.18008 2.6998 0.0816069 3.52963 4.58074 4.2411 2.50927 -0.00844298 2.57209 6.98098 2.33859 0.732576 8.00938 4.20521 2.4253 1.94263 5.46574 2.0976 3.99392 1.42212 4.8155 8.39461 0.930837 2.94104 6.25843 5.54922 4.78692 1.93464 5.32402 3.65213 2.82062 1.15494 1.08926 8.30505 1.22752 1.41551 7.51151 5.47952 3.64905 5.06011 5.54989 3.85784 0.930244 0.699209 3.442 5.34814 1.3055 0.762749 9.63619 4.6956 1.73196 1.78533 6.9924 1.90976 3.95143 0.246065 3.69481 7.9151 2.38917 3.58398 6.29452 4.24668 0.903458 7.62469 -0.243167 3.46572 6.61181 6.83935 0.815644 3.11426 4.86862 1.41232 3.59875 2.61937 3.9666
0.206675 0.0695836 0.280809 5.31831 0.170661 2.57484 -0.136649 3.04522 4.59099 3.08629 4.77098 4.91926 2.19143 1.35253 2.72278 7.42807 1.48225 0.0212173 8.12864 4.73073 2.49049 1.24148 4.65299 2.09648 4.00233 1.57898 4.79565 9.19371 1.46708 2.62464 6.3071 4.75982 0.281602 1.48252 4.7818 3.58899 3.76143 1.19805 1.44446 9.25837 1.43456 1.02193 6.27712 5.01928 3.60073 4.91184 4.76816 0.890879 0.34049 1.32544 3.11153 5.4647 1.75036 4.48599 10.0301 4.85185 1.68488 1.96318 5.79545 1.3247 3.54914 0.259994 4.04495 8.59623 2.86561 3.00712 7.08515 3.44712 0.74115 8.42128 0.145747 3.25655 7.09577 5.99785 0.953172 1.83392 3.32929 1.57917 3.11495 2.70067 4.07919
10.0706 -0.0567485 -0.05979 5.25852 6.1413 2.54125 0.313799 3.11557 4.80365 3.06653 4.61695 4.87041 2.43237 1.57431 2.29033 7.441 1.47895 0.157337 7.98586 4.51688 2.62041 1.17721 4.73262 2.13528 4.10649 1.66757 4.46167 9.20277 1.52692 2.82641 6.32107 4.6472 0.479467 1.1886 4.85608 3.68708 3.94708 1.82128 1.13495 9.07264 1.45809 1.32373 6.43932 4.77484 3.75569 4.85264 4.85528 0.838905 0.610013 1.45745 3.2883 5.59681 1.66762 4.08179 9.82775 4.57722 1.68037 1.78133 5.93349 1.37437 3.27794 0.431269 3.91473 8.53793 2.72488 3.64148 7.06093 3.44296 1.10753 8.3559 0.316825 3.42367 7.0828 5.88833 0.991495 1.89153 3.44934 1.57195 3.29505 2.8877 3.78061
9.85622 6.11302 0.161988 5.1342 -0.0218807 2.2891 0.490815 3.01848 0.0187041 3.10384 4.67037 4.71462 2.5668 1.58454 2.53608 7.36057 1.70649 4.84002 7.92527 4.77022 2.58954 1.27797 4.7593 2.19276 4.1128 1.51508 4.60138 9.16417 1.49331 2.77961 6.23278 4.53925 0.332641 1.36407 4.89351 3.7311 4.06477 1.70913 1.25854 9.08229 1.5592 1.23281 6.27889 4.43815 3.74823 4.74484 4.65608 0.782444 0.736113 1.38705 3.32802 5.59878 1.44256 4.06209 9.67561 4.63357 1.83514 2.048 5.92268 1.51929 3.39356 0.302534 3.84988 8.44892 2.69396 3.45592 6.90144 3.37969 1.14377 8.35729 0.288732 3.36563 6.99631 5.76443 0.985022 2.01049 3.51103 1.6179 3.28037 2.70733 4.03596
10.2194 0.00664858 5.04912 5.10371 0.0147442 2.38405 -0.083008 3.07119 4.99042 3.09403 4.77652 4.67356 2.39093 1.62729 2.36199 7.36588 1.51152 5.14522 7.98833 4.57253 2.57204 1.26084 4.58379 2.11307 4.1734 1.72299 4.52349 9.19465 1.50939 2.93344 6.30073 4.55739 0.293037 1.30857 4.5682 3.63811 3.95622 1.59387 1.20089 9.21717 1.48225 1.39619 6.39535 4.62097 3.62338 4.80887 4.60231 0.712901 0.538813 1.57985 3.3823 5.6357 1.74243 4.08051 9.88183 4.61678 1.71357 2.05997 5.81602 1.5212 3.3582 0.490019 3.95959 8.54023 2.77997 3.57639 7.10876 3.44447 1.03438 8.40907 0.231667 3.50497 6.92732 5.83061 1.02133 1.83178 3.48173 1.30636 3.48526 2.99368 3.82688
0.6364 0.170654 -0.00331855 4.92968 -0.168839 2.54372 9.68642 3.42245 0.0574244 3.18811 4.55605 4.97807 2.51821 1.72432 2.37017 7.30442 1.66083 0.0472534 7.85065 4.51287 2.52902 1.25776 4.6364 2.29649 4.18435 1.61684 4.59488 9.14738 1.36967 2.68505 6.2211 4.69461 0.33429 1.38847 4.52422 3.80769 4.19309 1.52912 1.24686 9.04778 1.4697 1.14015 6.17786 4.70936 3.68609 4.85924 4.4648 1.02246 0.713202 1.49631 3.14466 5.60689 1.65949 4.03673 9.72646 4.87409 1.81034 2.14094 5.7322 1.5996 3.40998 0.360072 3.97575 8.39016 2.58542 3.26923 7.20252 3.56385 0.810054 8.47588 0.165201 3.34918 6.80175 6.0204 0.859976 1.92884 3.4673 1.55368 3.53495 2.86057 4.02914
9.9422 6.04773 -0.0221477 5.30027 0.161939 2.50167 0.354766 3.08412 -0.0764197 3.26596 4.68272 4.59346 2.35399 1.54267 2.23832 7.3042 1.50652 0.229447 8.00011 4.53883 2.61463 1.30707 4.65098 2.14756 4.16043 1.73672 4.59438 9.1565 1.51625 2.76295 6.18991 4.64909 0.438833 1.49019 4.71872 3.72385 4.02116 1.70932 1.24097 9.17859 1.78359 1.20405 6.27663 4.69257 3.83139 4.74204 4.7387 1.04683 0.51209 1.37559 3.28014 5.68232 1.5985 4.15056 9.88631 4.41858 1.77671 1.77725 5.97976 1.45746 3.36116 0.489228 4.03083 8.40372 2.77368 3.52657 6.83828 3.38187 1.12969 8.30009 0.403318 3.43131 7.01776 5.74918 1.19844 1.97936 3.48242 1.4391 3.40986 2.86228 3.95523
9.86901 6.00132 0.177219 5.31031 0.104631 2.52098 0.357943 2.92945 -0.110317 3.01584 4.6153 4.85097 2.49758 1.64075 2.45593 7.30175 1.6627 0.133508 7.97334 4.54777 2.42428 1.30151 4.67717 2.23621 4.16362 1.65229 4.65587 9.15119 1.51774 2.7967 6.2856 4.69712 0.307613 1.27131 4.73201 3.75807 4.23627 1.53873 1.29237 9.13109 1.60186 1.24297 6.33488 4.54151 3.66322 4.91052 4.81551 0.767401 0.589675 1.47054 3.24323 5.56803 1.53161 3.96316 9.8536 4.42739 1.68448 1.92552 5.92386 1.57484 3.3146 0.411899 4.0019 8.35367 2.7498 3.45569 7.04077 3.49194 0.929502 8.28633 0.304564 3.0826 6.9886 5.93967 0.935181 2.16242 3.50741 1.61316 3.29912 2.87376 4.17592
10.3169 0.157358 4.86976 5.16589 5.99265 2.77104 10.2402 3.06899 4.83329 3.05192 4.65065 0.0329373 2.34899 1.49191 2.50832 7.34379 1.48336 0.0812163 8.12152 4.78746 2.54931 1.10666 4.76989 2.18821 4.07897 1.64561 4.60356 9.2662 1.60097 2.68703 6.37275 4.44777 0.301665 1.21192 4.74073 3.74736 3.87098 1.65496 1.31915 9.16717 1.47473 1.17852 6.48494 4.49366 3.6228 4.93517 4.69434 0.806979 0.413631 1.43277 3.10329 5.51513 1.57488 4.18297 9.94148 4.93303 1.71918 1.94849 5.93086 1.53243 3.3976 0.311215 4.07646 8.7592 2.9393 3.2277 7.09592 3.23222 0.90616 8.32023 0.509877 3.34334 7.10223 5.72033 0.932608 1.70986 3.4486 1.47224 3.49243 2.8473 3.90202
0.224133 0.114054 0.203972 5.05117 0.141258 2.46865 10.3097 3.30199 4.91944 3.07855 4.79616 4.92906 2.22154 1.68133 2.34938 7.48041 1.46335 0.1598 8.01323 4.52253 2.45121 1.2238 4.75235 2.22488 4.20528 1.62647 4.57236 9.17109 1.47947 2.78979 6.22024 4.5561 0.303742 1.31549 4.71346 3.79593 3.83561 1.59526 1.26228 9.23278 1.56948 1.24966 6.34518 4.43297 3.60537 4.76815 4.41655 0.779297 0.484727 1.25914 3.20798 5.64009 1.59025 4.14686 9.91512 4.65333 1.75342 1.86461 5.97618 1.58048 3.55869 0.348944 3.95867 8.62451 2.78262 3.41448 7.1636 3.44825 1.00535 8.36843 0.265864 3.36798 6.81178 5.80183 0.984232 1.94657 3.59217 1.45244 3.462 2.79441 3.78564