-31249.352815093
-31249.1045680782
-31249.3747331712
-31249.4954470259
-31249.5370836872
-31249.5934791153
-31249.3668466359
-31249.4341766809
-31249.4166072517
-31249.5779501308
-31249.5109202272
-31249.6822567539
-31249.1296892067
-31249.6543969371
-31249.2676890842
-31249.2285500185
-31248.3840606635
-31249.3026461706
-31249.5835322712
-31248.1901245499
-31249.6894994682
-31249.3516126226
-31249.5538794972
-31249.2887143573
-31249.6330113854
-31249.3791550188
-31249.5924386886
-31248.9995637555
-31249.0045220753
-31249.0888582741
-31249.2206147748
-31249.2733393891
-31248.8898377159
-31249.2383107368
-31248.8410376615
-31248.7358964656
-31247.6441092285
-31248.942705326
-31248.9778788788
-31249.3101520188
-31249.1656261745
-31248.7955817483
-31248.9155818488
-31249.4812422826
-31248.4756677404
-31248.3819203532
-31248.7664351057
-31248.2766458217
-31248.4097711904
-31249.1063004901
-31248.7137636897
-31248.5492612985
-31248.931334919
-31248.9954635463
-31248.2440491856
-31247.9328266253
-31249.1270103834
-31248.6407753124
-31247.3834824009
-31248.4212815998
-31248.3455543982
-31249.3463488552
-31248.2372511051
-31246.9568668972
-31247.7094672655