-0.394804256281232 0.878686649528126 -0.133941549944617 0.476022534946085 -0.527512962897345 -0.275128464852167 -0.713261957649123 -0.599327436611196 -0.0833985730184962 -0.648608773868293 1.41658712093744 0.425509125691033 -0.0531565019384775 0.455482259519411 -0.301493571479522 0.916026504325913 -0.0965325325075468 0.220030266810067 0.154019027041508 -0.113044919804011 0.787700240782659 1.3345247495411 -3.23400670351172 1.24469250840808 -1.19760483523415 -1.17946648313905 0.831609003651345 0.436608572300322 -2.24605773919501 -1.57481966966144 -1.10787389551331 1.52543060323758 -1.78955115270568 -0.14194410439711 -0.660774713517548 -1.06000615004352 -0.269014641805554 0.360630970499892 0.468752487405565 -0.483948727674164 -0.307622306916762 0.91763807095429 0.0535066860080131 -0.804324213898638 1.62365569208121 0.613250981472892 -0.0421385592572669 -0.307413019227626 -0.400715476503473 0.515001210051668 0.574363323372166 1.2927160626489 0.718568454720448 0.0189896439117181 -0.890452268622119 -0.134192746593616 0.156285967526894 0.64654212221563 0.966387704352503 -0.876395026465152 -0.186884393320845 0.215715700825576 -0.230496708148287 -0.50314148863062 1.85847545085004 1.12611612012243 -0.0663079449199866 -0.995626274387442 -0.803020408159567 0.511963710347194 1.00468580880312 -0.425738467974459 0.479947064782642 0.711737551372855 -0.222577200284972 -0.0639229908605062 1.06757933049005 0.411541357877824 0.206514498698946 -0.754341480061737 -0.722903846629779
0.215336463305338 -0.488908383108335 -0.0213391167659151 0.822613489671285 -0.509029826046555 -0.537685784406335 -0.198063029866564 0.146491869317775 -0.106458785350837 1.36385870745402 0.661922710485592 0.0601231594628069 0.0320523838800188 -0.383679098653621 0.169998939148539 0.0494746841148727 0.640867700472127 0.609984396595176 -0.71204685492326 0.0548583142411619 -0.524957801896577 -1.53235638024278 1.8265305390266 -1.69657419692178 -0.810010462710568 -1.2905748490431 1.91434420811122 0.0234510198108236 -1.19191292999819 -1.43742075908316 -1.81542800709511 0.663081248971148 -0.665526109703317 -0.353270163064698 -0.434840168460186 1.81946180875954 -0.253101064125791 -0.649493747118911 -1.5770043348882 -0.547832123566455 0.474897935004713 1.11659353026678 -0.633652674510814 -0.79449257760277 1.26619977523381 -0.278641618395584 0.33109132444041 -0.483014132158186 0.578151584811621 -0.467954674507056 1.06709390646414 1.05845397586746 0.0773405428816403 -0.803342052998766 1.16216039670701 0.323960630619191 -0.26616843207739 -0.247679381692387 -0.693795888567912 -0.196855640446197 0.0800000906167918 -0.00734280972236938 0.681904799704511 -0.622316429422786 1.6153746873003 0.917260633205333 0.823370164940479 -1.45534442417528 -0.1602495781113 1.89590966508506 0.199346781011344 -1.01406955915983 0.230041880234184 0.0985127951386505 0.042421637568984 -0.238785940455062 0.464959083762445 0.0585069648511323 -0.0916908906474699 0.788132443000639 -0.233227732514371
0.618302425242471 -0.504744056402584 -0.288343928269296 -0.496943590554096 0.0845473413170903 0.116948623715729 0.228593064351781 -0.10912090418782 0.502060083200027 0.257844232785698 -0.151505517890422 0.0191444242420121 -0.833785955572606 -0.258799911336699 0.648766125300419 -0.290604698110284 0.0894308921370309 -0.233130287754934 1.08959618969891 -0.48011572906283 -0.655534293763308 -1.00756878528749 -0.189007094993449 -1.8520633799909 -3.57950185463607 -0.815972076528719 -0.562527513198156 0.614891601551972 2.49539213913674 -0.607063882024064 -1.11191489626286 0.446628156140118 0.380664738865636 0.838751781651175 0.586408164125128 1.52671589704346 1.73115654500461 0.00377000661644673 -0.970982777546879 -0.219459996423702 0.215151086863241 1.52366117095671 0.25240146731727 0.171204014577257 1.53488685866595 1.06812054742571 0.153843677896557 -0.241801842904146 -0.0990910359406956 -0.540489313844086 0.0486084799076294 0.455911376415193 0.910016810903501 0.185708628453014 -0.629902722488658 0.329837398076882 -0.125283621635115 0.302785807260349 -0.137908760071588 0.402388749575821 0.536032051707912 0.65344244531269 0.202609766346496 -0.227557681643983 -1.13635039096521 0.516758558153927 -0.391835919216042 0.620204783488061 -1.01033066287556 -0.392710608059331 -0.0569673890740551 -0.447191484551537 -0.539868392751627 -1.49011857645479 -0.640629359332289 0.567106131340806 -0.219125496075342 0.0736672096940816 1.25925291519359 -0.669652213923513 -0.0477062802747363
0.00771690503894375 -0.224010332446199 0.540951340843319 -0.44576400881434 -0.063458392759441 0.283724172497331 -0.482299108738671 0.130253047256249 -0.539451360034456 -0.193276666695878 0.358024130352299 0.127044826390122 0.122453095628128 -0.167512683676873 0.27655491214863 -0.304946818350251 -0.800536466679549 -0.364284763313526 -0.488431186608292 2.03024485072018 -1.55298124491973 -1.94291274900871 2.16616023554132 1.28538302311349 1.96399398426087 2.19505324949002 -0.783332710100426 -0.413540646662485 0.548090005080217 0.23342210781288 -1.05971947218924 0.788859036378398 0.14573673670968 0.454837427179914 -0.30205844255204 0.742373772363739 -0.172897342243895 -0.0325126111079694 1.76710620504177 0.787738035979591 -0.194026914210492 0.199066788021826 -0.00434670475739265 0.618664436380434 0.883759690553095 0.788592156008224 -0.152050077258466 -0.0430672412390309 -0.532843628325892 0.04725119525045 -0.344358467004365 0.280868192582205 -0.313000023508837 0.769721039890967 -0.675326892777199 -0.395569673296656 -0.17365478884364 0.936094982566391 -0.00925828058730344 -0.658988054854403 -1.49650056542249 -1.81060667693951 -1.67732281484355 1.23500562514536 -1.98776973423309 0.413775645369942 -0.0760174538788282 0.996456226058853 -0.166832884352459 -0.0313167916458475 -1.02122107890589 0.201795498396262 0.81983207170929 -0.375373411295121 -0.566539460497006 1.45084268197741 -1.02738812376043 -0.510060323660871 -0.52783512195691 -1.00270323218037 -0.489541902599771
0.204966438285823 0.14081641913354 0.132560096930216 0.00659487619940385 0.217644027199671 0.0613153793823638 0.114768072251902 0.217726816678665 0.0930939409172611 -0.370755969514805 -0.679723734020318 -0.166485528494939 0.0578006831778472 0.329667448245778 1.01278863622707 -0.513396842508422 0.645383840840257 2.30814187802518 -0.471692542350601 0.415234745659673 1.66154884799327 0.132321755790378 1.60065564353174 1.15107971914109 0.799552506008395 -0.034809633484791 -3.94365729152744 0.754446381016488 -3.16801191879489 0.254226435397713 -1.1777014217313 0.534315069904418 1.1584955481555 -0.38685543785703 -0.412998658396273 -1.13724821972499 -0.87493669750597 -0.478590037235646 1.73411408344211 0.294350536369509 1.00594873402306 -0.762395970771239 0.112221395887181 1.09326849444573 -1.68617331868028 2.1396920277305 -0.810216150857138 -0.325588138078927 -1.80733135031557 1.18964367552116 -0.344110869897931 -0.649445410404467 0.711407164787427 0.271475957589448 1.07369135376538 -1.04229794328493 0.384316217687622 0.50840993339483 0.323860357647738 -0.119647766419095 0.535016980704588 0.539434647872548 1.00001617365561 1.11821846662469 -0.641040992735612 -1.63298827751147 0.504480518464791 0.102548396574356 0.449262249967131 -0.316966462305258 0.918779640167753 -0.24307942340453 -1.04888767728067 -1.73752773534462 -1.63162430798952 -0.449238595830276 -0.723531452587002 -0.23164856176908 -0.289323260957153 -0.257587122602485 0.552212509757849
0.0923303236731196 0.233178881579561 0.251478441759536 -0.0672888202689427 -0.0946026634723528 -0.100455776793188 0.176088850948114 -0.334362537301424 0.165399495081049 -0.017341310527142 0.301936315215014 -0.402912997239391 -0.206381572734225 -0.844792585405755 0.52152229562849 -0.916886794998942 -0.91290184426933 1.75213750728531 0.423038811050726 1.12283539418464 -0.222038811561324 2.48441456275429 2.84584514592397 -1.84620769556823 0.404522764096486 -0.517535545127595 0.494653510152221 0.0572854343706891 -1.97939205602329 -1.6177257028156 -3.80947662911244 -0.870036691634304 0.980009401859108 -0.231048723711644 0.32125788837326 0.466375503761764 0.00426931459224565 -0.732562190662162 0.0511410152122738 0.958369466178834 -0.29219698147492 0.761653950782487 0.00392067318380933 1.43288944921422 -0.94568262129839 1.54043863885207 -0.795599436941501 -1.57105377680793 -0.45842411423573 0.540066110482518 0.182124769609213 -0.270966365206321 0.693663476823557 0.429849402693845 0.144859990984925 -0.842783783544315 0.81577204480618 -2.31630152679962 -1.09453476209806 1.44028033854085 -0.633051808012646 -0.106169793504906 -1.22749389403262 0.923129687357528 -0.678004952445542 -0.991684261058426 -0.258424016248842 2.14021653250425 0.594893828611877 0.231627992954423 1.05405456352251 0.311561234923579 1.63466437879583 -0.454813773043058 0.79221329582859 -0.643420804591428 -0.79364102867597 -0.376621167014251 0.750051596654834 0.657986867800973 -0.709189332347035
-0.328274425273132 -0.0633149252772084 0.0950220101811726 -0.218402502240148 -0.248555613196775 0.494558122274249 0.316948464592433 0.807270696598254 -0.0281360815693241 0.647706317125216 -0.0561142974861556 -1.07165915487726 -0.568517409136461 -1.17273919519529 -0.263723828455404 -0.953640438579004 -0.105777443365323 -0.699738733342688 0.910250781170224 -0.153229698779045 0.239205801384248 2.40223109246166 -0.13467405685659 1.8584453689586 1.33393750988265 0.0604435187510898 -0.970563430838059 -1.87813949477232 -0.71712966613519 -1.05766747581702 -0.066755830859143 0.486185072047747 1.5671410740398 0.0192187290849606 1.06630149287948 -1.82994984735315 -0.193769546917096 0.54215590205167 -0.973801990705805 0.894819027973802 0.376462530031209 1.32277635682939 -0.20653481040342 0.171933950387398 -0.710237827674176 1.98593551018605 -0.326636890516251 -0.399959572564828 2.41084916869276 2.29771760275701 0.107466143048664 -1.15873671750735 0.148922074769501 0.193816083860258 -2.29848764775573 0.150937304385522 -0.898859000282623 -0.194871778272529 -0.658127764181374 0.449502390878252 0.335786413496056 0.338798716402575 1.47716407987362 0.310029372451998 0.308476426945394 -0.467475678235731 -0.413456314522391 -1.04380846561131 0.0521020930771226 -0.712107790036681 -2.32275087863532 0.362348209413569 -1.18983059462435 -0.126660703776402 -0.0538882375199007 -1.00077284892481 1.09689709046141 1.2539091371457 -0.185413723072869 -0.722982522345842 -0.0477954975083111
-0.00625626208811282 -0.374176306282083 -0.145178807612108 0.418665623944463 -0.483162998954266 -0.0799005889758885 0.42508309411745 0.540693459329556 -0.120723515425656 0.21497728037939 -0.309664533102019 0.505788695076977 0.12073097162097 0.19757374918791 0.0964556565627662 0.454187452636753 -0.19024765162745 -0.2543614182439 0.131228780401541 -0.131962058644063 0.492109147779149 -0.0817091020046061 -0.251020271413052 0.558806614626703 -0.575324915457381 -0.947963959954035 0.142686895716412 -0.0496184087072886 1.043500704722 5.16383974328004 -1.55080634987993 -0.115229585030769 0.153437186696898 1.04610034578446 0.927420599205164 -0.637776978959728 -0.125957250315133 0.0437997481510037 0.432763232400194 -0.191937379751523 0.00327378396284636 -3.4465229252174 -0.289366712578115 -0.377101705946676 0.591092968773445 1.00867513040585 0.347174337730909 -0.230417518211857 -0.89045792504615 0.552017620238973 -0.428445323983321 -0.382070103127077 0.287558970879947 -0.0656273742650228 -1.12758370504821 -0.200967603606317 -0.94838690620542 0.323183129425156 -0.639746185852954 -0.170106411205122 0.0629557423512603 0.00345556086237769 0.0143688596990208 1.04997808156768 -1.14787509781753 0.306406947080715 -0.463648078938244 0.773537583450575 -1.37884900246586 -0.721977992860031 -0.222986776806829 0.157529095262727 -0.24773003239848 0.194584843308063 -0.138555906402734 1.1116523867658 -0.096393693008612 -0.0741382355497271 0.337026713019874 0.573907724127513 -0.496293873121118
-0.206844371064008 0.126236986194468 -0.227839474404784 0.587515023463858 -0.297889143821064 -0.142584051643127 0.124276778157655 -0.337974935375562 -0.112990926665537 0.403146196175565 -0.803812307523861 -0.558143784574381 0.0430626132557331 0.888979027272311 0.245264602851654 -0.205871466130731 -0.494540638781791 -0.205132788574361 -0.526284747552138 0.0895815587043935 0.434045697994059 -0.610758812467012 -1.86495514168736 0.487636201921799 -1.31011136631452 2.53094224994918 -0.0673608111202423 -2.07898831347399 1.1216429171549 -1.09712566141429 0.390669410314806 1.7610330054041 0.38809830848268 1.18381627321864 1.15695108728494 0.0242961409830435 -0.196315451951268 -0.663607039295818 -0.778889331914146 0.996613577490979 -0.0410743802089498 1.44223797547583 0.626340203790064 -0.220573797737379 -0.621996327244687 -1.15461369860935 -0.0547500708540294 0.474498642890184 0.566628420620397 -0.45489476275077 -0.0886382214421863 0.338637765427884 -0.694343790368338 0.0340581004192605 1.42208696486655 0.750251114157007 -0.345586682349571 -1.37873253155287 0.138772393176999 0.920149780334094 -0.216538196301674 -1.25161288609943 0.269200275357833 -0.0440067218484898 -1.244041248314 0.0926740799880749 0.694439949576859 1.33726914363672 -0.41938733222874 0.984436582103846 1.2181898478327 -0.478980587603946 -0.675360317101017 -2.47764767984232 -0.184400451840828 0.0272205122069039 0.010726893953814 -0.445667078275269 0.215536237917694 -0.228857630730306 0.962564218817948
0.463010188573694 -0.620117880246135 -0.256071458072447 0.162643531027193 0.182860361843385 -0.0190467223723913 0.231226643958428 0.239559842106532 -0.399171529853281 -0.325222784508582 -0.475022376333388 -0.642223442468207 0.763604902852705 -0.149538882099028 0.0814435071853474 -1.28668734307293 -0.154680571542914 0.143034508684115 -0.112510387733112 -0.463877678331853 -0.765935606663527 0.149683635132177 1.44450491596122 1.08199549846278 1.69129495352987 1.31507719239308 -1.02024740264207 -0.837157698515257 1.49282080448035 0.265465492836487 0.312581191020383 -0.0522185639901179 0.739020798464463 -0.186836056606401 -0.603530416776173 0.120409841002137 -0.512060383776082 -0.362289331181613 1.93159810117607 -0.303347335900485 1.06213142281795 0.744591861914314 1.07651159536504 -0.314259092076029 1.35410214733165 -1.33708453852517 0.120179213167795 -0.158790477821568 0.146502410835287 0.4409509061846 0.590204653090445 0.180342481819183 -0.241810841760559 -0.278726978976411 -0.572059616130581 0.0585519591331945 0.116924969578873 0.553110081407444 -0.216249975786292 -0.92150680788109 -0.809910189739115 -1.01341367108246 -0.664592542628072 0.857632153735028 -1.49759302659096 -1.01319692719801 0.13140078711411 0.644642077961688 -0.730308619906303 -0.253018017536614 -0.198085398452503 0.536492278935862 0.523114578993126 -0.718531173743882 -0.403199932203857 0.371098440278844 -0.615838281246561 -0.11325446460333 -1.07786348070837 0.695777693860115 -0.319010231151615
0.366268368377012 0.801522998452536 -0.665228376111157 0.0782247448017086 0.160067801211768 -0.179991269308915 -0.151292116438355 -0.375270567221836 -0.417655695144803 -0.283606158923237 0.0327041581944628 0.197532354448413 -1.06770839980202 0.172198773876107 0.817438890123947 -0.321665408013652 -0.380350550221751 -0.404486768670836 0.563169774435821 -0.412139139053793 -0.637109263813925 1.12645936221702 0.101783236669115 -1.62535390484133 1.08947560502298 0.720925640880142 -1.99536785436739 -0.152964875290336 0.29686121730858 0.294595819484294 0.879116023534091 1.94135594684936 -0.0637306724434632 0.0166116318271845 -0.256694950266737 0.0109523795844914 0.406081366027121 -0.129267029703629 -0.493281827324782 0.118063196359955 -0.0206431194999585 1.28916562812892 -1.11387947517279 0.656665578569444 1.23874246454817 -0.628091895468292 0.173958693080197 -0.243699058946072 -0.298917070333548 -0.117907901809295 -0.465212594403093 -0.964023576217862 -1.07479204245971 1.22183669867139 -0.34590112810364 -0.74052437881589 1.48536512338755 -0.364261880507221 -1.09027161815021 0.346559587282848 1.29695246713769 1.12701934819606 0.0401775798899042 -0.408271944788092 -0.346880460791497 -0.406600471487027 0.868125334532301 -1.44510192580664 0.623205002215969 0.431752018049619 0.828602357168856 -0.797085790910653 -0.11937368696379 -0.567295878656017 -0.932924814007379 -0.476603603960145 1.13914286466508 1.04989914874143 -0.543738672339527 -1.19566956688511 0.712257942383677
-0.152942506704397 -0.0997752061382244 -0.0821449037651515 0.185986307450884 -0.394694984453366 -0.379479975141393 -0.0504079940799346 0.15416480851539 0.401842647546677 -0.118806759009806 -1.08300079927914 -0.374581511930826 0.27172098359405 0.462070965074418 0.34796829397667 0.467758499437265 -0.288983361294945 -0.572159889102034 0.290436548050463 0.114027080703884 0.602239723656445 -1.06155935266031 -0.154169179388504 -0.784655284882872 -1.07021805230036 -0.200858331778452 0.611078657534929 -2.43449276403081 -1.72179696300512 -0.365267695543948 -0.517115684198409 -0.471563730148811 0.211040666364221 0.926448208492253 0.834976889941247 0.501829712475869 -0.541308209777618 -0.910950377978746 0.618615585445624 0.959162651094045 0.0408697205031126 0.744808605798762 -0.00981929500707339 0.381482349248253 -0.371336267198316 2.5795723271122 0.286646743949909 -0.0379792878234362 0.535423214794064 -0.604303547097093 0.216660066528516 -0.587168438936888 -0.128275355726978 -0.657151773925899 -0.472529178886775 -0.0783412157147039 -0.854491552847085 0.124242325393104 -0.979123143057574 0.532104693659339 0.84449279493213 1.39945098433651 0.0851654341975334 0.253307009382545 1.21167853244284 -0.18372913715246 -0.615285494352654 0.655724298188702 0.429717505169857 0.99597183047368 -0.374638847501682 0.223034342190724 -0.572827604247837 0.0556877516922058 -0.114821294059827 -0.109098535601881 1.57294739330729 0.368336305580591 -0.120942830411937 0.320747781769766 -1.11664392386269
0.0816306833987262 0.687961544290451 -0.844764817505968 0.305639473183826 -0.819603243646231 -0.723100021699571 -0.244211736651398 -0.874086434130086 0.189722632633329 -1.16502871791093 -0.0472468243773353 0.0489987731657462 -0.525261449022951 -0.220286091442364 0.182591424591744 -0.0509414977101008 -0.899930892636436 -0.283700518360476 0.351789979739942 0.19978181144134 0.0406056683449532 0.221910513579901 -0.192754990134139 -1.92522973904808 -0.553977571165603 1.8616448480785 -1.87494824317829 1.45280031891239 -1.46122196296352 0.501938984303734 -0.0825472812018792 -1.44183816914094 -3.42968297954752 -0.0063575635002986 -0.159173571994555 1.55486663389322 -0.0616583643667694 0.045691307768899 0.562206382579323 0.530361486617157 0.248535815712668 1.88455465095366 -1.1345999848379 0.807763062599107 1.41215171316684 1.75313843722856 0.139272215373165 0.662839822509112 -1.91245804780718 0.211102629918375 -1.3828550362305 -0.963601401297027 0.212280451667672 1.08608714991842 -0.405274297162016 0.00619018477102718 -0.197658081328004 -0.201010541006913 0.624012328191257 -0.807938668854241 0.755038505768426 -0.846371756151047 0.503497586234369 -0.163837293607849 0.356004015642797 0.747373279876308 0.0188765154311046 -0.661640403504425 0.929592151812577 0.172620691686758 0.872414189498471 -0.941375254399029 0.222429619039808 1.88835756767356 1.06467167142809 -0.207449351325107 -0.312523341229161 0.330778678457623 1.81197861687713 -0.22433377705668 0.708776156282612
0.0191791341167458 0.0204230331831285 -0.0153605336756719 -0.143261794086075 0.217119008205551 -0.0119178283224548 -0.0586640591730752 1.2269657897163 0.818111747473415 0.241166523641428 -0.56655822954038 -0.557459100156485 0.183046252505847 0.273292183923662 0.741337104105025 0.912451387228341 0.335955334886426 0.377468345067937 1.32008492743152 -0.231708982662134 0.250572385473895 -2.25110352654056 -0.610565465609237 1.46433633861278 -0.568380369408808 -0.97129259531765 -0.443391138933471 0.71601483638078 -0.122699664293829 0.354711265641604 -2.29346628587759 -2.39849990948287 0.912009929043765 0.637383600379413 -0.616752565058065 -0.146384654371376 0.526396590481835 0.0621435312824917 -0.718638645800465 -0.122637443629491 0.0700162450924623 0.141542755401116 -0.316013354856089 0.501816085636159 0.277495164088639 0.68656492177524 -0.727945777322579 -0.340918589863163 -1.3714187752812 -0.0440087787299555 -1.26354896924489 -0.66478768925713 0.0769222246135534 0.319620610726562 1.19850420665503 0.398196568038539 -0.618294969047158 0.352687808499721 -1.15214749773198 -1.42128683797639 0.790079795528292 0.237132721977005 0.589149472898541 0.0854199732789139 1.12797219853504 -0.629101310047584 -1.03249998842306 0.887972698015217 -1.00441944265331 -0.124773000811255 -0.955595504412153 0.162886757260512 1.77441379066904 1.98489035729129 0.0193267153619099 -0.476034876234879 0.682224387662244 0.947668797463707 -0.0203528421031115 0.29473234499158 -0.205514854306615
0.588824742737143 0.591079599043918 -0.561092838375829 -0.302826944889663 0.283979740019445 0.206608858136185 0.0311905505458901 -0.237709934338317 -0.134895171614153 0.345463269461629 -1.14777122530351 -1.31982576036684 0.493298796596874 0.758894901406432 -1.01221630895924 0.231796143014244 -2.12084765107229 -0.845467756746872 0.941686871941082 -0.43616582856483 -0.0913152526697962 -1.45620831439088 2.18568723973595 -1.07253358661037 -0.72788664198044 -0.242118345539681 1.45627567725888 -0.171583252097496 -1.01066953409703 -0.946469635569204 -2.27258508234797 0.463652706921542 -1.69887970393465 0.200225840727748 -0.840436110461401 1.31947223386492 0.380659339551789 0.408534454285152 -0.199051618521016 0.628178798710217 -0.541156257659339 1.69809191833328 -0.250948537671935 0.426501056777867 1.3141947902443 0.610980184334759 0.000259681285044752 -0.47990284183113 0.707157647679289 -0.849817032606097 -0.640604162534334 0.185609641032477 0.489008398969605 -0.145052309401968 -1.30704198494732 -1.42534326533693 -0.327940182034956 -0.209937663678239 0.480829724041611 1.10810940844113 0.773855114526842 1.07432230215498 -0.291562176432568 -2.14524200814532 2.27123962475922 1.34062674551929 0.848161757246574 0.96178568918318 0.800346719364339 0.194966651930134 0.485641541120436 -0.36787042192861 0.851219054435155 -0.670500420417932 0.43696775522627 1.06659562692907 -0.0250494738198565 0.595716581198158 -0.235609858361836 -1.3338310662668 -0.141730960055227
0.302630512709688 -0.468538057512765 -0.607567560872977 -0.572412628412132 -0.0559134944330665 -0.175945126355698 0.10045834789502 0.268544901500824 -0.0614385351601227 1.00375301305843 0.234524853388679 1.77176529867176 -0.123216969982452 -1.31570685523177 -0.647483145486188 -0.871239195961189 -1.30756957504328 1.19388985019691 0.197638798064263 0.253155314374449 0.505869941894872 0.252739310098011 0.0797090418893951 -1.29663673583271 -0.42078061231157 0.0483858224889673 2.69353281627863 0.553635614621931 0.922214889325657 -2.30128912031201 -1.80806051479516 -1.85382844139865 -2.90404614965708 -2.3414715852954 1.14223281484693 -1.86885164651395 0.0459031665598662 0.798530493030124 -0.0484138474989374 -0.133356624277809 0.355581326501596 1.27417559022725 0.0160575593823613 -0.286765785964737 -1.2028252003941 0.85098174173605 0.112842831200006 0.466363676693336 0.718405446864291 0.873564757568348 -0.0091657209213469 1.11915640457305 0.912635221009338 -1.01227133053844 -1.25253334055533 0.0324596464102276 0.558020371686439 0.37278276908907 -0.976593693075128 0.285202556050804 0.0353277105039644 0.27657650940402 -0.456693248482343 0.584886586060876 0.114909482852669 -0.317047194902787 -0.0464307566558185 -0.672008628752657 0.757054249604813 -1.41910165852926 -1.21751827603415 0.59883635616126 2.32969953844683 2.88197915396249 3.11869921409544 0.257644201063158 0.115833793961319 -0.0879568794566729 0.246903680269634 -1.26923778915865 -0.225777964955786
0.0405246786372412 -0.556740477194406 -0.124567055554502 -1.60369931388062 -1.3311506926068 -0.667751141228839 0.0989210861095921 0.711352400318403 -0.223011202274235 -0.338098605373687 -0.733327864787769 0.194763534885396 -1.02249711674518 -1.11929858650436 -1.04188939520381 -0.743568049164761 -0.418747642092907 1.13568164737867 0.0236333109307214 0.919680297139547 -1.29993571659351 0.998016370650587 -1.20232794929977 0.545805838212556 1.01611204245527 0.918415829258508 -2.15765785889266 0.402663343251492 2.31100454280507 1.5105112706363 1.48052065331546 0.450212786314468 4.68639024681713 0.254855841126218 1.3293403798068 -0.76233606409855 -0.613047607317971 -0.619644026178474 0.401174932400874 -0.00651285805095903 1.69401183683588 -1.24671030912593 0.971384897873423 0.761660378537067 -2.96218981781933 -2.51939723139238 -1.12372242431672 -0.0675880965222022 1.03065573707888 0.232958281042365 0.343134879642456 -0.952990206925659 0.671453784977284 -0.372508432523582 -1.41672698887711 -0.160062659008104 -0.648640141310645 0.472746436991589 -0.500912086231983 0.0619026190408214 1.28712700148622 0.10274482875433 2.23023337874882 1.01938402664684 -2.46474589084871 -2.43885669517048 -0.203734109177685 1.02521554271228 0.464810731186732 -0.5574634710296 -1.14339623842597 2.13838513666923 0.454609113337221 -1.02490469650078 -1.22005801042393 -0.512284326745661 1.00785057804829 1.20832118767045 0.93886560190069 0.26308002455664 0.312584276342582
-0.096264366586456 0.125725851150241 -0.164256897426852 0.0387349346518981 -0.0802911393441884 -0.188734815309427 -0.17648634329136 0.0818800802764425 -0.0977190960030731 -0.451779872881149 -0.0774721832954452 0.390211754188688 1.04482585060628 -1.47794363794912 2.13002674172317 -0.888389473622204 -0.0917212296490889 0.496730703322396 0.189979999926725 0.646297353321211 0.0981484700090382 -0.952499897806273 0.653881589505617 0.430446155429082 -1.31258168095482 0.667790221976687 -0.54092023051115 0.567401808051501 -0.453691229983152 -2.19793494042347 1.62300057533439 -0.0497904154198578 0.909201514512534 0.852362937640268 -0.206561549862474 -0.28511025349503 1.79960236109801 0.466855014253455 -1.27665233262214 0.0807809342432085 -0.416829343015958 0.864821468678019 0.333340267212971 -0.8632289282032 -0.0875390754089524 -0.835463599518069 -0.909006367883475 -0.0492463702721799 -1.24636578148043 1.46572499071231 -0.604079089907148 0.734097909786491 -0.00362525358329803 -0.0193020327843215 -0.0103137178893913 0.0243719884870912 -0.368095650449104 1.05379308246618 -0.155939640110106 -0.0224794004284631 0.682235443400122 -1.09300289962648 -0.281225318626688 -0.545627403745407 0.685694603805065 0.418718845752388 -1.49607967605257 1.17101424297612 -0.637390799464543 -1.10257999684096 -0.628105265197819 0.612061846875534 0.211543316772402 0.224912532079092 0.401490149485493 -0.238002782836996 -0.292295711785274 0.0366862807120599 0.140734658095278 0.585356840585971 0.0321426295543264
0.404681143969345 -0.730667802832251 -0.0611860529602078 -0.182647474611684 0.659241565495051 -0.0777066677825351 -0.341199354183231 0.284127835484975 -0.0521080066113365 -0.54274571281196 0.281771677766015 0.853322472844018 0.564457125123167 -0.62793171582415 -0.867577432731875 0.361436239593714 -1.00513086653026 0.139176056164643 0.953284083865071 -0.497071374315153 -0.506203928022865 -1.10261882047863 -1.29008916790702 0.758067263726671 0.91862254584581 0.747149594016913 -2.18127831431422 -0.592635629872721 1.514914539634 -1.55546081552663 -0.812750485933065 2.55844044115395 -0.103345181032132 -0.198349707720846 0.790909747199702 -0.357500911129461 -0.616570016827984 -1.3015087166944 1.53402373978091 0.0108130258651902 0.191057805814753 1.89245333289214 -1.16686628439035 -0.20720869619362 1.8482987726883 1.66188720499438 -0.53170463021426 -1.58264764629953 0.805393020930253 -0.184590456266222 0.152549899454631 -0.142904153821226 -0.746193915465912 -0.26922804325762 -0.666363003349674 0.246642970543857 -0.0404490882433767 -0.720389823258326 -0.220974375402824 0.995630645260557 0.146294665807251 -0.0702697557331099 0.701503023419893 -0.540786276105696 0.366937111963548 0.0708366836870938 0.554478421802502 -0.249453441956554 1.08385286242631 -0.145667316960212 0.295153491471682 -1.04432551418975 -0.163986674624295 -1.45179167566365 -0.789114346790328 2.19527385002722 -0.44264191985959 -1.52419724568871 -0.640140078653635 1.62088147320435 0.982614699345601
0.0536103014118478 -0.123664855921609 -0.127782475505759 -0.511207806408549 -0.525012309255418 -0.347653076892051 0.417777308261463 0.503159229233261 -0.0684599571534762 0.875886976743124 0.842356209309633 -0.0808866065285089 0.573070830481156 -0.196399269870995 0.23041289022856 -1.01421456930317 -0.178429324945898 -0.482139443314896 0.741716855845631 -0.565067504698113 0.368998364302364 0.325828278990048 3.94705525970878 -3.65633306224477 0.264472790419103 -3.16130262856396 0.0174007029794641 0.723316251363653 -1.11889466640654 -1.9145298416635 2.2485987591357 2.706340245835 -1.18041316283364 1.12107753186201 -3.07873554987797 2.19670852484954 -0.0606440646939956 1.86175103458417 -2.62660317893563 -0.634946195842557 -0.351189370351958 2.00082218979406 -0.913746451221183 -0.273110407024131 0.830712974662849 -2.89080960320493 -1.24606316279478 -0.033077996400854 -2.51026647745595 1.07285960232268 0.743531025298379 1.3103643627348 0.259100216030692 0.0476695135185369 0.593161677307574 0.385183707445782 0.562778195626788 -1.90989465928055 -1.66551554389988 0.255145347192515 1.21391436259606 1.03244599528459 1.9948868012146 0.358667420030697 0.960381096252289 -0.698587136832079 0.22627213072792 -2.1857661725622 -0.11000124945514 1.19113799990599 0.317358298224474 -0.278372938254127 0.862047249801155 0.208687336857276 0.238579995198309 -1.63664078477418 -0.420359208721284 1.46808603352475 -1.01855047543286 0.992831743806104 0.649107824733908