10.492710 0.000000 0.000000 0.000000 6.246936 0.000000 0.000000 0.000000 5.175542
10.563650 0.000000 0.000000 0.000000 6.309166 0.000000 0.000000 0.000000 5.024798
10.563650 0.000000 0.000000 0.000000 6.309166 0.000000 0.000000 0.000000 5.024798
10.492710 0.000000 0.000000 0.000000 6.246936 0.000000 0.000000 0.000000 5.200665
10.450051 0.000000 0.000000 0.000000 6.242895 0.000000 0.000000 0.000000 5.200665
10.511417 0.000000 0.000000 0.000000 6.269303 0.000000 0.000000 0.000000 5.200665
10.511417 0.000000 0.000000 0.000000 6.269303 0.000000 0.000000 0.000000 5.225789
10.500969 0.000000 0.000000 0.000000 6.265264 0.000000 0.000000 0.000000 5.225789
10.425408 0.000000 0.000000 0.000000 6.178712 0.000000 0.000000 0.000000 5.225789
10.536149 0.000000 0.000000 0.000000 6.238608 0.000000 0.000000 0.000000 5.250913
10.460736 0.000000 0.000000 0.000000 6.245959 0.000000 0.000000 0.000000 5.250913
10.460736 0.000000 0.000000 0.000000 6.245959 0.000000 0.000000 0.000000 5.276037
10.563650 0.000000 0.000000 0.000000 6.309166 0.000000 0.000000 0.000000 5.049922
10.432816 0.000000 0.000000 0.000000 6.192623 0.000000 0.000000 0.000000 5.276037
10.585054 0.000000 0.000000 0.000000 6.289789 0.000000 0.000000 0.000000 5.276037
10.585054 0.000000 0.000000 0.000000 6.289789 0.000000 0.000000 0.000000 5.301161
10.641966 0.000000 0.000000 0.000000 6.256998 0.000000 0.000000 0.000000 5.301161
10.641966 0.000000 0.000000 0.000000 6.256998 0.000000 0.000000 0.000000 5.326285
10.449797 0.000000 0.000000 0.000000 6.135938 0.000000 0.000000 0.000000 5.326285
10.523500 0.000000 0.000000 0.000000 6.251501 0.000000 0.000000 0.000000 5.326285
10.523500 0.000000 0.000000 0.000000 6.251501 0.000000 0.000000 0.000000 5.351409
10.336990 0.000000 0.000000 0.000000 6.177286 0.000000 0.000000 0.000000 5.351409
10.554124 0.000000 0.000000 0.000000 6.301467 0.000000 0.000000 0.000000 5.049922
10.304533 0.000000 0.000000 0.000000 6.264103 0.000000 0.000000 0.000000 5.351409
10.304533 0.000000 0.000000 0.000000 6.264103 0.000000 0.000000 0.000000 5.376533
10.278446 0.000000 0.000000 0.000000 6.212999 0.000000 0.000000 0.000000 5.376533
10.299492 0.000000 0.000000 0.000000 6.225339 0.000000 0.000000 0.000000 5.376533
10.299492 0.000000 0.000000 0.000000 6.225339 0.000000 0.000000 0.000000 5.401657
10.425081 0.000000 0.000000 0.000000 6.213986 0.000000 0.000000 0.000000 5.401657
10.332123 0.000000 0.000000 0.000000 6.130838 0.000000 0.000000 0.000000 5.401657
10.332123 0.000000 0.000000 0.000000 6.130838 0.000000 0.000000 0.000000 5.426781
10.532211 0.000000 0.000000 0.000000 6.180316 0.000000 0.000000 0.000000 5.426781
10.531025 0.000000 0.000000 0.000000 6.217971 0.000000 0.000000 0.000000 5.426781
10.469059 0.000000 0.000000 0.000000 6.242634 0.000000 0.000000 0.000000 5.049922
10.531025 0.000000 0.000000 0.000000 6.217971 0.000000 0.000000 0.000000 5.451905
10.521139 0.000000 0.000000 0.000000 6.146249 0.000000 0.000000 0.000000 5.451905
10.498099 0.000000 0.000000 0.000000 6.138598 0.000000 0.000000 0.000000 5.451905
10.498099 0.000000 0.000000 0.000000 6.138598 0.000000 0.000000 0.000000 5.477029
10.416135 0.000000 0.000000 0.000000 6.227355 0.000000 0.000000 0.000000 5.477029
10.218786 0.000000 0.000000 0.000000 6.245194 0.000000 0.000000 0.000000 5.477029
10.218786 0.000000 0.000000 0.000000 6.245194 0.000000 0.000000 0.000000 5.502153
10.192589 0.000000 0.000000 0.000000 6.436063 0.000000 0.000000 0.000000 5.502153
10.138600 0.000000 0.000000 0.000000 6.402851 0.000000 0.000000 0.000000 5.502153
10.138600 0.000000 0.000000 0.000000 6.402851 0.000000 0.000000 0.000000 5.527277
10.469059 0.000000 0.000000 0.000000 6.242634 0.000000 0.000000 0.000000 5.075046
10.034689 0.000000 0.000000 0.000000 6.391167 0.000000 0.000000 0.000000 5.527277
9.924034 0.000000 0.000000 0.000000 6.466814 0.000000 0.000000 0.000000 5.527277
9.924034 0.000000 0.000000 0.000000 6.466814 0.000000 0.000000 0.000000 5.552401
9.878326 0.000000 0.000000 0.000000 6.458188 0.000000 0.000000 0.000000 5.552401
9.939304 0.000000 0.000000 0.000000 6.357811 0.000000 0.000000 0.000000 5.552401
9.939304 0.000000 0.000000 0.000000 6.357811 0.000000 0.000000 0.000000 5.577525
9.842003 0.000000 0.000000 0.000000 6.324456 0.000000 0.000000 0.000000 5.577525
9.969132 0.000000 0.000000 0.000000 6.407783 0.000000 0.000000 0.000000 5.577525
9.969132 0.000000 0.000000 0.000000 6.407783 0.000000 0.000000 0.000000 5.602649
10.042315 0.000000 0.000000 0.000000 6.372170 0.000000 0.000000 0.000000 5.602649
10.468881 0.000000 0.000000 0.000000 6.266968 0.000000 0.000000 0.000000 5.075046
10.164273 0.000000 0.000000 0.000000 6.297203 0.000000 0.000000 0.000000 5.602649
10.164273 0.000000 0.000000 0.000000 6.297203 0.000000 0.000000 0.000000 5.627773
10.242449 0.000000 0.000000 0.000000 6.297520 0.000000 0.000000 0.000000 5.627773
10.312719 0.000000 0.000000 0.000000 6.258461 0.000000 0.000000 0.000000 5.627773
10.269282 0.000000 0.000000 0.000000 6.363261 0.000000 0.000000 0.000000 5.652897
10.269282 0.000000 0.000000 0.000000 6.363261 0.000000 0.000000 0.000000 5.678021
10.097610 0.000000 0.000000 0.000000 6.317898 0.000000 0.000000 0.000000 5.678021
10.484512 0.000000 0.000000 0.000000 6.305920 0.000000 0.000000 0.000000 5.075046
10.097610 0.000000 0.000000 0.000000 6.317898 0.000000 0.000000 0.000000 5.703145
10.484512 0.000000 0.000000 0.000000 6.305920 0.000000 0.000000 0.000000 5.100170
9.829582 0.000000 0.000000 0.000000 6.423815 0.000000 0.000000 0.000000 5.828765
10.530352 0.000000 0.000000 0.000000 6.317522 0.000000 0.000000 0.000000 5.100170
10.563650 0.000000 0.000000 0.000000 6.309166 0.000000 0.000000 0.000000 5.024798
10.531783 0.000000 0.000000 0.000000 6.331828 0.000000 0.000000 0.000000 5.100170
10.531783 0.000000 0.000000 0.000000 6.331828 0.000000 0.000000 0.000000 5.125294
10.203219 0.000000 0.000000 0.000000 6.250355 0.000000 0.000000 0.000000 6.029757
10.203219 0.000000 0.000000 0.000000 6.250355 0.000000 0.000000 0.000000 6.054881
10.512156 0.000000 0.000000 0.000000 6.310507 0.000000 0.000000 0.000000 5.125294
10.194423 0.000000 0.000000 0.000000 6.211516 0.000000 0.000000 0.000000 6.180501
9.804257 0.000000 0.000000 0.000000 6.258708 0.000000 0.000000 0.000000 6.180501
10.482254 0.000000 0.000000 0.000000 6.321022 0.000000 0.000000 0.000000 5.125294
10.081846 0.000000 0.000000 0.000000 6.247899 0.000000 0.000000 0.000000 6.205625
9.908897 0.000000 0.000000 0.000000 6.234924 0.000000 0.000000 0.000000 6.205625
9.908897 0.000000 0.000000 0.000000 6.234924 0.000000 0.000000 0.000000 6.230749
10.197432 0.000000 0.000000 0.000000 6.157857 0.000000 0.000000 0.000000 6.230749
10.072592 0.000000 0.000000 0.000000 6.242254 0.000000 0.000000 0.000000 6.230749
10.072592 0.000000 0.000000 0.000000 6.242254 0.000000 0.000000 0.000000 6.255873
9.951485 0.000000 0.000000 0.000000 6.187710 0.000000 0.000000 0.000000 6.255873
10.245799 0.000000 0.000000 0.000000 6.108253 0.000000 0.000000 0.000000 6.255873
10.482254 0.000000 0.000000 0.000000 6.321022 0.000000 0.000000 0.000000 5.150418
10.487347 0.000000 0.000000 0.000000 6.257439 0.000000 0.000000 0.000000 5.150418
10.452289 0.000000 0.000000 0.000000 6.232326 0.000000 0.000000 0.000000 5.150418
10.452289 0.000000 0.000000 0.000000 6.232326 0.000000 0.000000 0.000000 5.175542
10.532841 0.000000 0.000000 0.000000 6.245299 0.000000 0.000000 0.000000 5.175542