-0.0431764 -0.0141037 -0.0389345 5.20318 -0.0141037 2.54884 -0.0431764 3.10936 -0.0389345 5.20318 3.10936 2.54884 3.01323 4.6711 -0.198062 2.14677 1.54763 2.38971 7.39313 1.54763 0.120194 8.25959 4.6711 2.70796 1.03767 4.6711 2.24174 4.12233 1.54763 4.82951 9.36868 1.54763 2.85594 6.28403 4.6711 0.268164 1.14467 4.6711 3.86369 4.01533 1.54763 1.27592 9.26169 1.54763 1.23398 6.39102 4.6711 3.82175 4.89155 4.6711 0.747054 0.268452 1.54763 3.33482 5.51481 1.54763 4.35062 10.1379 4.6711 1.76285 1.85144 5.8992 1.54711 3.30856 0.31953 4.13488 8.55492 2.77573 3.55056 7.09779 3.443 0.962794 8.55492 0.31953 3.55056 7.09779 5.8992 0.962794 1.85144 3.443 1.54711 3.30856 2.77573 4.13488
-0.0786465 -0.0452185 -0.0389346 5.20318 -0.0452185 2.47346 -0.0786465 3.10936 -0.0389346 5.20318 3.10936 2.47346 2.96607 4.68666 4.89606 2.15846 1.53207 2.38367 7.44029 1.53207 0.0508637 8.24789 4.68666 2.56326 1.07482 4.68666 2.19748 4.04971 1.53207 4.70987 9.33153 1.53207 2.74945 6.35665 4.68666 0.237054 1.13298 4.68666 3.74478 3.99155 1.53207 1.23238 9.27338 1.53207 1.20215 6.4148 4.68666 3.71455 4.87771 4.68666 0.746049 0.246821 1.53207 3.25845 5.52865 1.53207 4.20088 10.1595 4.68666 1.68848 1.80541 5.92852 1.5521 3.31912 0.29021 4.0645 8.60095 2.77394 3.39482 7.08723 3.44479 0.882426 8.60095 0.29021 3.39482 7.08723 5.92852 0.882426 1.80541 3.44479 1.5521 3.31912 2.77394 4.0645
-0.0786465 -0.0452185 -0.0389346 5.20318 -0.0452185 2.47346 -0.0786465 3.10936 -0.0389346 5.20318 3.10936 2.47346 2.96607 4.68666 4.89606 2.15846 1.53207 2.38367 7.44029 1.53207 0.0508637 8.24789 4.68666 2.56326 1.07482 4.68666 2.19748 4.04971 1.53207 4.70987 9.33153 1.53207 2.74945 6.35665 4.68666 0.237054 1.13298 4.68666 3.74478 3.99155 1.53207 1.23238 9.27338 1.53207 1.20215 6.4148 4.68666 3.71455 4.87771 4.68666 0.746049 0.246821 1.53207 3.25845 5.52865 1.53207 4.20088 10.1595 4.68666 1.68848 1.80541 5.92852 1.5521 3.31912 0.29021 4.0645 8.60095 2.77394 3.39482 7.08723 3.44479 0.882426 8.60095 0.29021 3.39482 7.08723 5.92852 0.882426 1.80541 3.44479 1.5521 3.31912 2.77394 4.0645
-0.0431764 -0.0141037 -0.0389344 5.20318 -0.0141037 2.5614 -0.0431764 3.10936 -0.0389344 5.20318 3.10936 2.5614 3.01323 4.6711 5.00183 2.14677 1.54763 2.4015 7.39313 1.54763 0.120966 8.25959 4.6711 2.7213 1.03767 4.6711 2.25281 4.12233 1.54763 4.85314 9.36868 1.54763 2.86999 6.28403 4.6711 0.269654 1.14467 4.6711 3.88264 4.01533 1.54763 1.28231 9.26169 1.54763 1.24016 6.39102 4.6711 3.84049 4.89155 4.6711 0.750869 0.268452 1.54763 3.3512 5.51481 1.54763 4.37193 10.1379 4.6711 1.7716 1.85144 5.8992 1.55481 3.30856 0.31953 4.15514 8.55492 2.77573 3.56799 7.09779 3.443 0.967657 8.55492 0.31953 3.56799 7.09779 5.8992 0.967657 1.85144 3.443 1.55481 3.30856 2.77573 4.15514
-0.0218463 -0.0120829 -0.0389341 5.20318 -0.012083 2.5614 -0.0218463 3.10936 -0.0389341 5.20318 3.10936 2.5614 2.994 4.67009 5.07835 2.18733 1.54864 2.47802 7.41236 1.54864 0.0444472 8.21902 4.67009 2.64478 1.13386 4.67009 2.25009 4.04746 1.54864 4.85043 9.27249 1.54864 2.8727 6.35889 4.67009 0.272378 1.10686 4.67009 3.81407 4.07448 1.54864 1.21373 9.2995 1.54864 1.30874 6.33188 4.67009 3.90906 4.77956 4.67009 0.690492 0.401768 1.54864 3.29082 5.62679 1.54864 4.43231 10.0046 4.67009 1.83197 1.83543 5.94462 1.60401 3.3459 0.274111 4.20434 8.57092 2.82317 3.51879 7.06046 3.39556 0.918453 8.57092 0.274111 3.51879 7.06046 5.94462 0.918453 1.83543 3.39556 1.60401 3.3459 2.82317 4.20434
-0.0525286 -0.0252888 -0.0389426 5.20318 -0.0252888 2.56141 -0.0525287 3.10937 -0.0389426 5.20318 3.10937 2.56141 2.9508 4.67669 5.1135 2.19985 1.54204 2.51316 7.45556 1.54204 0.00930668 8.20651 4.67669 2.60963 1.13994 4.67669 2.36335 4.01071 1.54204 4.96369 9.26642 1.54204 2.75944 6.39565 4.67669 0.159119 1.00238 4.67669 3.87294 4.14826 1.54204 1.27263 9.40396 1.54204 1.24984 6.25809 4.67669 3.85019 4.87289 4.67669 0.901417 0.277762 1.54204 3.50173 5.53347 1.54204 4.2214 10.1286 4.67669 1.62105 1.93391 5.90472 1.61708 3.21674 0.31402 4.21742 8.47245 2.77006 3.50571 7.18962 3.44866 0.905388 8.47245 0.314021 3.50571 7.18962 5.90472 0.905388 1.93391 3.44866 1.61708 3.21674 2.77006 4.21742
-0.0525286 -0.0252888 -0.0389426 5.20318 -0.0252888 2.57397 -0.0525287 3.10937 -0.0389426 5.20318 3.10937 2.57397 2.9508 4.67669 5.13839 2.19985 1.54204 2.52549 7.45556 1.54204 0.0095398 8.20651 4.67669 2.62242 1.13994 4.67669 2.37495 4.01071 1.54204 4.98785 9.26642 1.54204 2.77296 6.39565 4.67669 0.160075 1.00238 4.67669 3.89184 4.14826 1.54204 1.27896 9.40396 1.54204 1.25606 6.25809 4.67669 3.86898 4.87289 4.67669 0.90596 0.277762 1.54204 3.51883 5.53347 1.54204 4.24198 10.1286 4.67669 1.62907 1.93391 5.90472 1.62508 3.21674 0.31402 4.23798 8.47245 2.77006 3.52284 7.18962 3.44866 0.90995 8.47245 0.314021 3.52284 7.18962 5.90472 0.90995 1.93391 3.44866 1.62508 3.21674 2.77006 4.23798
-0.0472909 -0.0232688 -0.0389325 5.20319 -0.0232689 2.57396 -0.0472909 3.10937 -0.0389325 5.20319 3.10937 2.57396 3.00169 4.67568 5.09125 2.15419 1.54305 2.47832 7.40468 1.54305 0.0567085 8.25218 4.67568 2.66957 1.11115 4.67568 2.2441 4.04473 1.54305 4.85683 9.29521 1.54305 2.90399 6.36163 4.67568 0.290914 1.05948 4.67568 3.86544 4.09639 1.54305 1.25271 9.34688 1.54305 1.28231 6.30997 4.67568 3.89538 4.81489 4.67568 0.70697 0.340858 1.54305 3.31985 5.59135 1.54305 4.44096 10.0654 4.67568 1.82806 1.85433 5.973 1.64634 3.30154 0.245795 4.25929 8.55202 2.8403 3.50152 7.10482 3.37836 0.888687 8.55202 0.245796 3.50152 7.10482 5.973 0.888687 1.85433 3.37836 1.64634 3.30154 2.8403 4.25929
-0.00950113 0.0199771 -0.0389614 5.2032 0.019977 2.57399 -0.00950116 3.10939 -0.0389614 5.2032 3.10939 2.57399 2.975 4.65404 5.05684 2.21866 1.56469 2.4438 7.43136 1.56469 0.09122 8.18771 4.65404 2.70398 1.05487 4.65404 2.28654 4.13882 1.56469 4.89947 9.35153 1.56469 2.86134 6.26758 4.65404 0.248495 1.1972 4.65404 3.90108 3.99634 1.56469 1.28816 9.20903 1.56469 1.24687 6.40989 4.65404 3.85973 4.85052 4.65404 0.7661 0.34317 1.56469 3.37883 5.55587 1.56469 4.38198 10.0632 4.65404 1.76893 1.84603 5.89343 1.5309 3.34757 0.325378 4.14388 8.56027 2.804 3.61694 7.05874 3.41466 1.00413 8.56027 0.325374 3.61694 7.05874 5.89343 1.00413 1.84603 3.41466 1.5309 3.34757 2.80399 4.14388
-0.064924 6.22849 5.21183 5.20315 6.22849 2.58668 -0.0649242 3.10954 5.21183 5.20315 3.10954 2.58668 2.98477 4.66902 5.07764 2.1532 1.54971 2.4519 7.42127 1.54971 0.0957166 8.25284 4.66902 2.72083 1.12158 4.66902 2.2457 4.01736 1.54971 4.87344 9.2854 1.54971 2.92502 6.38962 4.66902 0.301937 1.08465 4.66902 3.7628 4.05414 1.54971 1.13569 9.32219 1.54971 1.41194 6.3527 4.66902 4.03566 4.80434 4.66902 0.824543 0.33399 1.54971 3.44985 5.60197 1.54971 4.34869 10.0723 4.66902 1.723 1.91823 5.92514 1.61274 3.21983 0.293616 4.23764 8.48789 2.80581 3.56087 7.18629 3.41289 0.934837 8.48789 0.293617 3.56087 7.18629 5.92514 0.934837 1.91823 3.41289 1.61274 3.21983 2.80581 4.23764
-0.0268731 6.23209 5.21157 5.2035 6.2321 2.58693 -0.0268732 3.10961 5.21157 5.2035 3.10961 2.58693 3.0008 4.67085 5.15016 2.17554 1.54787 2.52387 7.40593 1.54787 0.0237844 8.2312 4.67085 2.64827 1.1148 4.67085 2.36355 4.06027 1.54787 4.99051 9.2906 1.54787 2.80808 6.34512 4.67085 0.183984 1.13753 4.67085 3.9057 4.04009 1.54787 1.27965 9.27053 1.54787 1.26794 6.36796 4.67085 3.89276 4.77173 4.67085 0.836248 0.40472 1.54787 3.4594 5.63498 1.54787 4.33912 10.002 4.67085 1.71132 1.88324 5.89078 1.68238 3.29157 0.326843 4.30975 8.52191 2.76892 3.48874 7.11358 3.45095 0.865217 8.52191 0.326827 3.48874 7.11358 5.89076 0.865217 1.88324 3.45093 1.68238 3.29157 2.76891 4.30975
-0.0268731 6.23209 5.23669 5.2035 6.2321 2.5995 -0.0268732 3.10961 5.23669 5.2035 3.10961 2.5995 3.0008 4.67085 5.17499 2.17554 1.54787 2.53614 7.40593 1.54787 0.0240846 8.2312 4.67085 2.66113 1.1148 4.67085 2.37505 4.06027 1.54787 5.01457 9.2906 1.54787 2.8217 6.34512 4.67085 0.18505 1.13753 4.67085 3.92457 4.04009 1.54787 1.28596 9.27053 1.54787 1.27419 6.36796 4.67085 3.91157 4.77173 4.67085 0.840435 0.40472 1.54787 3.47613 5.63498 1.54787 4.36007 10.002 4.67085 1.7197 1.88324 5.89078 1.69062 3.29157 0.326843 4.33056 8.52191 2.76892 3.50562 7.11358 3.45095 0.869543 8.52191 0.326827 3.50562 7.11358 5.89076 0.869543 1.88324 3.45093 1.69062 3.29157 2.76891 4.33056
-0.0786465 -0.0452185 -0.0389346 5.20318 -0.0452185 2.48603 -0.0786465 3.10936 -0.0389346 5.20318 3.10936 2.48603 2.96607 4.68666 4.92074 2.15846 1.53207 2.39578 7.44029 1.53207 0.0513128 8.24789 4.68666 2.57627 1.07482 4.68666 2.20866 4.04971 1.53207 4.73362 9.33153 1.53207 2.7634 6.35665 4.68666 0.238434 1.13298 4.68666 3.76369 3.99155 1.53207 1.23873 9.27338 1.53207 1.20836 6.4148 4.68666 3.73332 4.87771 4.68666 0.749974 0.246821 1.53207 3.27493 5.52865 1.53207 4.22208 10.1595 4.68666 1.69712 1.80541 5.92852 1.56006 3.31912 0.29021 4.08502 8.60095 2.77394 3.41199 7.08723 3.44479 0.887033 8.60095 0.29021 3.41199 7.08723 5.92852 0.887033 1.80541 3.44479 1.56006 3.31912 2.77394 4.08502
-0.0124919 6.2063 5.23648 5.20392 6.2063 2.5997 -0.0124916 3.10874 5.23648 5.20392 3.10874 2.5997 2.96875 4.65752 5.22656 2.22282 1.56121 2.58484 7.43919 1.56121 -0.0246778 8.18514 4.65752 2.60962 1.0951 4.65752 2.31452 4.09242 1.56121 4.95263 9.30903 1.56121 2.88361 6.31169 4.65752 0.245654 1.14925 4.65752 3.86135 4.04042 1.56121 1.22835 9.25679 1.56121 1.33142 6.36563 4.65752 3.97512 4.89183 4.65752 0.768228 0.294539 1.56121 3.40491 5.51134 1.56121 4.43105 10.1086 4.65752 1.79216 1.90681 5.93792 1.64754 3.28355 0.280795 4.28698 8.49964 2.8416 3.54931 7.12287 3.37709 0.912504 8.49964 0.28082 3.54931 7.12287 5.93795 0.912504 1.90681 3.37712 1.64754 3.28355 2.84162 4.28698
-0.0875897 6.25417 5.2376 5.20499 6.25418 2.59854 -0.0875865 3.10945 5.2376 5.20498 3.10945 2.59854 3.00417 4.68181 5.09799 2.1112 1.53692 2.45665 7.40371 1.53692 0.103666 8.29673 4.68181 2.738 1.11679 4.68181 2.3114 3.99795 1.53692 4.94031 9.2887 1.53692 2.8962 6.40735 4.68181 0.248471 1.06685 4.68181 3.91905 4.04979 1.53692 1.29064 9.34176 1.53692 1.2687 6.35876 4.68181 3.91805 4.89044 4.68181 0.830166 0.220297 1.53692 3.46523 5.51015 1.53692 4.37098 10.18 4.68181 1.72999 1.81976 5.9551 1.65663 3.29105 0.266971 4.29544 8.58408 2.80689 3.54054 7.11284 3.40859 0.903776 8.58408 0.266946 3.54054 7.11284 5.95504 0.903775 1.81976 3.40852 1.65663 3.29105 2.80686 4.29544
-0.0875897 6.25417 -0.0384395 5.20499 6.25418 2.6111 -0.0875865 3.10945 -0.0384391 5.20498 3.10945 2.6111 3.00417 4.68181 5.12245 2.1112 1.53692 2.46853 7.40371 1.53692 0.104345 8.29673 4.68181 2.75122 1.11679 4.68181 2.32259 3.99795 1.53692 4.96402 9.2887 1.53692 2.91018 6.40735 4.68181 0.24984 1.06685 4.68181 3.9379 4.04979 1.53692 1.29698 9.34176 1.53692 1.27493 6.35876 4.68181 3.9369 4.89044 4.68181 0.834304 0.220297 1.53692 3.48192 5.51015 1.53692 4.39198 10.18 4.68181 1.73841 1.81976 5.9551 1.6647 3.29105 0.266971 4.31608 8.58408 2.80689 3.55758 7.11284 3.40859 0.908265 8.58408 0.266946 3.55758 7.11284 5.95504 0.908264 1.81976 3.40852 1.6647 3.29105 2.80686 4.31608
-0.109883 6.23996 -0.0396267 5.21049 6.23896 2.61156 -0.109737 3.10713 -0.0396824 5.21034 3.10841 2.6115 3.01543 4.6737 4.99662 2.05823 1.54503 2.36437 7.38221 1.5452 0.216804 8.33982 4.67353 2.8697 1.06199 4.67353 2.27063 4.02634 1.54519 4.91084 9.35543 1.54504 2.96422 6.39287 4.6737 0.303327 1.09182 4.67361 3.75858 3.99491 1.54512 1.10666 9.30595 1.54511 1.46038 6.40528 4.67362 4.11591 4.94863 4.67369 0.822589 0.112809 1.54503 3.45232 5.44281 1.5452 4.40675 10.2831 4.67354 1.76427 1.77191 5.94681 1.56536 3.31282 0.280042 4.2139 8.63761 2.81838 3.66404 7.09511 3.40858 1.00343 8.63762 0.271676 3.66394 7.09509 5.93881 1.00332 1.77189 3.40026 1.56547 3.31283 2.81036 4.214
-0.109883 -0.0170414 5.28666 5.21049 -0.0180338 2.62412 -0.109737 3.10713 5.2866 5.21034 3.10841 2.62406 3.01543 4.6737 5.02048 2.05823 1.54503 2.37576 7.38221 1.5452 0.218016 8.33982 4.67353 2.88349 1.06199 4.67353 2.28158 4.02634 1.54519 4.9343 9.35543 1.54504 2.97845 6.39287 4.6737 0.304949 1.09182 4.67361 3.77657 3.99491 1.54512 1.11209 9.30595 1.54511 1.46748 6.40528 4.67362 4.1356 4.94863 4.67369 0.826672 0.112809 1.54503 3.46886 5.44281 1.5452 4.42782 10.2831 4.67354 1.77282 1.77191 5.94681 1.57297 3.31282 0.280042 4.23406 8.63761 2.81838 3.68159 7.09511 3.40858 1.00837 8.63762 0.271676 3.68149 7.09509 5.93881 1.00826 1.77189 3.40026 1.57307 3.31283 2.81036 4.23416
-0.0309344 0.0460798 5.3038 5.19189 0.0478032 2.60721 -0.0282803 3.10186 5.30362 5.18924 3.10578 2.60696 2.86698 4.64492 5.14727 2.32779 1.57382 2.50582 7.54925 1.57699 0.086997 8.0828 4.64179 2.756 1.07299 4.64202 2.35593 4.10446 1.57686 4.99299 9.31927 1.57391 2.9155 6.28719 4.64471 0.225844 1.11798 4.64316 3.85314 4.07725 1.57552 1.17738 9.29858 1.57526 1.3986 6.34175 4.64354 4.0655 4.90739 4.64456 0.78431 0.284345 1.57412 3.47583 5.5023 1.57662 4.45118 10.1322 4.64212 1.79045 1.87256 5.85357 1.686 3.33828 0.372104 4.35178 8.53667 2.77418 3.56719 7.07954 3.42951 0.899299 8.53756 0.372582 3.56529 7.07886 5.86115 0.89749 1.87194 3.42922 1.68772 3.339 2.78232 4.35373
-0.104297 -0.0517971 5.27136 5.22723 0.0191861 2.64009 -0.0310017 3.09223 5.26834 5.15313 3.12974 2.63918 3.04018 4.70607 5.23581 2.11172 1.51411 2.54003 7.35653 1.58004 0.01915 8.30248 4.6402 2.71407 1.12153 4.64614 2.32512 4.06201 1.56712 5.0179 9.29088 1.51816 2.91604 6.35026 4.69419 0.246324 1.17236 4.66955 3.86503 3.96314 1.54707 1.18854 9.24361 1.54383 1.34468 6.44092 4.67285 4.06175 4.88643 4.69852 0.762688 0.294479 1.521 3.4284 5.50865 1.57305 4.48404 10.1055 4.64419 1.8243 1.82001 5.8505 1.69815 3.33856 0.37305 4.3818 8.58915 2.71801 3.52464 7.09159 3.48659 0.88298 8.59886 0.318551 3.49162 7.08969 5.91865 0.850325 1.81476 3.43471 1.72996 3.3397 2.7874 4.41521
10.4192 6.1997 5.29641 5.22723 0.0191861 2.65273 -0.0310017 3.09223 5.29338 5.15313 3.12974 2.65181 3.04018 4.70607 5.26069 2.11172 1.51411 2.55219 7.35653 1.58004 0.019424 8.30248 4.6402 2.72705 1.12153 4.64614 2.33627 4.06201 1.56712 5.04176 9.29088 1.51816 2.92998 6.35026 4.69419 0.24767 1.17236 4.66955 3.88345 3.96314 1.54707 1.19433 9.24361 1.54383 1.3512 6.44092 4.67285 4.0811 4.88643 4.69852 0.766469 0.294479 1.521 3.44476 5.50865 1.57305 4.50538 10.1055 4.64419 1.83309 1.82001 5.8505 1.70635 3.33856 0.37305 4.40265 8.58915 2.71801 3.54145 7.09159 3.48659 0.887329 8.59886 0.318551 3.50827 7.08969 5.91865 0.85452 1.81476 3.43471 1.7383 3.3397 2.7874 4.43622
9.74863 5.72297 5.20878 5.82038 0.468908 2.60466 0.637932 2.65565 5.33062 4.60063 3.55642 2.73524 3.0054 4.91696 5.44691 2.23309 1.30717 2.76886 7.39592 1.80326 -0.162319 8.1981 4.38414 2.49265 1.15484 4.40725 2.50241 4.11814 1.80661 5.18322 9.2583 1.33312 2.76989 6.26639 4.87955 0.105795 0.98018 4.56737 4.03214 4.22153 1.68139 1.39117 9.40092 1.47155 1.1706 6.16887 4.73834 3.95509 4.94052 4.96204 0.962074 0.240764 1.27095 3.65618 5.47917 1.82238 4.37125 10.1419 4.35139 1.55401 2.08552 5.63689 1.88177 3.16774 0.602791 4.5181 8.351 2.55123 3.39179 7.23969 3.67531 0.780462 8.42374 0.143206 3.12073 7.17532 6.15409 0.450991 1.9725 3.21422 2.14457 3.2289 3.06645 4.81087
-0.0738839 -0.041369 -0.0389346 5.20318 -0.041369 2.48603 -0.0738839 3.10936 -0.0389346 5.20318 3.10936 2.48603 2.96561 4.68473 4.90733 2.16368 1.534 2.38237 7.44074 1.534 0.064719 8.24267 4.68473 2.58968 1.07756 4.68473 2.19436 4.05173 1.534 4.71932 9.32879 1.534 2.7777 6.35463 4.68473 0.252735 1.12559 4.68473 3.7548 4.0037 1.534 1.22984 9.28077 1.534 1.21725 6.40265 4.68473 3.74221 4.87368 4.68473 0.748288 0.255611 1.534 3.27325 5.53267 1.534 4.22376 10.1507 4.68473 1.6988 1.80529 5.93028 1.5591 3.324 0.288444 4.08406 8.60106 2.77955 3.41296 7.08235 3.43918 0.887996 8.60106 0.288444 3.41296 7.08235 5.93028 0.887996 1.80529 3.43918 1.5591 3.324 2.77955 4.08406
9.94006 6.03459 5.36278 5.55192 0.158863 2.55614 0.453776 2.92013 -0.0204374 4.85762 3.30438 2.69524 3.06789 4.91802 -0.175835 2.18885 1.30205 2.59231 7.33513 1.84133 5.36655 8.19747 4.43586 2.68582 1.22027 4.45915 2.31064 4.03221 1.72982 5.01873 9.16776 1.31923 2.94197 6.37635 4.88301 0.284778 1.10701 4.63701 3.85088 4.25842 1.5991 1.19524 9.34098 1.4964 1.42182 6.15776 4.74626 4.09485 4.95907 4.84833 0.911977 0.311219 1.31271 3.68353 5.42343 1.72848 4.37455 10.1293 4.48865 1.66309 2.0469 5.71139 1.69872 3.19972 0.552154 4.43424 8.46139 2.55415 3.57136 7.2058 3.69345 0.928555 8.59672 6.21689 3.25283 7.06978 6.21553 0.601548 1.79124 3.06017 2.0033 3.3183 3.06207 4.69046
9.94006 6.03459 0.0116117 5.55192 0.158863 2.56832 0.453776 2.92013 -0.0203505 4.85762 3.30438 2.70807 3.06789 4.91802 5.20006 2.18885 1.30205 2.60466 7.33513 1.84133 0.0153896 8.19747 4.43586 2.69861 1.22027 4.45915 2.32167 4.03221 1.72982 5.04248 9.16776 1.31923 2.95597 6.37635 4.88301 0.286298 1.10701 4.63701 3.86914 4.25842 1.5991 1.20103 9.34098 1.4964 1.42868 6.15776 4.74626 4.11426 4.95907 4.84833 0.916442 0.311219 1.31271 3.70101 5.42343 1.72848 4.39527 10.1293 4.48865 1.67108 2.0469 5.71139 1.70687 3.19972 0.552154 4.45524 8.46139 2.55415 3.58831 7.2058 3.69345 0.933097 8.59672 6.21689 3.26829 7.06978 6.21553 0.604555 1.79124 3.06017 2.01289 3.3183 3.06207 4.71267
9.85492 5.80667 -0.0654802 5.743 0.452445 2.66539 0.642394 2.75625 -0.00876657 4.59359 3.55018 2.69224 3.1325 5.0293 5.39444 2.10353 1.18826 2.69338 7.28453 1.95001 -0.18305 8.27479 4.32755 2.69648 1.25482 4.43076 2.55591 3.98085 1.78716 5.28784 9.12382 1.26457 2.74553 6.4219 4.89195 0.0157451 0.990278 4.59834 4.07459 4.11831 1.52046 1.36431 9.43084 1.5746 1.28201 6.27281 4.58263 3.88013 5.12035 4.88853 0.775532 0.207644 1.23075 3.6666 5.33322 1.82349 4.50683 10.2337 4.42341 1.72093 2.01348 5.57339 1.86258 3.14832 0.71533 4.51516 8.36086 2.39776 3.48331 7.28205 3.78054 0.734428 8.32092 6.23277 2.9392 7.24496 6.19374 0.21916 2.07438 3.09064 2.31321 3.18954 3.07316 4.93285
9.77619 6.10987 -0.0362768 5.6812 0.158364 2.62316 0.491079 2.85798 0.0130097 4.72324 3.32304 2.58807 3.02672 4.90451 5.2118 2.2501 1.38094 2.7234 7.43432 1.80553 0.0653744 8.16381 4.3319 2.67227 1.15353 4.54489 2.4073 4.10529 1.70267 5.10361 9.18767 1.45463 2.89217 6.31934 4.77082 0.149443 1.18439 4.80655 3.89024 4.03103 1.61571 1.30685 9.20779 1.65482 1.33111 6.35084 4.68266 3.99984 4.87206 4.77994 0.826049 0.349001 1.45686 3.59365 5.62054 1.78141 4.50661 10.0553 4.45445 1.76732 1.97484 5.5417 1.42281 3.34684 0.508323 4.33997 8.32001 2.50553 3.70876 7.17879 3.6031 0.96243 8.48528 6.37132 3.32235 7.21363 6.08141 0.646152 1.88525 3.18252 2.06258 3.25134 2.91393 4.57294
9.77619 6.10987 -0.0362644 5.6812 0.158364 2.6356 0.491079 2.85798 0.0132525 4.72324 3.32304 2.60035 3.02672 4.90451 5.23634 2.2501 1.38094 2.73631 7.43432 1.80553 0.0658619 8.16381 4.3319 2.68494 1.15353 4.54489 2.41873 4.10529 1.70267 5.12764 9.18767 1.45463 2.90587 6.31934 4.77082 0.150323 1.18439 4.80655 3.9086 4.03103 1.61571 1.31314 9.20779 1.65482 1.33751 6.35084 4.68266 4.01871 4.87206 4.77994 0.830091 0.349001 1.45686 3.61063 5.62054 1.78141 4.52785 10.0553 4.45445 1.77576 1.97484 5.5417 1.42964 3.34684 0.508323 4.36043 8.32001 2.50553 3.72628 7.17879 3.6031 0.96711 8.48528 0.145986 3.33806 7.21363 6.08141 0.649354 1.88525 3.18252 2.0724 3.25134 2.91393 4.59449
9.93301 5.93802 0.0469498 5.7983 0.313459 2.68453 0.646888 2.8125 -0.0152073 4.55716 3.46322 2.71434 3.11283 5.01636 5.38354 1.97857 1.17255 2.68914 7.3312 1.99861 -0.0511775 8.29716 4.2383 2.6432 1.22142 4.32345 2.5449 3.94426 1.85379 5.22767 9.27978 1.24024 2.77605 6.42409 5.02671 0.0414086 1.00987 4.62671 4.04145 4.20494 1.5208 1.28873 9.5663 1.53616 1.32271 6.17518 4.77351 3.92527 5.09127 5.01818 0.867208 0.148241 1.16291 3.58027 5.29706 1.95732 4.4169 10.2565 4.20374 1.80664 2.03168 5.58566 1.91532 3.03467 0.606644 4.5828 8.47601 2.44721 3.43818 7.29492 3.82076 0.655026 8.41001 -0.0239814 2.90126 7.13551 6.30121 0.296494 2.09793 3.01001 2.22513 3.05889 3.10162 5.1132
9.99581 5.92152 -0.157047 5.72416 0.331845 2.60968 0.457247 2.74707 0.0545135 4.56614 3.43639 2.65088 2.98658 4.95485 5.44534 2.31538 1.32201 2.63421 7.35844 1.86366 -0.093785 8.21594 4.29817 2.57838 1.17924 4.42269 2.44194 4.05756 1.78464 5.14989 9.264 1.37627 2.8854 6.32651 4.84218 0.192565 0.973875 4.57011 3.96605 4.12752 1.61436 1.26839 9.33123 1.64504 1.3724 6.10939 4.64694 4.08781 4.91611 4.80707 1.0434 0.270024 1.25563 3.72601 5.43795 1.85445 4.45326 10.1971 4.48958 1.68788 2.06319 5.55173 1.8762 3.35295 0.609263 4.35779 8.47254 2.55342 3.6411 7.16925 3.68069 0.870322 8.46578 0.0268011 3.27745 7.0407 6.17383 0.645482 1.99468 3.22126 1.97017 3.17789 3.06887 4.72115
9.99581 5.92152 5.26919 5.72416 0.331845 2.622 0.457247 2.74707 0.0549482 4.56614 3.43639 2.66339 2.98658 4.95485 0.0440645 2.31538 1.32201 2.64664 7.35844 1.86366 5.33274 8.21594 4.29817 2.59056 1.17924 4.42269 2.45348 4.05756 1.78464 5.17402 9.264 1.37627 2.899 6.32651 4.84218 0.193642 0.973875 4.57011 3.98468 4.12752 1.61436 1.27447 9.33123 1.64504 1.37896 6.10939 4.64694 4.10701 4.91611 4.80707 1.04843 0.270024 1.25563 3.74352 5.43795 1.85445 4.47415 10.1971 4.48958 1.69591 2.06319 5.55173 1.88511 3.35295 0.609263 4.37824 8.47254 2.55342 3.65822 7.16925 3.68069 0.874552 8.46578 6.15764 3.29287 7.0407 6.17383 0.648666 1.99468 3.22126 1.97952 3.17789 3.06887 4.74329
9.64551 5.72871 5.33491 5.79091 0.376877 2.6283 0.678442 2.65537 0.0553874 4.38454 3.59508 2.76427 3.07843 5.0638 0.148079 2.06028 1.14633 2.83542 7.31228 1.88482 5.34979 8.26566 4.30683 2.43873 1.20808 4.44028 2.64563 4.02282 1.82036 5.29627 9.23782 1.3445 2.76068 6.42465 4.91572 -0.0682954 1.08674 4.6354 4.19375 4.16304 1.54414 1.39771 9.39089 1.57555 1.26158 6.25322 4.73628 3.85832 5.13023 4.98561 0.802063 0.0622899 1.36608 3.49206 5.40069 1.85976 4.48632 10.4181 4.3813 1.75336 2.04748 5.57059 1.99103 3.2692 0.633439 4.58737 8.29081 2.50968 3.40364 7.24533 3.72974 0.677943 8.45646 6.21218 3.00913 7.44154 6.11181 0.260299 2.01812 3.0808 2.36618 3.20617 3.07778 4.99242
10.1297 6.04669 5.29462 5.80913 0.422658 2.57644 0.59115 2.86357 -0.0515077 4.59796 3.20409 2.82787 3.05259 5.03972 0.0420688 2.08038 1.245 2.8632 7.30862 1.93396 5.44987 8.33386 4.25694 2.56229 1.07085 4.48298 2.50656 3.99204 1.72497 5.29179 9.26341 1.29232 2.72806 6.39882 4.85869 0.0778392 0.981676 4.67672 4.02359 4.16852 1.50514 1.39483 9.32016 1.50281 1.17963 6.27544 4.6378 3.99319 5.05266 5.00644 0.799345 0.119909 1.44596 3.58012 5.38246 1.75997 4.58611 10.3359 4.41702 1.76494 2.00545 5.67686 1.83953 3.0167 0.568924 4.51801 8.29082 2.44887 3.29349 7.27283 3.71976 0.726927 8.5328 6.17663 3.00904 7.24152 6.11754 0.296979 1.88634 3.13906 2.19809 3.21427 3.04397 5.07455
-0.0313515 -0.0119528 -0.0389346 5.20318 -0.0119528 2.48603 -0.0313515 3.10936 -0.0389346 5.20318 3.10936 2.48603 2.94751 4.67002 4.89669 2.22432 1.54871 2.37173 7.45885 1.54871 0.0753643 8.18204 4.67002 2.60033 1.09721 4.67002 2.18051 4.07461 1.54871 4.70547 9.30914 1.54871 2.79154 6.33174 4.67002 0.266578 1.14984 4.67002 3.74554 4.02198 1.54871 1.22058 9.25651 1.54871 1.22652 6.38437 4.67002 3.75148 4.88662 4.67002 0.820152 0.285204 1.54871 3.34511 5.51973 1.54871 4.1519 10.1212 4.67002 1.62694 1.81301 5.87488 1.52983 3.35882 0.343852 4.05479 8.59334 2.75356 3.44222 7.04754 3.46517 0.917258 8.59334 0.343852 3.44222 7.04754 5.87488 0.917258 1.81301 3.46517 1.52983 3.35882 2.75356 4.05479
10.1297 6.04669 5.31931 5.80913 0.422658 2.58855 0.59115 2.86357 5.40034 4.59796 3.20409 2.84114 3.05259 5.03972 0.0424438 2.08038 1.245 2.87663 7.30862 1.93396 0.0233769 8.33386 4.25694 2.57434 1.07085 4.48298 2.51835 3.99204 1.72497 5.31647 9.26341 1.29232 2.74087 6.39882 4.85869 0.0783799 0.981676 4.67672 4.0424 4.16852 1.50514 1.40147 9.32016 1.50281 1.18528 6.27544 4.6378 4.01186 5.05266 5.00644 0.803226 0.119909 1.44596 3.59688 5.38246 1.75997 4.60752 10.3359 4.41702 1.77329 2.00545 5.67686 1.84823 3.0167 0.568924 4.53911 8.29082 2.44887 3.30892 7.27283 3.71976 0.730473 8.5328 6.17663 3.02315 7.24152 6.11754 0.298534 1.88634 3.13906 2.20845 3.21427 3.04397 5.09822
9.84048 5.60151 5.37962 5.69025 0.377704 2.68692 0.515131 2.68868 5.66343 4.59918 3.41201 2.67063 3.08476 4.89685 0.0622956 1.98557 1.26533 2.97466 7.35612 1.99589 -0.250251 8.22002 4.33445 2.54405 1.16843 4.38526 2.55312 4.09837 1.81691 5.26179 9.26377 1.37472 2.7989 6.43408 4.88071 0.106198 1.01503 4.68456 4.03487 4.2443 1.62442 1.3434 9.41524 1.49557 1.31397 6.37276 4.68379 3.99824 5.09631 4.85788 0.785655 0.0367931 1.53078 3.63934 5.3903 1.89792 4.40496 10.3313 4.35582 1.75905 2.17426 5.62056 1.93853 3.20151 0.668259 4.5893 8.22097 2.45643 3.45547 7.33816 3.76326 0.780867 8.57491 6.13587 3.06062 7.15798 6.30303 0.398094 1.96901 3.01676 2.23041 3.23913 3.08375 4.90489
9.87294 5.79309 5.3151 5.7751 0.447969 2.61664 0.535622 2.80494 5.39832 4.73576 3.54995 2.90757 3.03785 4.86271 -0.0638284 2.14282 1.29207 2.80256 7.35536 1.8567 -0.0820492 8.25197 4.4206 2.54888 1.15236 4.31889 2.4924 4.0673 1.84674 5.37821 9.19922 1.34949 2.75078 6.32961 4.82039 0.135095 0.987612 4.52135 4.05121 4.24696 1.78098 1.41443 9.37311 1.4397 1.20365 6.18281 4.61149 4.09089 5.04827 4.92654 0.957084 0.0699512 1.38993 3.49026 5.34255 1.74288 4.61746 10.3908 4.31409 1.67262 2.04579 5.61669 1.94447 3.07865 0.681219 4.81053 8.27293 2.5334 3.40362 7.21356 3.65109 0.853493 8.49884 6.18611 3.27664 7.16156 6.15633 0.491397 2.03855 3.11669 2.1407 3.35623 3.20831 4.81969
9.87294 5.79309 5.33978 5.7751 0.447969 2.62888 0.535622 2.80494 5.42338 4.73576 3.54995 2.92115 3.03785 4.86271 5.41309 2.14282 1.29207 2.81566 7.35536 1.8567 5.39478 8.25197 4.4206 2.56081 1.15236 4.31889 2.50406 4.0673 1.84674 5.40318 9.19922 1.34949 2.76364 6.32961 4.82039 0.135897 0.987612 4.52135 4.07005 4.24696 1.78098 1.42113 9.37311 1.4397 1.20937 6.18281 4.61149 4.10992 5.04827 4.92654 0.961674 0.0699512 1.38993 3.50653 5.34255 1.74288 4.63892 10.3908 4.31409 1.68051 2.04579 5.61669 1.95361 3.07865 0.681219 4.83288 8.27293 2.5334 3.41949 7.21356 3.65109 0.857606 8.49884 0.0475148 3.29192 7.16156 6.15633 0.493841 2.03855 3.11669 2.15075 3.35623 3.20831 4.84208
9.97872 5.94133 5.37298 5.85818 0.339274 2.73244 1.01976 2.5966 5.73804 4.59011 3.50467 2.69613 3.25607 5.18322 5.58603 1.68757 0.94213 2.96571 7.05117 1.92614 5.18473 8.36464 4.20297 2.5597 1.33581 4.33706 2.67177 4.04356 1.95972 5.27991 9.09295 1.20689 2.71794 6.43155 5.0322 0.00495131 1.19771 4.68975 4.17697 4.65979 1.69906 1.25252 9.55684 1.53936 1.30192 6.11425 4.76626 4.01186 5.17229 5.11566 0.977566 -0.147291 1.29821 3.76324 5.13038 1.82518 4.18637 10.4366 4.39296 1.77907 2.36252 5.42183 2.02128 2.90365 0.844461 4.98396 8.04765 2.39547 3.30347 7.28819 3.77849 0.568476 8.36651 -0.135831 2.91779 7.26929 6.34297 0.222547 2.05039 2.93111 2.39865 3.33661 3.373 5.11485
9.46953 5.81675 5.33053 6.2048 0.536959 2.72024 1.01431 2.65662 5.29763 4.46477 3.67692 2.91768 3.38695 5.25058 0.480894 2.09159 1.02445 3.02631 6.98847 2.19802 5.1461 8.53032 3.93304 2.39924 1.1324 4.18286 2.53157 3.90096 2.01857 5.52868 9.24226 0.964962 2.60105 6.35723 5.18208 0.0362999 0.266868 4.26276 3.76083 4.47472 1.88308 1.47961 9.7882 1.26102 1.23653 5.85311 4.9813 4.06892 5.29189 5.2903 1.15342 0.116606 1.01484 3.71325 5.12872 1.9835 4.43271 10.4069 4.20378 1.28815 2.17604 5.42001 2.32807 2.81258 0.897404 5.11156 8.0706 2.13604 3.04207 7.25317 3.96879 0.437144 8.41451 5.86042 2.65258 7.23703 0.2526 0.0766873 2.0111 2.90443 2.45767 3.16293 3.35234 5.27507
9.46953 5.81675 5.35516 6.2048 0.536959 2.73289 1.01431 2.65662 5.32211 4.46477 3.67692 2.93124 3.38695 5.25058 0.483278 2.09159 1.02445 3.04037 6.98847 2.19802 5.16989 8.53032 3.93304 2.41042 1.1324 4.18286 2.54336 3.90096 2.01857 0.0520683 9.24226 0.964962 2.61316 6.35723 5.18208 0.0366451 0.266868 4.26276 3.77826 4.47472 1.88308 1.48658 9.7882 1.26102 1.24238 5.85311 4.9813 4.08777 5.29189 5.2903 1.15889 0.116606 1.01484 3.73046 5.12872 1.9835 4.45322 0.18814 4.20378 1.29424 2.17604 5.42001 2.33892 2.81258 0.897404 5.13518 8.0706 2.13604 3.0562 7.25317 3.96879 0.439328 8.41451 5.86042 2.66493 7.23703 0.2526 0.0772178 2.0111 2.90443 2.46913 3.16293 3.35234 5.29945
9.39934 5.64921 0.243633 6.23263 0.460707 2.26213 0.773067 2.50242 0.35769 4.49814 3.78818 2.28256 3.614 5.31167 5.08852 1.81261 0.873702 3.36221 6.86005 2.22669 4.92775 8.70902 4.12945 3.14847 1.15632 4.09234 3.13008 4.00269 2.10564 5.16822 9.20138 0.813085 2.94937 6.3297 5.39671 5.02552 0.212859 4.12065 4.40703 5.02869 1.84137 0.785294 10.1889 0.761809 1.7601 5.34726 5.43706 3.79937 5.52132 5.10685 0.819653 10.0475 0.83278 4.23027 4.90498 2.30347 3.88354 0.182126 4.15318 1.9162 2.22125 5.3081 3.20155 3.03551 0.866811 5.10689 8.24009 2.13812 2.988 7.29125 4.17377 4.75537 8.23269 5.98907 2.80359 7.1224 0.299024 5.19176 1.9772 2.76671 3.11437 3.16555 3.39838 5.45862
9.42899 5.73099 0.355005 6.01088 0.653428 2.28928 0.982774 2.52888 0.345835 4.37906 3.79971 2.30761 3.68702 5.35065 5.30505 1.82816 0.869142 3.27069 6.75482 2.12907 4.8834 8.62855 4.03593 3.17214 1.19394 4.1205 2.94051 4.0364 2.127 5.26118 9.28062 0.859094 2.9099 6.27881 5.31486 5.1053 0.229891 4.25455 4.19836 4.95833 1.91813 0.975743 10.331 0.897553 1.77108 5.2292 5.29931 3.86505 5.47768 5.15696 0.925642 10.0465 0.918762 4.2079 4.89723 2.17887 3.9784 0.175886 4.07763 1.80696 2.14318 5.31455 2.86769 3.05046 0.896144 5.09104 8.21448 2.05724 3.01243 7.36883 4.08297 4.88772 8.44207 5.97091 2.62222 7.18108 0.211647 5.05199 2.0173 2.82611 3.01973 3.24823 3.50736 5.46641
9.42899 5.73099 0.356804 6.01088 0.653428 2.29991 0.982774 2.52888 0.347592 4.37906 3.79971 2.31832 3.68702 5.35065 5.32945 1.82816 0.869142 3.2858 6.75482 2.12907 4.90588 8.62855 4.03593 3.1868 1.19394 4.1205 2.95412 4.0364 2.127 5.28538 9.28062 0.859094 2.92337 6.27881 5.31486 5.12879 0.229891 4.25455 4.21771 4.95833 1.91813 0.980376 0.19244 0.897553 1.77935 5.2292 5.29931 3.88288 5.47768 5.15696 0.930047 10.0465 0.918762 4.22729 4.89723 2.17887 3.99675 0.175886 4.07763 1.81539 2.14318 5.31455 2.88096 3.05046 0.896144 5.11446 8.21448 2.05724 3.02636 7.36883 4.08297 4.91022 8.44207 5.97091 2.63437 7.18108 0.211647 5.07523 2.0173 2.82611 3.0337 3.24823 3.50736 -0.0357287