-32410.3802716867
-32411.9282326421
-32411.9282326421
-32410.2676523982
-32410.8048891957
-32409.7265679131
-32409.6482753596
-32410.3087789824
-32410.3488407858
-32410.4745872473
-32410.5260076206
-32410.4535917706
-32411.9147850552
-32410.8487170526
-32410.8725644169
-32410.7378828299
-32410.5516107986
-32410.5478534526
-32410.8203428047
-32410.676885551
-32410.6552944174
-32410.2977600103
-32411.9029462045
-32410.3443748557
-32410.3235957094
-32410.3594660094
-32410.2035663567
-32410.1377767474
-32410.3424552296
-32410.4610959861
-32410.4142739261
-32410.4585907714
-32410.0901069172
-32411.533176341
-32410.0614313034
-32410.4209733654
-32410.1823272022
-32410.1418961406
-32410.1997881941
-32410.131428743
-32410.1332504081
-32410.5359805877
-32410.3430140151
-32410.3794182021
-32411.5076923488
-32410.2404102795
-32409.9367953379
-32409.9549355256
-32410.2408606276
-32409.9463579575
-32409.988803885
-32410.5235263519
-32410.4531484974
-32410.4706866335
-32410.4403201052
-32410.5590483463
-32410.5907268707
-32410.6127354267
-32410.6012552218
-32410.7599456726
-32410.8747439115
-32410.8907051487
-32410.5105651682
-32410.6381722071
-32410.5104537376
-32410.7739935423
-32410.3676461553
-32410.5961166268
-32411.9282326421
-32411.3395014564
-32411.3100126309
-32410.5400812051
-32410.5153890638
-32410.3055904902
-32410.6918601039
-32410.4004988504
-32411.0535488709
-32409.9081399967
-32410.0948001982
-32410.0544005657
-32410.2749538891
-32410.240749061
-32410.1995379855
-32410.2110112515
-32410.1790734027
-32410.9746965795
-32410.9754001294
-32410.4955318387
-32410.5189959309
-32411.2570656997