-7.71330549637878e-06 1.79977128248838e-06 2.80250099701762e-05 -2.39112470387742e-05 -3.08532219855151e-06 1.0284407328505e-05 6.17064439710302e-06 1.69692720920333e-05 3.1624552535153e-05 -1.31126193438439e-05 2.13401452066479e-05 3.85665274818939e-06 -0.587769819655422 -1.77406026416712e-05 -0.0848710430377549 0.587564902839401 -1.69692720920333e-05 -0.085120182805288 0.58752556498137 -7.45619531316615e-06 0.0848800418941674 -0.587286195400799 2.41683572219868e-05 0.0846949225622543 5.72100136695455 -3.9852078397957e-05 1.91396419926044 -5.72107387202622 -1.31126193438439e-05 1.91396548481135 -5.72076688246746 1.41410600766944e-05 -1.9143184970929 5.72072574483815 -4.37087311461464e-06 -1.91402462015349 -0.269538118138575 -1.13128480613555e-05 -2.40895940884615 0.26957617044569 -7.71330549637878e-07 -2.4089923189496 0.269400564190556 -1.28555091606313e-06 2.40917898094261 -0.269355827018677 -5.65642403067777e-06 2.40918103782408 -3.44757090632418 -1.18270684277808e-05 1.13699522330471 3.44759738867305 -9.77018696207978e-06 1.13713406280364 3.44753773911054 3.34243238176414e-06 -1.13693145997927 -3.44752514071156 3.85665274818939e-06 -1.13698185357518 -0.894892561486201 -0.472380312090695 0.83934442062348 0.894889990384369 0.472335317808632 0.839434923407971 0.894792288514748 -0.472291866187669 -0.839312538960762 -0.894777119013939 0.472359743276038 -0.839401499084153 0.894790745853649 0.472280039119242 -0.839309710748746 -0.894787917641634 -0.472364371259335 -0.839405869957268 -0.894902331673163 0.472394710260955 0.839372959853816 0.894883305519606 -0.472275411135944 0.839408955279466
-2.05688146570101e-06 -4.11376293140201e-06 -1.38839498934818e-05 -2.31399164891363e-06 -4.62798329782727e-06 -1.2341288794206e-05 1.28555091606313e-06 2.03117044737974e-05 -6.9419749467409e-06 6.68486476352827e-06 2.10830350234353e-05 -1.54266109927576e-05 0.0170338067480197 -0.000102072742735412 0.0215743725835546 -0.0173382252049434 0.000124184218491698 0.0213797401748627 -0.0172636632518118 0.00012341288794206 -0.0211820224439722 0.0171842162051991 -0.000128555091606313 -0.0213643135638699 -0.000212115901150416 -0.000191547086493406 0.00797992875637027 -0.000629148618321295 0.000227542512143174 0.00873634691538181 -0.000287449184831716 0.000202602824371549 -0.00847923673216919 0.000387979266467852 -0.000241683572219868 -0.00852448812441461 -0.0111619243838097 2.57110183212626e-07 0.00647043487072894 0.0112128322000858 -6.9419749467409e-06 0.00625754763902889 0.0111560108495958 -4.88509348103989e-06 -0.00671031867166632 -0.0111781223253521 -8.9988564124419e-06 -0.00657764981712861 0.00827277725504945 3.34243238176414e-06 -0.00980875348956168 -0.0083553096238607 7.71330549637878e-06 -0.00978252825087399 -0.0082982311631875 -3.59954256497676e-06 0.00978355669160684 0.00958069675705208 -1.69692720920333e-05 0.00991442577486207 -0.00359182925948038 -0.00430556712807863 -0.0143218085354929 0.00349669849169171 0.0041297037627612 -0.014388400072945 0.00345761774384339 -0.00418215424013657 0.0144048551246706 -0.00344321957358349 0.00427677078755882 0.014303810822668 0.00336300119642115 0.00400731931555199 0.0144909870360468 -0.0033090080579465 -0.00407571062428654 0.0144141110912662 -0.00368310337452087 0.0044942860025567 -0.0142439041499795 0.00360134233625925 -0.00436033159710292 -0.0142780998043468
-2.05688146570101e-06 -4.11376293140201e-06 -1.38839498934818e-05 -2.31399164891363e-06 -4.62798329782727e-06 -1.2341288794206e-05 1.28555091606313e-06 2.03117044737974e-05 -6.9419749467409e-06 6.68486476352827e-06 2.10830350234353e-05 -1.54266109927576e-05 0.0170338067480197 -0.000102072742735412 0.0215743725835546 -0.0173382252049434 0.000124184218491698 0.0213797401748627 -0.0172636632518118 0.00012341288794206 -0.0211820224439722 0.0171842162051991 -0.000128555091606313 -0.0213643135638699 -0.000212115901150416 -0.000191547086493406 0.00797992875637027 -0.000629148618321295 0.000227542512143174 0.00873634691538181 -0.000287449184831716 0.000202602824371549 -0.00847923673216919 0.000387979266467852 -0.000241683572219868 -0.00852448812441461 -0.0111619243838097 2.57110183212626e-07 0.00647043487072894 0.0112128322000858 -6.9419749467409e-06 0.00625754763902889 0.0111560108495958 -4.88509348103989e-06 -0.00671031867166632 -0.0111781223253521 -8.9988564124419e-06 -0.00657764981712861 0.00827277725504945 3.34243238176414e-06 -0.00980875348956168 -0.0083553096238607 7.71330549637878e-06 -0.00978252825087399 -0.0082982311631875 -3.59954256497676e-06 0.00978355669160684 0.00958069675705208 -1.69692720920333e-05 0.00991442577486207 -0.00359182925948038 -0.00430556712807863 -0.0143218085354929 0.00349669849169171 0.0041297037627612 -0.014388400072945 0.00345761774384339 -0.00418215424013657 0.0144048551246706 -0.00344321957358349 0.00427677078755882 0.014303810822668 0.00336300119642115 0.00400731931555199 0.0144909870360468 -0.0033090080579465 -0.00407571062428654 0.0144141110912662 -0.00368310337452087 0.0044942860025567 -0.0142439041499795 0.00360134233625925 -0.00436033159710292 -0.0142780998043468
5.91353421389039e-06 -3.34243238176414e-06 3.85665274818939e-06 -1.82548230080964e-05 -1.56837211759702e-05 -7.71330549637878e-06 1.87690433745217e-05 2.15972553898606e-05 6.9419749467409e-06 -8.22752586280403e-06 3.31672136344287e-05 -1.31126193438439e-05 -0.583365007996623 -1.2341288794206e-05 -0.102018749596938 0.583216398310726 -1.69692720920333e-05 -0.102189727868774 0.583434684856274 -1.59408313591828e-05 0.102047545937458 -0.583255479058575 2.51967979548373e-05 0.102078399159443 5.69986253902136 -3.52240951001297e-05 1.97407373188353 -5.6999232170246 -8.9988564124419e-06 1.9741416089719 -5.69955786345425 1.38839498934818e-05 -1.97407501743445 5.6995984868632 -5.39931384746514e-06 -1.97395083321596 -0.274501116005128 -1.0284407328505e-05 -2.57237658441463 0.274535568769678 -2.57110183212626e-07 -2.57248508491194 0.274476433427539 -1.28555091606313e-06 2.57231410664011 -0.274466406130394 -5.65642403067777e-06 2.57230613622443 -3.41628239679848 -1.0284407328505e-05 1.09982686099912 3.41623560274514 -7.9704156795914e-06 1.09988753900236 3.41624563004228 2.82821201533888e-06 -1.09987828303577 -3.41626439908566 3.08532219855151e-06 -1.09996570049806 -0.899876642387778 -0.47532268102738 0.882589067888928 0.899885384134007 0.475316767493166 0.88266131585041 0.899722890498217 -0.475212894979148 -0.882513477495063 -0.899712863201072 0.475188983732109 -0.882600894957355 0.899721604947301 0.475200810800537 -0.882511163503414 -0.8997231476084 -0.475191040613575 -0.88260526583047 -0.899885641244191 0.475333736765258 0.882614521797066 0.899880756150709 -0.475264317015791 0.882640232815387
4.73082737111232e-05 1.74834924584586e-05 1.4398170259907e-05 1.15699582445682e-05 -1.10557378781429e-05 2.23685859394984e-05 5.57929097571398e-05 -3.34243238176414e-06 1.74834924584586e-05 2.18543655730732e-05 2.51967979548373e-05 2.05688146570101e-05 -0.364570412727076 -1.54266109927576e-05 -0.169641298883691 0.364832922224136 2.93105608862393e-05 -0.169471091942404 0.363535287129462 2.9567671069452e-05 0.169565708489826 -0.364527732436662 -2.46825775884121e-05 0.169941603577683 -1.78566184696422 -1.07986276949303e-05 0.74297489597209 1.78629022425199 2.31399164891363e-05 0.742461961156581 1.78600997415229 2.21114757562858e-05 -0.742669706184617 -1.78622311849418 -2.05688146570101e-05 -0.743569077605494 0.797404350427653 -5.14220366425252e-06 -0.26907197737641 -0.797706969113294 -2.31399164891363e-06 -0.268552100585954 -0.797294307269238 -5.14220366425252e-07 0.268687083432141 0.797300477913635 -5.91353421389039e-06 0.269335772424386 2.518906922273 -1.54266109927576e-06 0.813500476337496 -2.51857730701812 -5.14220366425252e-07 0.813289645987262 -2.51883004632822 0 -0.813569381866597 2.5185775641283 -6.9419749467409e-06 -0.8135647538833 -0.390266004437345 -1.24597471689176 -0.0579986580189209 0.390285030590903 1.24572197758166 -0.0578806444448263 0.390265490216979 -1.24567106976539 0.0578955568354527 -0.390090398182211 1.24576157254988 0.0581022734227556 0.390265233106796 1.24566181379879 0.0579035272511323 -0.390087569970196 -1.24576774319427 0.0581164144828323 -0.390255462919834 1.24596880335755 -0.0579906876032413 0.390280659717789 -1.24573843263339 -0.0578703600374978
-3.39385441840666e-05 1.61979415423954e-05 1.33697295270565e-05 -1.85119331913091e-05 1.41410600766944e-05 -2.13401452066479e-05 -3.49669849169171e-05 -2.59681285044752e-05 1.20841786109934e-05 -2.13401452066479e-05 -2.46825775884121e-05 -2.10830350234353e-05 0.403813654211185 0.00014783835534726 0.238913981326302 -0.403192733118727 -0.000153237669194725 0.238770513844069 -0.403609765835898 -0.000163779186706443 -0.238813965465032 0.403407934342076 0.000159151203408615 -0.238834020059323 -1.43841963214494 -8.22752586280403e-06 -4.76257122277248 1.43834969817511 -2.08259248402227e-05 -4.76187136885378 1.43830007590975 6.42775458031565e-06 4.76207037213558 -1.43845819867243 1.33697295270565e-05 4.76244780988454 0.665291368106044 5.14220366425252e-06 0.270520793258813 -0.665287254343113 1.79977128248838e-06 0.269899615056171 -0.665222719687126 -2.57110183212626e-07 -0.270182950478072 0.66533430550664 5.14220366425252e-06 -0.270347500995328 2.15277430807272 -3.34243238176414e-06 -1.86962400550432 -2.15279282000591 -4.88509348103989e-06 -1.86965897248924 -2.15274011241835 3.34243238176414e-06 1.86965485872631 2.15275399636825 8.74174622922928e-06 1.86962503394505 -0.860783296140482 -0.584243039272294 1.3599136088028 0.860719532815045 0.584066404576427 1.35985370213011 0.860717733043762 -0.58399698482696 -1.35980613674622 -0.860742672731534 0.584263865197134 -1.35994857578772 0.860710791068816 0.583979501334501 -1.35980536541567 -0.860745500943549 -0.58426026565457 -1.35995371799138 -0.860787924123779 0.584255637671272 1.35993134940544 0.860717990153945 -0.584040950668289 1.35983313331546
-1.4398170259907e-05 1.07986276949303e-05 -8.48463604601665e-06 -3.70238663826181e-05 1.51695008095449e-05 -3.65096460161929e-05 -1.59408313591828e-05 -2.00545942905848e-05 -9.51307677886716e-06 -3.9852078397957e-05 -2.51967979548373e-05 -3.62525358329802e-05 0.402048078583064 0.000155551660843639 0.232673402959365 -0.402266622238795 -0.000170721161653184 0.232711969486847 -0.401794567942416 -0.000164550517256081 -0.232535849011346 0.402427830323669 0.000165836068172144 -0.232513223315224 -1.45323020713872 -5.91353421389039e-06 -4.54230338615312 1.45315513096523 -1.77406026416712e-05 -4.54188532499522 1.45311759287848 5.39931384746514e-06 4.54197222823715 -1.45322069406195 1.2341288794206e-05 4.54267953835116 0.686799149152146 5.91353421389039e-06 -0.053291227674481 -0.686699133290877 1.54266109927576e-06 -0.053650410600429 -0.68672098765645 -7.71330549637878e-07 0.0536619805586736 0.686700933062159 5.91353421389039e-06 0.0530829684260787 2.15600361197387 -2.57110183212626e-06 -1.90099350473773 -2.1560061830757 -3.59954256497676e-06 -1.90086006455264 -2.15602520922926 2.82821201533888e-06 1.90092537053917 2.15599281334618 7.9704156795914e-06 1.90084309528055 -0.862482537341334 -0.58311586822909 1.40189738772977 0.862456826323012 0.582832018586823 1.40191641388333 0.86249822106251 -0.582915836506551 -1.40195986550429 -0.862552985531534 0.583137722594663 -1.40206630912014 0.862491793307929 0.582899638565008 -1.40195909417374 -0.862555556633366 -0.583133094611365 -1.40206913733216 -0.862487422434815 0.583125638416052 1.4019138427815 0.862457340543379 -0.582808107339785 1.40190021594179
-3.9852078397957e-05 -2.545390813805e-05 0.000287192074648503 -4.08805191308075e-05 -9.77018696207978e-06 -0.000249396877716247 -4.85938246271863e-05 1.28555091606313e-05 0.000288220515381354 -4.65369431614853e-05 -2.57110183212626e-06 -0.000247597106433759 -0.571643611854143 0.000156837211759702 -0.229713293420038 0.572165802636248 -0.00013703972765233 -0.23034809846239 0.572675395019375 -0.000141667710950157 0.230001771045603 -0.571985054177449 0.000126755320323825 0.229252809081904 -1.07305706294339 2.64823488709005e-05 2.4891914128482 1.07175145743304 -7.81614956966383e-05 2.50046055217841 1.07191395106883 -7.04481902002595e-05 -2.50105396248126 -1.07304112211203 7.45619531316615e-06 -2.48841005500141 0.912123571744745 2.57110183212626e-06 -1.7937029679442 -0.912164966484242 -3.08532219855151e-06 -1.79991372152988 -0.912323089246918 -2.31399164891363e-06 1.80002299335775 0.911978561601413 -5.14220366425252e-07 1.79346951189784 2.15198266581861 4.88509348103989e-06 1.0918232781059 -2.14783110769027 -1.28555091606313e-06 1.09299158677842 -2.14773109182901 -4.88509348103989e-06 -1.09248919348042 2.1512614717547 -2.82821201533888e-06 -1.09189295496555 -0.640716262574215 -1.79683714107756 -0.0124230498324677 0.639361291908684 1.79408554789682 -0.0140649554624635 0.639471077956916 -1.7940888903292 0.0142860702200263 -0.641072617288147 1.79716058568804 0.012344888336771 0.639510158704764 1.79415573897683 0.0142634445239036 -0.641065161092834 -1.79715132972144 0.01234000324329 -0.640708806378902 1.79683868373866 -0.0124317915786969 0.63932015427937 -1.79402075613065 -0.0140829531752884
-0.00024091224167023 0.000312903092969766 -1.69692720920333e-05 -0.000213401452066479 0.000320616398466144 3.44527645504919e-05 -0.000226256961227111 -0.000292848498679181 -1.31126193438439e-05 -0.000199517502172998 -0.000300818914358772 2.85392303366015e-05 -0.219872144047392 3.3681434000854e-05 -0.0629624272160239 0.220059577370954 -5.19362570089504e-05 -0.0622456040252271 0.219879086022338 -5.2193367192163e-05 0.0621563867916523 -0.220130282671337 7.22479614827479e-05 0.0627991622496839 4.16414804267564 0.000109786048231791 0.261142699326133 -4.16851480202733 -0.000172263822752459 0.261535049465715 -4.16886652875796 -9.38452168726084e-05 -0.261219832381096 4.16472448370641 0.000136268397102692 -0.261622981148374 -0.662227900273066 -1.07986276949303e-05 -2.70545527258438 0.663671316841621 -3.34243238176414e-06 -2.70352103267607 0.663758220083547 -5.39931384746514e-06 2.70352463221864 -0.661967190547288 -1.0284407328505e-06 2.70580545665392 -1.59703733192339 -9.25596659565453e-06 0.301890549602403 1.59852085768053 -1.25983989774187e-05 0.303060658046203 1.59857690770047 -2.31399164891363e-06 -0.302943158692475 -1.59606571254103 6.68486476352827e-06 -0.301621098130396 -0.930943780045726 -0.942431463031666 1.28224962131068 0.93137546804334 0.9404414302136 1.28162304379419 0.931510193779343 -0.940673600709041 -1.28163307109134 -0.930802626555142 0.942344816899924 -1.28231107064447 0.931544389433711 0.940717052330004 -1.28167292316973 -0.930873588965709 -0.942452288956506 -1.28236814910514 -0.930886701585053 0.942336846484244 1.28221799675814 0.931300391869842 -0.940266852399199 1.28153845454391
-0.000517305688623803 0.000814525060417599 -0.00431559442522392 -0.00049545132305073 0.000799098449424841 0.00425028843868792 -0.000509849493310637 -0.000802183771623393 -0.00430916667064361 -0.000488766458287202 -0.000787528491180273 0.00424334646374118 -0.0659032534916099 -9.8987420536861e-05 0.0288865861941217 0.0630619288569272 6.89055291009837e-05 0.0512243189116347 0.0630922678585463 7.37906225820236e-05 -0.0513194496794233 -0.0658091511645541 -7.89328262462761e-05 -0.0282589802368997 -1.37896161672611 -0.000191547086493406 -1.44663584515969 1.34198017352372 9.8987420536861e-05 -1.67883616538194 1.34329554922104 0.000131897523988077 1.68371123156584 -1.37749737423271 -0.000166350288538569 1.44125761434725 0.313204940324857 -4.88509348103989e-06 1.20823994085256 -0.3123680466785 1.28555091606313e-06 1.37889065431554 -0.312068770425241 -5.14220366425252e-07 -1.38225519817306 0.313585977616378 -5.14220366425252e-06 -1.20487179745247 2.92580127069944 -1.49123906263323e-05 -0.0163668629327661 -2.92113497798431 -7.9704156795914e-06 -0.0254904177840662 -2.91915522957357 2.05688146570101e-06 0.0246910622244581 2.92813403139172 -5.14220366425252e-07 0.0172358953520248 -1.01795166581616 -1.06811077723875 0.168101980216797 1.03340424493742 1.0829799733543 0.19126889327517 1.03367755306218 -1.08332732921182 -0.191535516535162 -1.01774649188996 1.06792385813555 -0.167929973504227 1.03361713216912 1.08322937023201 -0.191490265142916 -1.01766575929243 -1.0677760197802 -0.167865695958424 -1.01803625506644 1.06827404220509 0.168188626348539 1.0334551527537 -1.08302342497526 0.191290233420377
0.000715023419514312 0.00256056031461454 -0.00192986903519397 0.000684941528078435 0.00253407796574364 0.00204171196489146 0.000713737868598249 -0.00256081742479775 -0.0019324401370261 0.000670286247635316 -0.0025639027469963 0.00204968238057105 -0.207941717325959 2.80250099701762e-05 -0.0637967497605489 0.201447371208192 5.14220366425252e-07 -0.0676032660230118 0.202186048764562 1.54266109927576e-06 0.0674641694138937 -0.208708419892299 1.54266109927576e-05 0.0632994986662156 -1.32912852101584 0.000148609685896898 -2.01982931719824 1.33807004185742 0.000194632408691958 -2.10429901124 1.34007138752355 0.000100530081636137 2.09937200879909 -1.32748198740254 0.000138582388751605 2.02142699987672 -0.226756783423276 6.68486476352827e-06 -0.284522242506023 0.208752899953995 1.36268397102692e-05 -0.195472644770697 0.208063844662985 8.9988564124419e-06 0.198657725720335 -0.227100282628048 6.68486476352827e-06 0.284530212921703 3.13337660601432 1.49123906263323e-05 -1.04644075966704 -3.15513661215015 7.71330549637878e-06 -1.02755010317585 -3.1528002519153 1.2341288794206e-05 1.02840036655174 3.13549750791564 -1.0284407328505e-06 1.04596382027718 -0.590728129423466 -0.0875732710633196 0.37419533243564 0.606734523879368 0.124945007523824 0.373154807524179 0.60687387759867 -0.125351498723484 -0.372675297032487 -0.590511642649201 0.0870140564148322 -0.37458742546504 0.606819627350012 0.125256625065878 -0.372644443810502 -0.590590061255081 -0.0871888913394168 -0.374645532366446 -0.590643540173189 0.0874010072405672 0.374135939983318 0.606850480571997 -0.125170493154502 0.373236825672624
0.000729164479591007 0.00245540224968058 -0.00186482015884118 0.000740477327652362 0.00244254674051995 0.00193346857775895 0.000731992691606346 -0.00245205981729881 -0.0018673912606733 0.000727878928674944 -0.00246825775884121 0.00193938211197284 -0.195661620755358 5.14220366425252e-06 -0.0760840454162802 0.189759913609895 -8.48463604601665e-06 -0.0799147300359652 0.188910421564561 -5.14220366425252e-06 0.079683587981257 -0.196520368767288 3.1624552535153e-05 0.0758120228424413 -1.31516049609244 0.000123927108308486 -1.84520702273517 1.32440129318729 0.000182034009714539 -1.9250793295909 1.32626868444796 0.000104129624201113 1.92047474331975 -1.31332472938431 0.000154266109927576 1.84658307643572 -0.221910513579901 6.68486476352827e-06 -0.564193330075191 0.20374413647483 1.74834924584586e-05 -0.47941227560156 0.20321834615016 9.25596659565453e-06 0.482168753875783 -0.222362513281989 1.13128480613555e-05 0.564384362941317 3.12002975929357 2.05688146570101e-06 -1.07618352277126 -3.1417270305447 -2.57110183212626e-06 -1.05726227016827 -3.13946523226297 1.4398170259907e-05 1.05821692027854 3.12221519585087 9.25596659565453e-06 1.07547852664889 -0.597499897428921 -0.0945057329332817 0.425063553743526 0.613420674193813 0.131669210145384 0.424023028832064 0.613634846976429 -0.132026850410233 -0.42342164811353 -0.597249729220655 0.093905123545297 -0.425456160993291 0.613571340761175 0.131908836836138 -0.423384110026781 -0.597342545996794 -0.0940717309440188 -0.425517610327079 -0.597413508407361 0.0943514668233541 0.425012645927249 0.613533545564243 -0.13186332833371 0.42407393664834
-2.57110183212626e-06 -2.62252386876878e-05 -5.14220366425252e-07 1.00272971452924e-05 -2.36541368555616e-05 -3.72809765658308e-05 2.05688146570101e-06 4.06234089475949e-05 4.88509348103989e-06 1.74834924584586e-05 3.83094172986812e-05 -4.06234089475949e-05 0.0134059820628895 -0.00011749935372817 0.006826018254112 -0.0129863782438865 0.000146295694247984 0.00702065066280396 -0.0136240114982538 0.000133697295270565 -0.00666481016923769 0.0127446946716667 -0.0001282979814231 -0.00689595222394584 0.00498690911359209 -0.0002036312651044 0.17688486407534 -0.00596418491998328 0.000222143198295709 0.177184140328599 -0.00563739787712004 0.000205945256753313 -0.177798890776661 0.00563636943638718 -0.000231399164891363 -0.177295211927747 -0.0172718907776746 -2.57110183212626e-06 -0.278623363572576 0.0172369237927576 -4.11376293140201e-06 -0.278660901659325 0.0171446212369843 -3.59954256497676e-06 0.278738806044838 -0.0171407645842361 -1.00272971452924e-05 0.278720808332013 0.0280450645644668 -2.82821201533888e-06 -0.0383945207693246 -0.0280669189300399 2.05688146570101e-06 -0.038378065717599 -0.0279573899919913 -2.31399164891363e-06 0.0385996946955283 0.0293416712184081 -1.28555091606313e-05 0.0385143341147017 -0.0115984974749048 -0.0179010393959959 0.033807160880445 0.0115157079959103 0.0179429483558595 0.0337783645399251 0.0115810139824463 -0.0178776423693235 -0.0337320847069469 -0.0114696852731152 0.0181270392470398 -0.0338968923343862 0.011477912798978 0.0176902090457615 -0.033641581922456 -0.0113483292666389 -0.0179393488132945 -0.0337971335832997 -0.0117054553111212 0.0180781883122294 0.0338997205464015 0.0116270367052414 -0.01814066608675 0.0338786375113781
0.000466140762164491 -0.00221886088112496 -7.58475040477246e-05 0.000454570803919923 -0.00218260834529198 0.00019874617162336 0.000469226084363042 0.00222348886442279 -7.40477327652362e-05 0.000458941677034537 0.00218723632858981 0.000195660849424808 -0.273386543360901 2.57110183212626e-07 -0.309005302592262 0.257894369271424 -1.92832637409469e-05 -0.303781337889748 0.25582283252528 -1.82548230080964e-05 0.302702503560988 -0.275233108696734 2.21114757562858e-05 0.310579074023707 3.37028178547918 -4.37087311461464e-06 -0.170384090202992 -3.34083418486529 -7.19908512995352e-05 -0.00454853625121456 -3.37741299352076 -5.65642403067777e-06 -0.0151898125140187 3.33697110436252 1.2341288794206e-05 0.182497579374871 -0.0809357145735025 -3.34243238176414e-06 -0.143824608277128 0.0755947647376266 -2.82821201533888e-06 -0.307819767537469 0.0767998401663442 -2.82821201533888e-06 0.322930904335424 -0.080115275978871 1.0284407328505e-06 0.134119470191401 -1.20850347879035 -5.65642403067777e-06 1.04451680416606 1.31524765644455 -6.17064439710302e-06 1.05109908196648 1.28818629544106 -5.14220366425252e-07 -1.04222106734015 -1.23227562922001 4.37087311461464e-06 -1.05267105362664 -1.03910720591126 -1.63959318100801 0.622579453140213 1.00663470399187 1.62007620411053 0.620349279411027 1.01151028439614 -1.62149056722838 -0.62340991903199 -1.0339912274857 1.63811711144619 -0.619116178972339 1.01150797040449 1.62147359795629 -0.62341557545602 -1.03399636968936 -1.63810682703886 -0.619123378057469 -1.03910849146218 1.63961760647542 0.622583566903144 1.00659973700696 -1.62000215637776 0.620308913112262
-0.00213761406322977 0.00155680215935245 0.0100440093072012 -0.00183962336088634 0.00167918660656166 -0.00980489683681349 -0.00213452874103122 -0.00154651775202394 0.0100470946293998 -0.00183088161465711 -0.00168227192876021 -0.00980026885351566 0.0586805142248008 5.16791468257378e-05 0.150739586654631 -0.0259511592323832 -9.07598946740569e-05 0.124265465309593 -0.019855333898595 -5.93924523221166e-05 -0.110757153393785 0.0644909472552229 7.89328262462761e-05 -0.16360049512911 -2.13406362870979 2.3397026672349e-05 0.611042404999096 1.99499838703411 -0.000187690433745217 1.25465578511775 2.11947545402449 -9.05027844908443e-05 -1.28629550715371 -2.00427389400369 0.000179977128248838 -0.57463174640344 0.611881355526919 -3.34243238176414e-06 -1.99297055901911 -0.651361138379584 -1.79977128248838e-06 -2.35899544405262 -0.656842470375494 -7.71330549637878e-07 2.38592027954883 0.605641034270165 3.34243238176414e-06 1.96008899479823 1.31998979666373 3.34243238176414e-06 -0.690775872355896 -1.25886236482529 -1.25983989774187e-05 -0.614913455917545 -1.16887122959904 3.34243238176414e-06 0.592997126790318 1.41466059433463 1.54266109927576e-06 0.71279838798879 -0.0340658137247569 -0.804798067966299 0.38499550279167 -0.0144539631696642 0.662440016174216 0.329058097111565 -0.0313329895873899 -0.651845276854573 -0.314967944851146 -0.0509664373978724 0.813693823195272 -0.399008521997124 -0.0312982797126562 0.651886928704254 -0.315006254268445 -0.0510679959202414 -0.81385451705978 -0.399081541289157 -0.0340632426229247 0.804817608340223 0.384986761045441 -0.0145457515050711 -0.662246155096074 0.328970679649272
-0.00215535466587144 0.00155243128623784 0.0102540683268859 -0.00182676785172571 0.00166530265666818 -0.00996841891333672 -0.00215149801312325 -0.00154214687890933 0.0102556109879852 -0.00181725477494684 -0.00166735953813388 -0.00996481937077174 0.0656338020196031 4.70511635279105e-05 0.13549758077342 -0.0328347701675348 -9.12741150404822e-05 0.108493555340781 -0.0263782192466994 -6.37633254367312e-05 -0.0951343673312365 0.0714853726793392 8.07325975287645e-05 -0.148473674609978 -2.13380857540804 2.13401452066479e-05 0.691020127029948 1.99463509034523 -0.000187433323562004 1.3133416986564 2.11851591882074 -8.92172335747812e-05 -1.34376657507668 -2.00477654441187 0.000178691577332775 -0.655840769101697 0.613422473965095 -3.85665274818939e-06 -2.17747951135726 -0.651995429201569 -1.54266109927576e-06 -2.5213067887231 -0.657659566537744 -7.71330549637878e-07 2.54657969129217 0.60708599349982 4.11376293140201e-06 2.14607581646948 1.32911283729466 2.57110183212626e-06 -0.724001450001914 -1.26847828567744 -1.28555091606313e-05 -0.647819188495647 -1.17913095434996 2.82821201533888e-06 0.626264099175833 1.42297090967643 2.57110183212626e-06 0.745816991937322 -0.0409301413961676 -0.809875736974565 0.431352468824906 -0.00719317159573963 0.668092840662329 0.374894157913612 -0.0240066349167461 -0.657678592691301 -0.360748212743437 -0.0577166081479367 0.818588943973457 -0.445314323103902 -0.0239729534827452 0.657718444769699 -0.360787036381102 -0.0578189380008553 -0.818744495634301 -0.445386571065384 -0.0409262847434194 0.80990016244197 0.431342698637944 -0.00728393149041369 -0.667898979584186 0.374802883798572
-0.0242030670967205 -0.0170965416327236 0.0325432072197717 -0.0296969974916079 -0.0121584834539419 -0.0251422905959963 -0.0242236359113775 0.0171145393455484 0.0325864017305514 -0.029669229591821 0.0121317439948878 -0.0250834123640406 0.0766160063853472 0.000183319560630602 0.291584802128691 0.189094255345558 -0.000283335421900314 0.14055236697538 0.10232702470661 7.91899364294888e-05 -0.212228772520847 -0.0162077117293575 -2.72536794205383e-05 -0.2149204590289 1.63698171287712 0.000693683274307665 -2.71310661452661 -1.79988955317266 -0.000154780330294001 -1.79382021018774 -3.07503110635824 0.000120841786109934 1.30139533110361 0.31605269271412 -0.000820438594631489 2.78904050759589 0.645037256313286 0.000107214946399665 2.86713849707728 -0.600851842887464 -8.71603521090802e-05 2.37825273966506 -0.572974928382818 7.58475040477246e-05 -2.04467773085482 0.650457138975408 -0.000103872514017901 -2.81287719268153 -1.62512507677827 1.51695008095449e-05 0.43494455519457 3.92535516024563 4.03662987643823e-05 1.28911754852465 2.93365598679658 -4.26802904132959e-05 -0.910973775005418 -2.66706280869652 -4.62798329782727e-06 -0.843702438228934 0.0154289249844065 -0.651388392059004 0.514414484613577 -0.147538307763451 0.429931677952473 0.367487327755623 -0.0241681001118036 -0.653918356261817 -0.469898684602326 0.150700763016966 0.416613627572243 -0.392329313657627 -0.0241850693838957 0.653694156182055 -0.469805867826187 0.151008523906272 -0.415718112804113 -0.391935420856945 0.0156994048971461 0.650606005771488 0.514071242518988 -0.147587930028811 -0.429603605358694 0.367372913724093
-0.0240590853941215 -0.0170116952722634 0.0324833005470831 -0.0294923377857707 -0.0121983355323398 -0.025252076644228 -0.0240721980134653 0.0170422913840657 0.0325390934568403 -0.0294684265387319 0.0121643969881558 -0.0251919128613563 0.0855593269982151 0.000169949831103546 0.273988438299802 0.177844142168906 -0.000278193218236061 0.121586891420884 0.0925851198646834 7.19908512995352e-05 -0.193606539060939 -0.00578703600374978 -1.77406026416712e-05 -0.196251688625831 1.62712667955458 0.000659230509757173 -2.44177978084342 -1.78959897519976 -0.00016840717000427 -1.54111586707465 -3.06242216586331 0.000131897523988077 1.06204786200841 0.309338260279523 -0.000828666120494293 2.51884393027811 0.631137879808812 6.5305986536007e-05 2.4739905445963 -0.586839595012559 -6.99339698338342e-05 2.00229517403368 -0.555814623424657 5.96495625053292e-05 -1.68437431872834 0.640754571991513 -8.1761038261615e-05 -2.41970532895352 -1.59462255308266 1.38839498934818e-05 0.39347319686274 3.88510558950443 4.1908959863658e-05 1.24695302113888 2.8966269782103 -4.37087311461464e-05 -0.869168944765961 -2.63174692526099 -3.34243238176414e-06 -0.80096224114295 0.00743588360869235 -0.655786775963223 0.56331452746897 -0.138724313572739 0.436353518998575 0.416199165956904 -0.0164684214551351 -0.658363277109197 -0.517909897554353 0.141443767980579 0.423521406864616 -0.442052880429849 -0.01648641916796 0.658132649274855 -0.51781605233748 0.141748443547686 -0.422628463198319 -0.441663101392099 0.00767191075688154 0.655076123416823 0.563065387701437 -0.138775735609381 -0.43602416085388 0.416070353755114