9.351698441 0.289748950 0.173182025 0.173151052 7.725386406 0.031475678 0.082326490 0.025038518 5.386214326
8.935712154 0.145466080 -0.049429351 0.086929064 9.080043242 -0.029908397 -0.023497502 -0.023791765 5.268588781
8.938309469 0.031371686 -0.024197646 0.018747404 8.804616783 -0.011764331 -0.011502968 -0.009358382 5.221509233
8.877791768 0.069663516 -0.019792905 0.041630215 9.599714090 0.103622133 -0.009409062 0.082430143 5.365473419
9.418197687 0.275616759 0.180922562 0.164705797 8.162524374 0.116103212 0.086006152 0.092358689 5.403367642
8.881835706 -0.075256674 -0.104446991 -0.044972630 8.939591868 0.135295684 -0.049651540 0.107626067 5.417274662
9.027448885 0.121936588 -0.105159948 0.072868076 9.272531479 0.175488158 -0.049990462 0.139598690 5.400810438
8.892851599 -0.071638864 -0.114609851 -0.042810663 8.943835460 0.146530553 -0.054482715 0.116563268 5.416930448
8.668933703 -0.025922177 0.138471808 -0.015490832 9.381638250 -0.057696267 0.065826104 -0.045896677 5.263826597
9.796636784 0.042966539 0.123085556 0.025676371 6.543042780 -0.027788314 0.058511857 -0.022105264 5.353282667
8.601844909 -0.157330739 0.155041251 -0.094019264 8.912456511 -0.196713158 0.073702811 -0.156482918 5.332101137
9.207788659 0.092637399 -0.107670437 0.055359176 9.250400664 0.498198915 -0.051183887 0.396311160 5.043742811
9.347288608 0.290474506 0.052151172 0.173584637 8.594179668 0.249751512 0.024791389 0.198674281 5.161232813
9.056048295 0.154237339 -0.106502873 0.092170679 9.160890851 0.106233334 -0.050628856 0.084507322 5.337732041
10.395649980 0.004492741 -0.002057189 0.002684817 6.204987984 0.005673162 -0.000977937 0.004512931 4.957486422
9.388616014 0.279299428 0.104416075 0.166906523 8.472775852 0.213098171 0.049636843 0.169516996 5.254371317
9.405240871 0.280524272 0.188145126 0.167638478 8.039654138 0.087679109 0.089439582 0.069747662 5.409417819
9.040362093 0.163297775 -0.152891259 0.097585104 9.107161167 -0.038884397 -0.072680758 -0.030932064 5.275015379
9.053599302 0.165784628 -0.161779447 0.099071223 9.103152788 -0.033354101 -0.076905984 -0.026532780 5.259684533
8.981753883 0.110535361 -0.095932294 0.066054818 9.432393284 0.175292876 -0.045603861 0.139443345 5.415239158
9.331232499 0.286112701 0.149084254 0.170978067 7.616650643 0.014674632 0.070871001 0.011673491 5.379571692
8.979655243 0.153158838 -0.097262767 0.091526178 9.104883070 -0.036921485 -0.046236336 -0.029370591 5.294396222
9.184241691 0.271005717 -0.154655203 0.161950285 9.103169050 0.428239034 -0.073519293 0.340658928 4.965878595
9.181945151 -0.035394624 -0.130431199 -0.021151471 9.090496895 0.382759226 -0.062003796 0.304480296 5.276017667
10.292244970 -0.003142851 0.050821508 -0.001878136 6.118938109 0.051801183 0.024159300 0.041207209 5.146189340
9.071104886 0.164140279 -0.138231611 0.098088577 9.113431815 0.029713405 -0.065711921 0.023636651 5.252663724
8.859635970 -0.082405922 -0.083397950 -0.049244949 8.931178154 0.111386105 -0.039645342 0.088606288 5.417094285
9.176601973 0.249255788 -0.154111902 0.148952747 9.154085145 0.449383094 -0.073261022 0.357478770 4.970040302
9.071536916 -0.099416872 0.051013214 -0.059410521 8.821534097 -0.014748488 0.024250432 -0.011732243 5.304785671
9.827174998 0.033777323 0.129860210 0.020184988 6.510222979 -0.020436856 0.061732361 -0.016257270 5.359243536
9.553548056 0.116183720 0.053652017 0.069430220 6.843532607 -0.076629451 0.025504854 -0.060957793 5.310206784
8.682258810 -0.012338245 0.077520423 -0.007373211 9.479156860 0.022088270 0.036851309 0.017570949 5.292211404
9.327583452 0.294932579 0.022097399 0.176248737 8.645127455 0.265284180 0.010504562 0.211030330 5.120363919
8.876325031 -0.077056437 -0.099257855 -0.046048150 8.937479953 0.129503463 -0.047184752 0.103018426 5.417346816
9.176188024 0.172557162 -0.143485614 0.103118421 9.234129219 0.484806682 -0.068209545 0.385657803 4.996020827
8.702839673 -0.001447018 0.022214579 -0.000864723 9.524262613 0.054631231 0.010560266 0.043458478 5.314493019
8.865434768 0.063714178 -0.019190525 0.038074950 9.603807856 0.102575509 -0.009122705 0.081597566 5.358797604
9.100290884 -0.161502075 0.067906663 -0.096512012 8.955149254 0.017199866 0.032281164 0.013682284 5.317050758
9.254138675 0.301717838 -0.074270034 0.180303539 8.828355937 0.323541627 -0.035306154 0.257373418 5.007954657
9.336159122 0.287602391 0.156535045 0.171868290 7.643864954 0.019116252 0.074412925 0.015206746 5.381189150
9.231215528 -0.009808885 -0.082751325 -0.005861691 9.160606208 0.445853795 -0.039337952 0.354671256 5.172381415
8.575373874 -0.151633263 0.175377081 -0.090614510 8.973292573 -0.246512264 0.083369966 -0.196097499 5.293293219
8.818045495 -0.094974708 -0.044749596 -0.056755928 8.916749558 0.063992033 -0.021272861 0.050904882 5.412659906
9.228195437 -0.015606515 -0.086713674 -0.009326296 9.149734825 0.437768763 -0.041221556 0.348239711 5.188915759
10.404140038 0.000371043 -0.000345521 0.000221732 6.216186879 0.000383946 -0.000164252 0.000305425 4.948065674
10.118203960 -0.024608960 0.141205175 -0.014706067 6.216764701 0.052590116 0.067125480 0.041834796 5.354251066
8.803448256 0.034367139 -0.010047002 0.020537456 9.598945303 0.098176595 -0.004776098 0.078098284 5.336093844
9.410991263 0.278605060 0.186564264 0.166491576 8.087029614 0.098057828 0.088688079 0.078003806 5.409260150
8.588108212 -0.128641959 0.174573606 -0.076875138 9.065912697 -0.252386170 0.082988014 -0.200770120 5.260484389
9.265768903 0.301793079 -0.061971200 0.180348503 8.797689660 0.313852568 -0.029459590 0.249665889 5.020186579
9.313995427 0.246814924 0.057480898 0.147494111 7.332179985 -0.045649178 0.027325010 -0.036313364 5.354881509
9.396221091 0.283115080 0.188508538 0.169186719 7.975542999 0.074499221 0.089612339 0.059263222 5.406655503
8.888889437 0.135692146 -0.008237481 0.081088259 9.047219666 -0.012347237 -0.003915896 -0.009822077 5.237953241
8.576921860 -0.154091912 0.172623010 -0.092083774 8.957427684 -0.239035043 0.082060749 -0.190149461 5.302083812
9.067094985 0.160534936 -0.113628447 0.095934060 9.132835182 0.071504044 -0.054016179 0.056880595 5.292632106
9.364235598 0.198098870 0.036995264 0.118381888 7.147238910 -0.075321490 0.017586642 -0.059917327 5.338145249
8.599603082 -0.111287187 0.165897708 -0.066504101 9.125324342 -0.237229027 0.078863705 -0.188712797 5.258041220
9.174276949 0.237916812 -0.152548718 0.142176689 9.172612775 0.456771474 -0.072517922 0.363356136 4.973331735
8.934692901 0.026881573 -0.025135639 0.016064157 8.793550982 -0.010975462 -0.011948867 -0.008730847 5.215652284
8.581165378 -0.138807833 0.177949648 -0.082950162 9.029578992 -0.255454305 0.084592902 -0.203210784 5.268853635
8.598143037 -0.113463091 0.166925815 -0.067804400 9.117855747 -0.239765494 0.079352442 -0.190730526 5.257760565
8.950165139 0.059898088 -0.023476924 0.035794493 8.878355065 -0.014684350 -0.011160354 -0.011681221 5.236129738
8.760695952 -0.112740949 0.007656514 -0.067372855 8.901287366 -0.004562735 0.003639719 -0.003629600 5.397253308
9.031510005 -0.039889749 -0.183096112 -0.023837712 8.995676240 0.258219570 -0.087039405 0.205410519 5.381416147
9.030336724 0.124978036 -0.106272228 0.074685615 9.259365444 0.171542344 -0.050519213 0.136459843 5.397403772
8.664240848 -0.039607532 0.151577002 -0.023669062 9.345377610 -0.092713660 0.072055992 -0.073752585 5.256387621
9.180623248 0.262501807 -0.155237369 0.156868434 9.126291213 0.438048885 -0.073796041 0.348462545 4.966988628
8.865379980 0.117190372 -0.003044874 0.070031785 8.992364288 -0.010165063 -0.001447458 -0.008086183 5.207844686
10.241855066 -0.018405734 0.081676644 -0.010999081 6.134822818 0.062509840 0.038827075 0.049725815 5.231696094
8.902076314 0.080031027 -0.021575237 0.047825735 9.586507347 0.109418954 -0.010256339 0.087041443 5.377389001
8.898377579 -0.069826826 -0.119550915 -0.041727807 8.945968089 0.151979451 -0.056831575 0.120897799 5.416663089
8.585215035 -0.132875229 0.176309541 -0.079404898 9.051102269 -0.254257666 0.083813235 -0.202258872 5.263168346
9.108214057 -0.155885445 0.074235778 -0.093155571 8.943406483 0.012563901 0.035289870 0.009994430 5.324663961
9.172063250 0.211805135 -0.149116239 0.126572614 9.204220606 0.469846753 -0.070886206 0.373757361 4.981799720
8.613051944 -0.156696195 0.147358350 -0.093640067 8.904581313 -0.182892393 0.070050548 -0.145488668 5.339061474
8.943111369 -0.036724217 0.003171876 -0.021946022 8.720947666 -0.012812000 0.001507832 -0.010191790 5.176335895
8.956329244 0.149203168 -0.071317802 0.089162310 9.093042214 -0.034483815 -0.033902735 -0.027431454 5.282915874
8.689560708 -0.138308232 0.077792455 -0.082651605 8.890632320 -0.092776690 0.036980627 -0.073802725 5.369779830
9.397386721 0.177227719 0.033029631 0.105909499 7.072863537 -0.082472436 0.015701477 -0.065605817 5.329288337
8.944081148 0.147012749 -0.058086551 0.087853337 9.085498747 -0.032071748 -0.027612923 -0.025512684 5.274602859
8.910435378 0.095513061 -0.021861019 0.057077642 8.960311999 -0.009710570 -0.010392193 -0.007724640 5.218657710
10.133532237 -0.024735750 0.135461294 -0.014781835 6.205609491 0.055533114 0.064394980 0.044175915 5.345235626
9.113213545 -0.150114299 0.078307365 -0.089706792 8.930902438 0.008302484 0.037225402 0.006604525 5.331963224
8.891001465 0.104087185 -0.016680936 0.062201453 8.971983513 -0.009246031 -0.007929708 -0.007355105 5.210074134
9.220115412 0.297962500 -0.111423353 0.178059387 8.932662282 0.358173655 -0.052967931 0.284922774 4.981898378
9.109007062 -0.037948584 -0.178546493 -0.022677692 9.034202247 0.320764600 -0.084876627 0.255164327 5.333728832
8.979985415 -0.054020433 0.017371110 -0.032282066 8.742591768 -0.014435374 0.008257800 -0.011483164 5.207947300
9.098984725 -0.037659613 -0.181446749 -0.022505005 9.028155730 0.312231339 -0.086255338 0.248376222 5.340537502
9.061796524 0.166425929 -0.162991121 0.099454458 9.103209918 -0.020035277 -0.077481984 -0.015937818 5.249222519
10.014010405 -0.017762886 0.160022325 -0.010614921 6.311694666 0.027783126 0.076070692 0.022101137 5.380690765
8.607577190 -0.100565289 0.162098235 -0.060096803 9.162709853 -0.222058845 0.077057528 -0.176645103 5.260859972
9.052793775 0.151770589 -0.106584843 0.090696575 9.169989356 0.115281937 -0.050667822 0.091705375 5.348397068
9.009624822 -0.067170658 0.028125399 -0.040140509 8.762907163 -0.016475523 0.013370126 -0.013106078 5.232855512
9.394446248 0.277718943 0.110998666 0.165962041 8.452335666 0.206618946 0.052766046 0.164362852 5.269200145
9.379820737 0.187619357 0.034831516 0.112119437 7.109939851 -0.079306328 0.016558049 -0.063087217 5.333930342
8.929349297 0.020511666 -0.026888747 0.012257565 8.778227364 -0.009983398 -0.012782251 -0.007941671 5.205310201
9.914755275 0.006539162 0.147795589 0.003907738 6.418258520 0.001734721 0.070258401 0.001379949 5.373005124
9.369219585 0.194602394 0.036243896 0.116292430 7.134795805 -0.076733104 0.017229460 -0.061040248 5.336796491
8.872112658 0.113040649 -0.008830490 0.067551952 8.983649237 -0.010349138 -0.004197799 -0.008232613 5.205543043
9.349065936 0.289617171 0.170992910 0.173072303 7.711768156 0.029453330 0.081285839 0.023429765 5.385315959
8.907071704 0.097031257 -0.021109203 0.057984901 8.962655893 -0.009511029 -0.010034798 -0.007565907 5.217076187
9.232147514 0.019357040 -0.077364014 0.011567572 9.201517483 0.469460269 -0.036776956 0.373449918 5.118182105
9.308561262 0.261184549 0.076064096 0.156081254 7.403768098 -0.029789922 0.036159007 -0.023697519 5.362413557
10.393058004 0.005654906 -0.002070882 0.003379315 6.201437669 0.007615816 -0.000984447 0.006058288 4.961291426
9.309140080 0.267296707 0.088342737 0.159733818 7.440883100 -0.021116632 0.041995972 -0.016798024 5.366213935
9.764031697 0.052605148 0.115365120 0.031436306 6.579570532 -0.035434279 0.054841751 -0.028187536 5.346374270
8.942281203 0.075637701 -0.024607638 0.045200328 8.918804041 -0.013337627 -0.011697868 -0.010609920 5.233206011
8.673385003 -0.143731454 0.094051978 -0.085892468 8.890328400 -0.112338296 0.044710005 -0.089363744 5.363648282
9.071164841 0.163234403 -0.129824229 0.097547234 9.117867670 0.042471163 -0.061715257 0.033785292 5.261228762
8.949115007 0.050197493 -0.023063086 0.029997516 8.852811907 -0.014396503 -0.010963626 -0.011452243 5.234722244
9.070117294 0.164959464 -0.146459860 0.098578113 9.109921512 0.016915271 -0.069623428 0.013455892 5.247394583
10.038502746 -0.020928162 0.159228136 -0.012506458 6.286521450 0.034038210 0.075693154 0.027076981 5.379197940
9.007548413 0.112831668 -0.102816015 0.067427067 9.348719969 0.183650909 -0.048876214 0.146092058 5.416664408
8.624356822 -0.083929446 0.161255233 -0.050155391 9.221930716 -0.190168500 0.076656786 -0.151276723 5.264555854
9.107252082 -0.126656280 0.073537495 -0.075688516 8.879239722 -0.003896332 0.034957923 -0.003099485 5.343219203
9.051039760 -0.087572676 0.042046544 -0.052332548 8.798756143 -0.017504991 0.019987896 -0.013925007 5.276977925
8.894047730 0.102745634 -0.017618506 0.061399755 8.970363626 -0.009200044 -0.008375406 -0.007318523 5.211292179
10.397807267 0.003374322 -0.001804451 0.002016461 6.207943448 0.004020437 -0.000857792 0.003198209 4.954489440
9.696996429 0.072464417 0.097558499 0.043304005 6.660115849 -0.050316584 0.046376920 -0.040026229 5.331525397
9.378157927 0.287288910 0.185704703 0.171680957 7.866269221 0.053968982 0.088279465 0.042931667 5.397729327
8.873909686 0.112101261 -0.009890283 0.066990584 8.982132281 -0.010238739 -0.004701598 -0.008144792 5.205557005
9.174979873 0.241838527 -0.153104368 0.144520267 9.166630921 0.454386873 -0.072782064 0.361459215 4.972148898
9.420036460 0.274611215 0.177674941 0.164104895 8.189952745 0.123234262 0.084462313 0.098031352 5.398971028
8.972482167 0.108399797 -0.086346147 0.064778626 9.462227396 0.168869343 -0.041046842 0.134333503 5.409984244
9.230574855 0.029219744 -0.078321124 0.017461424 9.211878981 0.474945404 -0.037231943 0.377813276 5.105740068
10.170663207 -0.024554815 0.119411391 -0.014673710 6.180285625 0.061201039 0.056765249 0.048684680 5.316641723
9.317810488 0.241221172 0.052993097 0.144151341 7.308136171 -0.050449237 0.025191620 -0.040131753 5.352549281
8.639176187 -0.071192608 0.162266058 -0.042543985 9.263924842 -0.161722789 0.077137307 -0.128648506 5.262068934
9.342345352 0.215425119 0.041309983 0.128735880 7.209302786 -0.067161742 0.019637754 -0.053426346 5.344057313
8.987021683 0.154346263 -0.105239683 0.092235771 9.107590257 -0.037270176 -0.050028366 -0.029647970 5.296078270
9.315196407 0.297215670 0.003060830 0.177613089 8.675819352 0.274868472 0.001455044 0.218654517 5.096364403
9.164577347 -0.037474710 -0.145024073 -0.022394509 9.075500226 0.367769670 -0.068940890 0.292556287 5.292756305
8.900430516 0.099957499 -0.019436091 0.059733594 8.966800734 -0.009254409 -0.009239441 -0.007361769 5.214036554
8.670424360 -0.021379245 0.131298470 -0.012776021 9.399716623 -0.041217358 0.062416075 -0.032787906 5.269514071
8.913809184 -0.001511989 -0.027930952 -0.000903549 8.730611006 -0.009957527 -0.013277690 -0.007921091 5.156267772
8.665098235 -0.037617275 0.150058257 -0.022479705 9.350079418 -0.088181311 0.071334018 -0.070147157 5.256901362
8.749211285 0.015653049 -0.004025594 0.009354104 9.568853628 0.082115892 -0.001913669 0.065322191 5.332157396
9.988380130 -0.013062071 0.158743984 -0.007805762 6.338982807 0.021125117 0.075463000 0.016804773 5.380202956
8.965446384 -0.047494978 0.011910480 -0.028382520 8.733595198 -0.013672876 0.005661950 -0.010876606 5.195956122
8.942583616 0.095756277 -0.043183830 0.057222986 9.539519122 0.138269234 -0.020528535 0.109991489 5.391986809
10.191613852 -0.023911094 0.109204699 -0.014289029 6.166496189 0.063160731 0.051913238 0.050243591 5.295872525
9.112311904 -0.133427256 0.077424486 -0.079734784 8.894139623 -0.000958226 0.036805703 -0.000762257 5.343839096
8.861303357 0.061649589 -0.018892320 0.036841173 9.604785212 0.102382886 -0.008980946 0.081444337 5.356576508
8.917071382 0.085727899 -0.025270037 0.051230128 9.574133977 0.116841647 -0.012012756 0.092946105 5.383272213
9.151038391 -0.038310011 -0.155491545 -0.022893677 9.064416639 0.356388616 -0.073916870 0.283502797 5.303821366
9.048037578 0.147435660 -0.107416305 0.088106064 9.184745874 0.128472543 -0.051063079 0.102198341 5.362531431
9.209324562 0.294729445 -0.125694706 0.176127346 8.974590139 0.373805003 -0.059752183 0.297357321 4.975220886
9.035661170 0.162354114 -0.149289107 0.097021182 9.108601505 -0.039075543 -0.070968383 -0.031084118 5.279259612
8.937847807 0.079723470 -0.024782861 0.047641942 8.928599207 -0.012668271 -0.011781165 -0.010077455 5.231341193
8.578839077 -0.142394918 0.178306383 -0.085093768 9.015798693 -0.255136156 0.084762485 -0.202957700 5.273632785
9.137188484 -0.038572015 -0.164920942 -0.023050247 9.053650895 0.344750233 -0.078399374 0.274244605 5.314105050
8.609398340 -0.098431281 0.161652456 -0.058821541 9.170279150 -0.218513478 0.076845616 -0.173824807 5.261560771
8.575796954 -0.148303919 0.177329749 -0.088624927 8.990520233 -0.251708653 0.084298217 -0.200231164 5.284536694
10.268289884 -0.011605231 0.065769600 -0.006935169 6.122399555 0.058339285 0.031265256 0.046408189 5.189447107
8.754414718 -0.114875674 0.013598036 -0.068648545 8.899922632 -0.012311214 0.006464173 -0.009793421 5.395029000
9.219196180 -0.023744400 -0.096346063 -0.014189414 9.131525305 0.422260214 -0.045800557 0.335902850 5.217628287
9.261835558 0.301820746 -0.066210928 0.180365036 8.807904258 0.317083921 -0.031475053 0.252236391 5.015802633
8.950266465 0.057471999 -0.023340733 0.034344687 8.871957785 -0.014694392 -0.011095612 -0.011689210 5.236031114
10.405983835 0.000016542 -0.000038544 0.000009885 6.218346405 0.000016985 -0.000018323 0.000013512 4.947041507
8.629721607 -0.154580452 0.134543564 -0.092375720 8.897119851 -0.163442976 0.063958713 -0.130016894 5.347118250
9.961483522 -0.006754566 0.155672323 -0.004036461 6.368036556 0.014055330 0.074002808 0.011180844 5.378256680
9.806903836 0.039901669 0.125406658 0.023844835 6.531878831 -0.025337070 0.059615252 -0.020155330 5.355351377
9.060603872 0.166415963 -0.163338853 0.099448502 9.102953538 -0.022821503 -0.077647288 -0.018154227 5.250618518
9.399761095 0.276304220 0.117292700 0.165116617 8.432048327 0.200029758 0.055758075 0.159121233 5.283682406
8.831719119 0.046812017 -0.014815154 0.027974389 9.606013231 0.101361964 -0.007042761 0.080632206 5.342927949
8.960764507 -0.045340421 0.010138121 -0.027094979 8.730814382 -0.013463604 0.004819414 -0.010710133 5.192005315
9.021704539 0.159802479 -0.138076784 0.095496351 9.111368655 -0.038519206 -0.065638319 -0.030641559 5.288765617
10.386005502 0.007928734 -0.000922770 0.004738132 6.191961602 0.012323379 -0.000438662 0.009803098 4.972205708
8.993680892 0.111738519 -0.101736642 0.066773813 9.393950848 0.180738254 -0.048363106 0.143775076 5.418674173
8.648203153 -0.150819589 0.118379544 -0.090128266 8.892545179 -0.142079022 0.056274734 -0.113022129 5.354401328
8.676251811 -0.015294636 0.104779112 -0.009139920 9.449718324 -0.000305112 0.049809422 -0.000242713 5.283929020
9.417026238 0.276176549 0.182358592 0.165040322 8.147954507 0.112453045 0.086688805 0.089455026 5.405151486
8.605827872 -0.102723033 0.162659005 -0.061386249 9.155097733 -0.225469899 0.077324105 -0.179358554 5.260167822
9.607687835 0.099435846 0.070308800 0.059421859 6.773920617 -0.067743681 0.033423080 -0.053889272 5.315057080
8.582457430 -0.136896464 0.177546024 -0.081807947 9.036648245 -0.255274469 0.084401029 -0.203067726 5.266746153
9.024380653 0.119297006 -0.104168997 0.071290688 9.285934595 0.178608985 -0.049519389 0.142081269 5.404147187
9.172099060 0.207095782 -0.148549048 0.123758352 9.208746575 0.471863303 -0.070616577 0.375361502 4.983394498
8.665856508 -0.035690540 0.148485771 -0.021328307 9.354710955 -0.083685075 0.070586497 -0.066570457 5.257550026
8.660961664 -0.045927563 0.155712321 -0.027445849 9.330604651 -0.106620684 0.074021821 -0.084815454 5.255691453
8.619690152 -0.088050780 0.160984539 -0.052618259 9.207378849 -0.198895373 0.076528105 -0.158218843 5.264259334
8.932623602 0.083599613 -0.024733902 0.049958286 8.937421057 -0.011947224 -0.011757891 -0.009503871 5.229049831
8.700719536 -0.134323721 0.066520175 -0.080270502 8.891435354 -0.079098126 0.031622061 -0.062921594 5.374141769
8.739864910 0.012633618 -0.002110904 0.007549723 9.561674295 0.078017912 -0.001003472 0.062062298 5.330605987
8.930589984 0.090845813 -0.032327670 0.054288542 9.558600428 0.126808927 -0.015367782 0.100874954 5.387747895
8.936507492 0.029103222 -0.024635577 0.017391792 8.799001454 -0.011361949 -0.011711150 -0.009038292 5.218693312
8.923637819 0.089007731 -0.024055740 0.053190123 8.948725662 -0.010870810 -0.011435509 -0.008647596 5.224920159
8.672624691 -0.017793132 0.121036435 -0.010632996 9.422679157 -0.021748160 0.057537755 -0.017300396 5.276703501
9.257956156 0.301795447 -0.070304466 0.180349917 8.818128345 0.320312368 -0.033421020 0.254804582 5.011729422
10.022283182 -0.018977252 0.159997018 -0.011340615 6.303062598 0.029909748 0.076058662 0.023792839 5.380438573
8.877486912 0.132550820 -0.000586909 0.079211034 9.037534663 -0.008154475 -0.000279002 -0.006486785 5.231828212
9.369048973 0.284696190 0.081785219 0.170131574 8.533619252 0.231641720 0.038878689 0.184268163 5.208856230
8.917134033 0.092353093 -0.023136952 0.055189278 8.954989369 -0.010229999 -0.010998740 -0.008137839 5.221841244
9.316145152 0.277643653 0.116737511 0.165917049 7.519406611 -0.003596740 0.055494152 -0.002861163 5.373063805
9.066812087 0.166001038 -0.157505076 0.099200547 9.105690790 -0.003222083 -0.074874053 -0.002563128 5.245142263
8.684473363 -0.011158506 0.068328755 -0.006668211 9.486938673 0.027887991 0.032481816 0.022184557 5.295146907
9.226809551 -0.017380370 -0.088328074 -0.010386334 9.146106550 0.434857674 -0.041989002 0.345923976 5.194582167
9.543209474 0.119469375 0.050692992 0.071393694 6.856876485 -0.078118886 0.024098206 -0.062142621 5.309902300
9.105101766 -0.124357716 0.071949509 -0.074314918 8.874198839 -0.004853457 0.034203034 -0.003860866 5.342217749
8.827206137 0.044672156 -0.014001490 0.026695630 9.605359366 0.101065051 -0.006655965 0.080396015 5.341401768
9.412684504 0.277979309 0.185747399 0.166117633 8.102538366 0.101599509 0.088299762 0.080821170 5.408678764
9.192960704 0.122941370 -0.126124817 0.073468523 9.251412688 0.497615617 -0.059956647 0.395847154 5.021202582
8.617464227 -0.090109238 0.160938889 -0.053848373 9.200031830 -0.203079814 0.076506404 -0.161547515 5.263906837
10.396773964 0.003924877 -0.001953569 0.002345467 6.206529873 0.004809948 -0.000928679 0.003826255 4.955897795
8.936767367 0.093312294 -0.037286615 0.055762486 9.549518589 0.132436663 -0.017725143 0.105351750 5.389808626
8.913449758 0.084374792 -0.024063745 0.050421525 9.577507714 0.114718850 -0.011439315 0.091257446 5.381963055
9.228356366 0.039679864 -0.080493540 0.023712287 9.221486580 0.480285488 -0.038264656 0.382061248 5.094005725
9.114882307 -0.146127846 0.079634641 -0.087324528 8.922146726 0.005707895 0.037856357 0.004540561 5.336278504
9.997069522 -0.014810672 0.159386749 -0.008850709 6.329661639 0.023392828 0.075768555 0.018608709 5.380553529
9.231693594 0.022564540 -0.077557252 0.013484341 9.205038655 0.471303000 -0.036868817 0.374915788 5.113946415
8.938361156 -0.057473957 -0.150061155 -0.034345858 8.961182453 0.187697908 -0.071335396 0.149311396 5.412613158
8.729714900 -0.123661075 0.037531134 -0.073898612 8.895235842 -0.043058890 0.017841381 -0.034252822 5.385656916
8.788578243 0.028728146 -0.008236541 0.017167650 9.592682194 0.095071550 -0.003915450 0.075628258 5.334676931
8.779783444 -0.106528252 -0.010055063 -0.063660210 8.905835310 0.018699054 -0.004779931 0.014874870 5.403446025
8.921620615 -0.023048235 -0.008640408 -0.013773393 8.712326893 -0.012275410 -0.004107438 -0.009764939 5.154155525
10.273195855 -0.009995159 0.062741148 -0.005973006 6.120936142 0.057213952 0.029825604 0.045513001 5.180916653
9.059256622 0.156343251 -0.107064491 0.093429151 9.152499274 0.097145893 -0.050895835 0.077278373 5.326359703
8.741980629 -0.119228921 0.025536877 -0.071250002 8.897422274 -0.027751816 0.012139606 -0.022076231 5.390412648
9.004749542 -0.064980595 0.026424265 -0.038831749 8.759340645 -0.016116123 0.012561448 -0.012820179 5.228574812
10.177792490 -0.024398741 0.116026809 -0.014580442 6.175573521 0.061987505 0.055156302 0.049310304 5.309967681
8.926612385 -0.060893888 -0.142208255 -0.036389574 8.956777994 0.177824412 -0.067602319 0.141457150 5.414249012
9.574785706 0.109541232 0.060019986 0.065460736 6.816198806 -0.073336473 0.028532030 -0.058338270 5.311491605
9.201529460 0.105075318 -0.115754651 0.062791951 9.252116424 0.498969651 -0.055026925 0.396924271 5.033750585
8.906929475 0.139765714 -0.022530588 0.083522582 9.060372799 -0.019740719 -0.010710489 -0.015703501 5.248648717
9.024582114 -0.040610638 -0.182034475 -0.024268508 8.992904101 0.253023694 -0.086534729 0.201277262 5.384864734
8.595270941 -0.117832728 0.169134136 -0.070415650 9.102926906 -0.244314659 0.080402223 -0.194349331 5.257629442
9.416575484 0.167264274 0.031949193 0.099955444 7.037129628 -0.084628497 0.015187864 -0.067320937 5.324549470
10.148665899 -0.024759789 0.129255670 -0.014796200 6.195070601 0.058123774 0.061444978 0.046236754 5.334782576
8.967864875 0.106838624 -0.079939484 0.063845685 9.476623040 0.164874757 -0.038001272 0.131155858 5.406838036
9.023882979 -0.073757771 0.032904198 -0.044076901 8.774006956 -0.017422331 0.015641850 -0.013859252 5.246213414
8.922914371 0.012698367 -0.029105572 0.007588416 8.760177475 -0.009223879 -0.013836076 -0.007337483 5.189372970
9.214483770 0.296490281 -0.118685200 0.177179604 8.953768178 0.365888459 -0.056420036 0.291059806 4.978353739
9.857086224 0.024541616 0.136204339 0.014665823 6.478843441 -0.013056142 0.064748205 -0.010386002 5.364499314
8.592151447 -0.157262467 0.161314709 -0.093978465 8.922393048 -0.209922055 0.076685059 -0.166990434 5.324411380
8.975910419 0.152543092 -0.093127897 0.091158214 9.103286209 -0.036684051 -0.044270720 -0.029181715 5.293124849
9.027699016 0.160849516 -0.142989512 0.096122050 9.110481394 -0.038832203 -0.067973710 -0.030890544 5.285182225
8.586799982 -0.156870343 0.164796003 -0.093744136 8.930079293 -0.218203043 0.078339981 -0.173577859 5.319014056
9.211716763 0.084668830 -0.102432008 0.050597239 9.248256785 0.496895562 -0.048693666 0.395274359 5.050616156
9.232840098 0.013202862 -0.077328032 0.007889897 9.194309873 0.465707345 -0.036759851 0.370464513 5.126960349
9.037592155 -0.080488579 0.037364518 -0.048099163 8.785835929 -0.017881819 0.017762176 -0.014224769 5.260739902
10.296874700 -0.001448911 0.047894150 -0.000865855 6.119424495 0.050264835 0.022767705 0.039985063 5.137489120
9.070540043 0.164697977 -0.143788727 0.098421851 9.111000610 0.021163496 -0.068353637 0.016835303 5.248796382
9.406692540 0.274533139 0.126481944 0.164058237 8.401843598 0.189953636 0.060126416 0.151105801 5.304649152
9.088251360 -0.037467359 -0.183570564 -0.022390116 9.022121307 0.303190239 -0.087264948 0.241184137 5.347712949
8.927302321 0.143866571 -0.041091045 0.085973213 9.074408754 -0.027332026 -0.019533676 -0.021742293 5.262526869
9.173125344 0.229676060 -0.151398059 0.137252099 9.183977068 0.461341747 -0.071970927 0.366991732 4.975917930
8.735364776 0.011145984 -0.000874796 0.006660728 9.557990618 0.075877928 -0.000415857 0.060359966 5.329600912
9.197823428 -0.032172320 -0.116392415 -0.019225854 9.105518880 0.397569513 -0.055330102 0.316261698 5.256595340
9.045194471 -0.038736183 -0.184623838 -0.023148353 9.001389170 0.268633405 -0.087765648 0.213694597 5.374130009
9.024758892 0.160327586 -0.140600516 0.095810150 9.110973602 -0.038680648 -0.066838040 -0.030769984 5.287024879
9.173014176 0.192540693 -0.146728559 0.115060378 9.220994819 0.477672776 -0.069751161 0.379982867 4.988467709
8.648515043 -0.062157072 0.161666541 -0.037144440 9.289999328 -0.141641889 0.076852312 -0.112674395 5.258834373
8.970225541 -0.049662056 0.013710731 -0.029677544 8.736492622 -0.013904120 0.006517746 -0.011060558 5.199932173
9.221420517 -0.022259164 -0.094100546 -0.013301852 9.135187921 0.425542671 -0.044733094 0.338514004 5.211839395
9.181591248 0.152265049 -0.138341734 0.090992059 9.243705895 0.491095468 -0.065764270 0.390660455 5.004911912
8.783573044 0.026947844 -0.007737495 0.016103760 9.590222359 0.093797895 -0.003678215 0.074615081 5.334399370
9.011753421 0.113582658 -0.102769325 0.067875852 9.334320216 0.183635085 -0.048854019 0.146079470 5.414585461
9.325406758 0.232009739 0.047548177 0.138646682 7.271168534 -0.057254176 0.022603238 -0.045544999 5.349251228
8.848816686 0.055310398 -0.017560392 0.033052937 9.606528954 0.102011777 -0.008347780 0.081149125 5.350180423
8.862310118 0.120922820 0.002366955 0.072262259 9.002917365 -0.008578877 0.001125192 -0.006824392 5.213312314
10.375852905 0.009830557 0.002434693 0.005874642 6.178985940 0.017965784 0.001157394 0.014291562 4.989104012
9.708218604 0.069114077 0.100726793 0.041301876 6.646181084 -0.047920813 0.047883049 -0.038120422 5.333987772
10.319227558 0.005775107 0.033714765 0.003451146 6.127119873 0.042057850 0.016027173 0.033456507 5.095070079
9.177324705 0.167539531 -0.142424014 0.100119935 9.236829903 0.486456862 -0.067704886 0.386970501 4.998081019
9.173656099 0.233860510 -0.151976547 0.139752684 9.178395927 0.459087526 -0.072245926 0.365198527 4.974590466
8.887341205 -0.073449887 -0.109569679 -0.043892912 8.941710309 0.140970671 -0.052086740 0.112140450 5.417134728
9.341234084 0.288689673 0.163022504 0.172518039 7.670944505 0.023328767 0.077496904 0.018557750 5.382791290
8.848169783 -0.085968177 -0.072556879 -0.051373716 8.926978917 0.098560074 -0.034491762 0.078403337 5.416451006
8.991289972 0.111582174 -0.101065011 0.066680383 9.401637028 0.179868629 -0.048043830 0.143083301 5.418338176
9.109189223 -0.128946516 0.074997826 -0.077057139 8.884272776 -0.002927610 0.035652128 -0.002328878 5.343814385
10.399664769 0.002353466 -0.001422995 0.001406408 6.210458328 0.002667016 -0.000676457 0.002121579 4.952147138