5.1205062096 2.2706193335 2.5968728742 2.8315902531 6.7827976852 5.0190448479 2.0973321868 2.6934648138 2.7831783847 6.7697013743 1.3128319041 0.0811184707 7.6359640196 5.2159880399 3.3361577903 1.1389592262 5.7499174397 2.2453971566 3.6669080014 2.1611643883 5.1614610099 8.4172608081 1.9804167642 2.9577362008 5.8343407019 6.0822379697 0.8031761957 1.7139190129 6.1043809684 3.6283967433 3.1948778444 2.2306754814 1.2499959013 8.0118079387 1.8691216419 1.4445712421 6.7677945525 5.5842853513 5.0018365152 4.2805048565 6.0010904981 0.5351743196 0.5397513200 1.4862425791 3.1504976727 5.2367176824 2.3483644678 5.0613808021 8.9513780620 6.1820164133 2.3809694533 1.6874212167 6.7120824126 1.1543790048 3.1704935191 0.8396023902 4.4456710917 8.0320371957 3.3905027606 3.4387316835 6.2338354126 5.2509367568 2.0638341894 7.5344768314 1.0181189291 3.7534966968 6.2390681644 7.6097728569 1.0740098549 1.6063354447 4.2840178951 2.0068515938 3.0604497763 3.3258675283 4.2752022078
4.7504027185 4.7485243273 4.4340970157 3.2829815233 7.2581245659 5.4965373004 1.2837057872 2.9336320075 2.3320358862 5.7639306958 1.6204541698 -0.2548527035 7.4923422044 6.1555812486 2.3786345024 1.9480494012 6.0117640868 2.8244359107 2.6152257695 1.4436042028 5.1241357038 6.8815840998 3.1858211505 2.4067303487 6.5910999684 7.5296914238 -0.1088289945 2.7900388335 5.9425650022 4.1068050843 1.5645837908 1.6769315955 0.8636797805 6.5392491077 3.1699930165 0.8687483882 6.5650829727 7.3956447602 3.5790779940 5.1516407819 7.0401452431 0.3606020367 -0.5160930220 2.6791251251 2.3714307347 3.9715398282 2.0920410638 5.5219029876 9.3435297414 6.2446403547 3.0940901413 2.2991865045 7.0901156041 1.7694099065 2.9794278166 -0.0486379610 4.9700140753 6.7081560901 4.5614611325 3.0804290792 7.6071410304 6.5294686049 0.5749378836 6.1700160614 2.0370234426 3.2806979528 6.7980096986 9.0137458574 0.2426994509 2.0754299034 4.6797887008 2.0247662145 2.2531265297 2.0605940487 3.7365886510
4.7074471159 4.2012395231 4.5460904192 3.3203958421 7.1229602680 5.5067812805 1.1684603865 2.4437161789 2.3579470317 5.8509725526 1.5653502991 -0.4548580680 7.6056564159 6.0935608825 2.4691334899 1.9353754733 5.6145654707 3.1017246194 2.7192424208 1.3293014381 5.0266860864 6.7610781453 3.1221341210 2.1723296103 6.4423172925 7.3668281741 -0.1159793212 2.6661702224 5.6275325288 4.5145604923 2.2529986255 1.3114282262 1.3512836822 6.7368666467 2.8128631868 0.6412391419 6.9055031765 7.3913426116 3.6425601753 5.2532797946 6.3863673385 -0.0280254135 -0.7012470835 2.9412023281 2.6864512036 3.9093741203 2.3146730826 4.8507567399 9.4162907844 6.0466360564 3.2679673111 2.5322648694 6.7127557153 2.1158401108 3.3752806001 -0.0488073646 4.7195824297 6.1470343333 4.5516591378 2.4296388165 7.6514638822 6.7297229891 0.6581532709 5.7869744166 2.2533661099 2.9311211341 6.0335364891 8.7594357204 0.4248692932 1.7719575099 4.2962393888 2.3149667056 1.5280168924 1.7361726438 4.1576824183
4.5141420640 4.8090436428 4.1310459245 2.6143327679 8.2453030064 5.2368528314 1.5614993037 3.0203589145 2.0316694583 6.0468603906 1.5172261109 0.2485634420 7.5447202874 6.5428077452 3.0942588928 1.8873928759 6.4073286514 2.6848144969 2.7491474833 1.7686446420 4.7982854924 7.3738824820 3.1844774008 2.8615798376 5.9797591301 7.7706215820 0.2942789746 2.9262381239 6.7898284082 3.7690185754 2.0711300006 2.7304593074 0.3173224749 6.7188118193 2.4993399516 1.6266837332 6.4331683730 7.0290529560 4.4119978818 4.4561196294 7.5770652767 0.5058776332 -0.0523193489 2.7497783245 3.1888705758 4.0901200926 1.4282545972 5.4337012053 9.3367663366 6.3870044134 3.4354247872 1.6719467065 7.3674903454 1.4789840737 2.0082226416 0.3915681354 4.7037264063 7.0213070234 4.6576389763 2.6984938944 6.7057613270 7.1355001939 1.4968123339 6.3246858564 2.6593346041 4.0268121548 6.4282120123 9.2539950818 0.3282904190 2.1240751567 4.9809431378 2.1121305664 2.7759204702 2.3517609550 3.3252742420
5.1663828241 2.4370826306 2.6476868721 2.8202164566 7.3030773511 5.0754208355 1.9555270093 2.9886131051 2.6593232378 6.8141588874 1.1735179007 0.2249162708 7.7402279316 5.5225058027 3.4580132136 1.2197962405 6.1415407283 2.3376308817 3.7275653531 2.3273388116 5.2157931189 8.4423308818 2.2134262877 3.0089671048 5.9703068774 6.3298842628 0.8742061806 1.8101354603 6.5718274019 3.7181228826 3.1530456713 2.2690940698 1.2865500996 7.8129985911 2.1892701760 1.5563563647 7.0335787422 5.9082267420 5.1867191734 4.4394378766 6.0555702314 0.5135574023 0.5588912212 1.6173903768 2.9920564806 5.2505981395 2.3237804008 5.1767373108 9.1084832267 6.5371421855 2.7077687551 1.6384257368 7.1149361750 1.2156813661 3.3597825463 0.8926927215 4.5252832090 8.1912767887 3.7034322769 3.3910394750 6.2675502224 5.5983794168 2.2489687823 7.5852480260 1.1824446540 3.8276370944 6.0462411353 7.8779446271 1.1298076317 1.5353315804 4.6890691867 1.8334650878 3.1159825811 3.4338733671 4.2749718271
4.2860577307 5.0452989644 2.3934276993 2.5300773109 7.8460375347 5.0967620440 1.6196327684 2.7456749248 2.1283080934 6.3141318729 1.1376442597 0.1879446275 7.1101220569 5.7506194108 3.4971588457 1.4610166045 6.0613076667 2.3749811808 3.0983326915 2.0960690058 4.8505839312 7.2868990625 2.5021485752 2.9959785939 5.7265816597 6.9751755168 0.7400148975 2.3325036888 6.8387101772 3.4294874671 2.7408410948 2.9010597044 0.5776633666 6.4408620977 1.5513229646 2.0859190667 6.1510771086 5.8725840196 5.2840322369 4.2615565539 7.3356320228 0.5110814532 -0.1688918130 2.6803883675 2.4832208628 4.6453950269 1.7491737555 5.0322259834 8.9012071796 5.7114338391 2.8159364562 1.4737288064 6.8004395554 0.9780399383 2.1987084002 0.8459788542 4.9385408559 6.4688865566 3.8550761366 3.0594838056 5.9911438248 6.6583794116 2.2591506242 7.4218538951 1.8527302465 4.3523439431 6.5738866813 8.2306664184 0.3799039315 2.1473490240 4.6896973933 2.1186109021 3.0819517942 2.5669626672 3.4006850447
4.9295617118 4.4978142194 4.4673697519 2.9645130491 8.0149927780 5.6657156166 1.5002102293 2.9429606475 2.2796836636 5.9553825292 1.5683936752 0.1100272045 7.6383392294 6.4135885727 2.8988322944 1.9411671410 6.0344599537 2.7103492009 2.6699487628 1.7991296886 4.8869761406 7.2356801963 3.1584626651 2.7353463461 6.2405182601 7.6128052058 0.0583586777 2.8290169854 6.4348007248 3.9152015852 1.7082897864 2.4965134300 0.3594499592 6.7552419745 2.8630374391 1.2978363433 6.3665505434 7.1349810475 4.1131140118 4.7808836828 7.3633258033 0.5994261608 -0.2588084780 2.6624755635 2.9081689643 4.0587704579 1.7287264000 5.6881429544 9.5045261291 6.3749143785 3.0663040708 2.0194905230 7.1519989128 1.5809707213 2.1589772954 0.3255123016 4.8687009753 6.8205699499 4.6673240775 3.2144928471 7.1307488020 6.9712858373 1.1393318423 6.3462602020 2.5334709984 3.7911023850 6.5127554519 9.1256055127 0.0727548669 2.3146366332 4.6539717189 2.0675461966 2.9898739034 2.3109416976 3.4996434391
4.3030429796 5.0437504506 2.3880358624 2.5333382693 7.8575141395 5.1006802884 1.6196172271 2.7548126877 2.1199473852 6.3197777208 1.1534141670 0.1861223601 7.1223996391 5.7476260054 3.4966167645 1.4542177474 6.0847501328 2.3773133009 3.1057595845 2.0976848395 4.8535041618 7.2939425860 2.5080254426 2.9906477410 5.7259270076 6.9852762011 0.7458357946 2.3216668709 6.8405940817 3.4298078165 2.7644656077 2.8870618836 0.5826394891 6.4523577584 1.5608243610 2.0731997188 6.1485299307 5.8871157826 5.2850708442 4.2695444037 7.3296285412 0.4935277321 -0.1796734778 2.6765433784 2.4866137200 4.6502112162 1.7681238936 5.0109817752 8.9105091710 5.7286296922 2.8288404018 1.4852905244 6.8255540088 0.9830994282 2.2031884075 0.8617182035 4.9635499117 6.4847952093 3.8567752412 3.0717669549 5.9856144444 6.6666149877 2.2677765506 7.4225978251 1.8520981956 4.3392765384 6.5810652364 8.2439803433 0.3905236041 2.1267415862 4.6952779515 2.1258705515 3.0882558999 2.5898544725 3.4009882335
4.1689003187 5.0720086039 3.4032481713 2.5285873167 7.6525277565 5.0120132459 1.8264431579 3.1159662855 2.0733850196 6.0143207559 1.2533089215 0.2105488747 7.1084353493 6.0648937549 3.1643207744 1.7912300956 6.4279644116 2.4715038753 2.7811922937 1.4769429021 4.6683171023 7.2462539837 2.8224818534 2.9318687232 5.7449338376 7.5546430512 0.5158232832 3.0177029680 7.1076115473 3.1742999945 1.9279803734 2.4344388276 0.3710749812 6.4853516779 1.7587651660 2.1245908667 6.1656383763 6.2934332100 4.8172619546 4.2151321000 7.9056121175 0.5634575610 0.1074326690 2.8304665067 2.7962415447 4.2067210954 1.3762649112 5.1539670040 9.1844156256 6.4831805251 3.5285319046 1.3575072823 7.0337190163 1.1428847940 2.1564224197 0.0667032566 4.5255919343 6.6846940885 4.2040055789 2.5000840475 5.9813209038 7.0277108239 1.9411383864 6.8634338526 2.5219837523 4.4711477000 6.5510681657 8.7560738220 -0.0524497376 2.0461960659 4.9237517718 2.2430906455 2.7984927071 2.1225587947 3.2204906375
5.9915638981 1.8144852444 2.5466932483 2.6248059811 5.3879555480 5.0471388651 2.3265860161 1.8255705434 2.9086202417 7.4509738259 1.3269415331 -0.2119400199 7.4887308835 4.4314877219 3.0010775855 0.9455083691 4.6590574665 2.2881654385 3.9547644537 1.8970891910 5.3096646661 8.7939419756 1.3610683705 2.8259466873 5.8573328434 5.2370450185 0.5388756321 1.4228360073 5.0358203336 3.6959269681 3.7093500324 1.6793091961 1.5206980117 8.6563895649 1.6817514263 1.3256167573 6.5922367689 4.8634104820 4.5320729233 4.3436847482 5.2971701814 0.6304474610 0.4135019553 1.1675780718 3.2263184095 5.4294914286 2.0139637334 5.0114168886 9.2159212797 4.7350209873 2.2065783665 1.4095026069 5.6123086411 1.1513526894 3.1887382202 0.7384618877 4.3802560892 7.9469049087 2.6083412768 3.5956910000 6.3439607072 4.0418838743 1.4621986601 7.8869271089 0.1759908216 3.5245560690 6.5391970256 6.4966464983 1.0913453294 1.5561828071 3.2842928675 2.0451333235 3.1308389857 3.0955415872 4.8601022105
4.3320478383 4.9552129840 2.6330465784 2.4484172364 7.3869997859 4.9790325895 1.7035753284 2.7481430037 2.1451922994 6.1485717610 0.9319612467 0.3526363109 6.9664595490 5.6425361153 3.3578967284 1.4037548865 5.9525325208 2.1667132865 3.0080614402 1.5632333081 4.7212553285 7.0875409105 2.4460048044 3.0136614291 5.6800603990 6.9141732619 0.5409536085 2.3201848093 6.7207440168 3.1854813844 1.9810125556 2.7144152660 0.1583103709 6.3364458090 1.3615283092 2.2334494766 5.9484920222 5.4889075656 4.9989074535 4.1122949472 7.2420913593 0.4584802830 -0.1337103103 2.7236653320 2.1613995828 4.3226608198 1.2548625788 5.4274016463 8.6385826537 5.6149997613 2.8750719750 1.3809512217 6.6319663572 0.8366192126 2.1480964524 0.1947194990 4.6029304614 6.3813307849 3.8155290003 2.8914889106 5.9319592028 6.5460786662 2.0144312967 7.1053130260 1.9726945404 4.5298110243 6.6447875314 7.9602797815 -0.0902490963 2.0178918396 4.5673101646 2.2033415715 3.2472095797 2.1808055652 3.2632590432
4.5388835254 4.1209665168 2.3468708666 2.7210196533 8.1298306705 5.2690667057 1.6526371783 3.6372367715 1.9589331876 6.6089154819 1.2397240909 0.2363651489 7.4414084495 6.2218298798 3.3418378867 1.1647691225 6.9323367669 2.5196184586 3.3421010074 2.2932171695 4.6680089676 7.9742437402 2.8727490956 2.7784118734 6.0208988695 7.1217985718 0.8977261230 2.2196307933 7.4363929514 3.5829657817 3.1690375318 2.7334606366 0.9768518524 6.8794876732 2.1812941018 1.9153127754 7.0528923255 6.8797599385 5.0723704604 4.5727312344 6.9548930631 0.3572952196 0.0329549793 2.8119865288 1.9883520299 4.9377201525 2.4575830289 4.3699681053 8.9638836398 7.1631294337 3.0378909622 1.0880770214 7.8249305279 1.2570080784 2.8721798877 0.8465009586 4.8297381893 7.5487223572 4.3060331662 3.3067769200 5.9096335072 6.2931990280 2.2217082399 7.9724027060 2.0637133069 4.1253100737 6.3899645417 8.6349314813 1.1641028459 1.4527107842 5.4826693030 2.0550514447 2.6524894468 3.0644484405 3.5556059854
5.1912035621 2.7155283118 2.5040421661 2.9222807259 7.7594262269 5.0181528688 1.7336585777 3.3360453462 2.3689445706 6.7417434207 1.0475180518 0.2608244233 7.5985152009 5.8590684047 3.3892396738 1.2055809961 6.6005745455 2.3650185200 3.6729716099 2.3721314702 5.0247022372 8.2708003512 2.6144227987 2.7986103775 5.8585329249 6.6105321566 0.7882837649 2.2099064448 6.8626092288 3.5266618246 3.0809016109 2.4135224921 1.2667158160 7.5192038870 2.3387596883 1.4506931699 7.0942712930 6.4157093592 5.0718679826 4.4304615082 6.3573566549 0.1395335537 0.3891155701 2.0203741483 2.3222847921 5.1960099971 2.5398962719 5.0134725860 9.0841836335 6.9794392539 2.8293043067 1.5944695459 7.5886113059 1.2175347182 3.3138175510 0.8917791614 4.4574515047 8.1768884735 4.0294109773 3.3999195514 6.0807933862 5.9086174904 2.1957709150 7.6680243228 1.6256008864 3.7950478449 6.0379887059 8.1387563045 1.0585046724 1.5349036418 5.1294919620 1.9369514504 3.0094286632 3.2184021850 3.8543666167
4.9835592016 4.4388589648 4.4332066967 3.0829587296 7.7651303429 5.5357029422 1.5261084005 2.8924597943 2.2796609018 5.9506310947 1.6141917614 0.0617926151 7.6711702157 6.3259046924 2.7254403909 1.9697279176 6.0775655725 2.7437385726 2.6333925499 1.7213972330 4.9921411848 7.2060907737 3.1764146073 2.6491740023 6.3127578296 7.5624980315 -0.0277422636 2.8383080561 6.2100146767 4.0402925924 1.5623045293 2.3327122686 0.3903207193 6.6085227553 2.9652144873 1.2027012535 6.3322283853 7.0656222722 3.8454052896 4.9198763224 7.2955442728 0.5506479797 -0.3635505523 2.6104244315 2.8037985347 4.0136267903 1.8459893601 5.6750334034 9.4596847124 6.2765052834 2.9446515885 2.0559527864 6.9789008417 1.4897001338 2.2748936072 0.2142591528 4.8308633824 6.8933204536 4.5977283309 3.0413724161 7.3758419426 6.9807506268 0.9650980899 6.4053161204 2.1658880018 3.6370626857 6.7035045508 9.0587767264 0.0481398791 2.3695644302 4.7320155355 2.0839751742 2.7555138199 2.2942950662 3.5043942282
5.8020704575 1.5555787201 2.2045180443 2.7921462334 4.6805269137 4.8740753065 2.2150609253 1.5534503235 2.5140808189 7.6711640114 1.5004223321 -0.0503378465 8.1171243153 4.6937375380 2.5755400213 1.1232989861 4.5763928241 2.1411009373 4.0668899761 1.6739738071 4.7005964640 9.2581149129 1.5721305401 2.7538453670 6.2387206858 4.6524090867 0.3769367674 1.4633503494 4.6551175581 3.6513982558 3.8348918379 1.6446281727 1.3178999260 9.1359541553 1.6089299250 1.2242929556 6.4410793396 4.5748534292 3.7760698513 4.7300417869 4.8013742920 0.6175916381 0.3634735962 1.3997534785 3.0461503212 5.5514261159 1.5440221114 4.3458422061 9.9872328881 4.5241079722 1.9160686908 1.7839111647 5.7698671820 1.3737556734 3.3422277631 0.4440514082 4.0799927694 8.4436610831 2.7253210692 3.4528508763 6.8940665283 3.4026016340 1.1248115248 8.5733059869 0.3307340723 3.4031509266 6.8885473699 6.0434991053 0.8779640961 1.9318474055 3.3204104500 1.6952866635 3.2930789984 2.8371776339 3.9448210877
5.2022728630 2.6156789263 2.5720683955 2.8900344551 7.6689851612 5.0537642628 1.7697923581 3.2393310465 2.4660125265 6.7917247190 1.0656779775 0.2874198473 7.6617715077 5.7660130200 3.4341023637 1.2208970199 6.4602497163 2.3277288471 3.6922704360 2.3082420238 5.0602993819 8.3120442314 2.4807331096 2.8271583066 5.8643083240 6.5128836994 0.8421678731 2.0822880936 6.8013902185 3.6143446778 3.1420335541 2.3507501631 1.2642977396 7.6398651702 2.2427367572 1.4699722527 7.1273548161 6.2983453906 5.1947841109 4.4623644293 6.2247914555 0.2491482118 0.4651033980 1.9350240434 2.5262824986 5.2304983860 2.5199522946 5.1159352900 9.1072039145 6.8491180196 2.8450028502 1.6151287657 7.4699855469 1.2479614204 3.3274491271 0.9122329448 4.5303956205 8.2574801804 3.9306952435 3.4729973041 6.1919267223 5.8627018916 2.2138391976 7.6419099851 1.4864583372 3.8587764802 6.0689838456 8.0312842241 1.0732530615 1.5222709093 5.0023512440 1.9104841674 3.0892146701 3.3168333968 4.0648580920
5.1481532271 2.3873329475 2.6401591243 2.8111334826 7.1497495506 5.0631753589 2.0126380327 2.9045368371 2.6977930289 6.8014318959 1.2170491329 0.1808849735 7.7348309694 5.4280596487 3.4295942110 1.2001059109 6.0298136059 2.3014006819 3.7186768146 2.3092362095 5.2199831184 8.4552264440 2.1484487622 3.0155149309 5.9462722922 6.2616901255 0.8658067208 1.7726385275 6.4411828126 3.7082513228 3.1368330787 2.2591045801 1.2909342384 7.8677311956 2.1379445534 1.5657412005 6.9644370544 5.7936282980 5.1399324031 4.4427677541 6.0328210571 0.5623730559 0.5835309293 1.5343805166 3.0765166624 5.2449353873 2.2805998023 5.1374160386 9.0534584509 6.4236335895 2.6262519944 1.6569103628 6.9742667396 1.2004029492 3.3462953019 0.9502826531 4.5003336241 8.1294264512 3.6548118810 3.3678251005 6.2623993366 5.5044078962 2.1993325106 7.5460210731 1.0964148140 3.8229188123 6.0732809979 7.7888228239 1.1246293023 1.5613802827 4.5866045680 1.8690713351 3.1048118854 3.3651752714 4.2834775495
4.8700684688 4.5511227489 4.3384879834 3.1807597796 7.3003926299 5.2421454018 1.3740381319 2.9427749502 2.2614125315 5.8885677595 1.6696209586 -0.1421646140 7.6067658059 6.2482364143 2.3698552171 1.7977003240 5.9882086433 2.6615631402 2.5635519579 1.5110501127 5.0242998961 7.1199918348 3.0716917311 2.3540359702 6.5427992846 7.5616110197 -0.2186139814 2.7660996288 6.1944541050 3.8986187091 1.4215218913 1.9002786908 0.6365164627 6.4687443079 3.0781998069 0.9241306012 6.5002509591 7.1380299044 3.5432053161 5.2299285291 7.2270049629 0.5362177063 -0.3737343980 2.6560369676 2.4657939905 3.9110836652 2.0867313313 5.6565551733 9.3956135701 6.1429658390 3.0855973032 2.3311969574 7.1882628463 1.8305794026 2.5688254712 -0.0121660687 4.8790752925 6.8195066561 4.4225601808 3.0423195039 7.6504866631 6.6226691664 0.4433080097 6.3587674402 2.0114039534 3.2199931716 6.8424805660 9.0809984682 0.0060511638 2.3297318885 4.6013888184 2.2559276157 2.4116669737 2.1878387095 3.6587769655
4.8950568806 4.5018908740 4.3172323413 3.1628434020 7.3362107319 5.2076242606 1.4124800313 2.9343360614 2.2323471785 5.9190868149 1.6671995678 -0.1075148014 7.6275739560 6.2552762191 2.3728350059 1.8568586530 5.9665624605 2.6483440529 2.5589635133 1.5182813372 5.0270210176 7.1615513627 3.0479084281 2.3619547931 6.5216865924 7.5755294091 -0.1735132455 2.7379312852 6.2408913323 3.8852756674 1.4509369373 2.0022982461 0.5833712414 6.4409757381 3.0726464042 0.9580542106 6.4316321659 7.1055224980 3.5554898707 5.1762577643 7.2273994849 0.5078961207 -0.3606078676 2.6681283243 2.5192526272 3.8804434637 2.0631692589 5.6288489088 9.4258781416 6.1390051547 3.0390456139 2.2703713492 7.1679677101 1.7849846948 2.4931601247 -0.0081840215 4.8237788899 6.8599509120 4.4180213164 2.9607152913 7.6445782225 6.6567471483 0.4814759896 6.3593479116 1.9710578724 3.2649118707 6.8266381831 9.0950355138 -0.0624583156 2.3077066603 4.5722129878 2.2586173575 2.4537626128 2.2243545782 3.6121334891
4.8042337868 4.6066803488 4.3961993936 2.8295238152 8.2045533852 5.5923225143 1.5070223736 2.9729725205 2.1806972138 5.9822962374 1.5888230522 0.1446352583 7.6060969946 6.5037337052 2.9862885630 1.9193377369 6.1911942834 2.6759812330 2.7451871094 1.7821054038 4.8710599654 7.2356652982 3.2234716605 2.8491503445 6.1262058936 7.7067171866 0.3066136765 2.9228814435 6.6349525566 3.7249099850 1.9535716936 2.6811343740 0.2750459485 6.8474433827 2.7707376635 1.4084238277 6.4250184280 7.2246518479 4.2723735371 4.6030834026 7.4687321204 0.4974017105 -0.2627126675 2.7969816861 3.0403274195 4.0580219235 1.6476388072 5.6316994452 9.4197029778 6.2887939246 3.1833039961 2.0014291078 7.3053341850 1.6248003461 1.9901903281 0.3796786049 4.7845905980 7.0644900231 4.7137519574 3.0202569387 6.9891847651 6.8960015827 1.2780528732 6.2602460183 2.6228935184 3.9637795682 6.4213183052 9.1940257256 -0.0207525936 2.1547129425 4.7415652247 2.1309833759 3.0211506397 2.3789357603 3.4141276748
5.1250804797 2.2296325189 2.5721314386 2.8336157088 6.6455232339 4.9992853918 2.0966060785 2.6049772002 2.8112093371 6.7697386009 1.3432890537 0.0426030797 7.5751265176 5.1417349438 3.2948371967 1.1284163385 5.6567693734 2.2243300995 3.6601050348 2.1125023830 5.1150571214 8.3886378957 1.9238308199 2.8845821799 5.7980518506 6.0392513445 0.7568645429 1.7091163837 6.0184046160 3.6424793698 3.2427644762 2.1918345971 1.2464785208 8.0814453866 1.7506035387 1.3749516859 6.6746611546 5.5264036599 4.9364644326 4.2358665118 5.9903405202 0.4942285776 0.5677379662 1.4953674986 3.1323945610 5.1614634950 2.3903358994 5.0325218118 8.9155493724 6.0872992020 2.2877514870 1.6658377435 6.6188191386 1.1640328087 3.1048176387 0.7693380299 4.4325440301 7.9813011573 3.3279337660 3.4956527573 6.1742930311 5.1530896947 1.9948493242 7.5070002779 0.9503811641 3.7287883985 6.2681675196 7.4820785014 1.0488103161 1.5805125597 4.1927660133 2.0269775662 3.0628099546 3.3168810581 4.3074157560
4.7914931860 4.6911173979 4.4083143606 3.2415621078 7.2660972695 5.4140038652 1.3092769898 2.9456475506 2.3250026031 5.7958326167 1.6480586496 -0.2330364549 7.5330949134 6.1987699044 2.3715349115 1.8360194523 6.0731024588 2.7719260181 2.6026641399 1.4978260260 5.1045097481 6.9641740147 3.1580813849 2.3947213895 6.6152537737 7.5329501764 -0.1896957386 2.8237173842 6.0159135179 4.0585160958 1.4581248525 1.7109631910 0.7965923279 6.5813939967 3.1383092846 0.8733429146 6.5643585801 7.3159845304 3.5545859723 5.1917251845 7.1494848614 0.4789006255 -0.5361761627 2.6521653306 2.3643880743 3.9572368518 2.0830274218 5.6109634957 9.3262950627 6.1886027568 3.1192524296 2.3546938457 7.1389197142 1.7898072717 2.8405902660 -0.0707341067 4.9848499526 6.7527031425 4.5428519250 3.1432402649 7.6194638097 6.5709893183 0.4962330623 6.2788042342 2.0322422650 3.2390389806 6.8348505513 9.0157328231 0.1754866401 2.2293723777 4.6514409232 2.1104067073 2.2949170017 2.1223349410 3.6844997971
4.8875229759 3.4106334184 2.3055374783 2.8987637501 8.0988600761 5.1295104945 1.7151336964 3.6944428234 2.0526924312 6.5699731903 1.2173212545 0.1189618569 7.3986431028 6.2287086323 3.0796995225 1.1967949169 6.9604459749 2.4166654255 3.3777289842 2.3471090962 4.6606849018 7.9394824414 2.9121605446 2.5853463855 5.8235906663 7.0319180188 0.8528010278 2.2831535554 7.3672232739 3.4430947467 2.9210794213 2.6946236976 0.9837447536 6.7884133543 2.6348652405 1.5657288285 6.9328917948 6.8839637131 4.9299279696 4.5714103399 6.7326747242 0.0430608018 0.1634201782 2.5500774119 2.0839769446 4.9828709585 2.6103286092 4.5920043925 8.9863130301 7.3595415467 2.9674372621 1.4331988763 7.8653205811 1.1569864937 3.2182423132 0.8643578406 4.6930080354 7.9013498223 4.4159917027 3.0907659406 5.7778090466 6.1474351986 2.1487866947 8.0142291305 1.9157792299 3.7948462486 6.0461971168 8.5593874132 1.2867542223 1.3889143404 5.4910169895 1.9151580834 2.7974979952 3.2802691759 3.6060518643
4.5504031336 4.6975406319 2.3764073166 2.6078760029 8.0344389038 5.1621996033 1.7031370005 3.1607688312 1.9595502169 6.5403017411 1.2693183843 0.2774958135 7.4161821955 5.7911786829 3.6290239993 1.2682193328 6.5370942028 2.5754305073 3.3383100415 2.1836965731 4.8141639709 7.7408118613 2.6037392719 2.9580645284 5.9421244029 7.1317595925 0.8130421910 2.2721475580 7.1695861213 3.5729797263 3.1075898234 2.8216957084 0.7696947088 6.5557147355 1.9557845118 2.1308525859 6.6429500669 6.3832412209 5.1669248766 4.4369519977 7.2178117686 0.3692068196 -0.1221620249 2.7814258233 2.2957477576 4.8061529861 1.8746497977 4.6029034919 8.9991545807 6.6010433067 2.9883120124 1.2816868885 7.4004422220 1.2828467009 2.6597823981 0.7720287962 5.0024588822 7.0248077742 3.9808371071 3.2018266395 5.9675783085 6.5958464964 2.2820626874 7.8930533925 1.8385877452 4.3475435728 6.6645324829 8.4671528458 0.7123264853 1.7418065203 5.1291605186 2.1779950213 2.6775336734 2.8595160778 3.5600985137
5.8709650198 1.5500188133 2.2898878781 2.7648189104 4.7677969728 5.0296309922 2.3318366912 1.5101985283 2.8609350360 7.7189258836 1.3268405947 -0.0738381062 7.9779659379 4.6301087975 2.8177454780 1.1062999343 4.3380636079 2.2248676460 4.0729478811 1.7672517364 4.9930679194 9.2767401506 1.4847445449 2.7711282260 5.9562769828 4.7012215439 0.3621475496 1.2961274975 4.8217364512 3.7135867058 3.9407857650 1.7847325058 1.4360636619 9.0239220803 1.6866776715 1.2757760145 6.3914696846 4.4007158364 4.0298381831 4.5235832441 4.8560486135 0.7681265284 0.4125819408 1.2729307150 3.1724211840 5.5014536495 1.7955242225 4.5290062382 9.8759774962 4.1248788733 2.0127168706 1.6735245414 5.4591962636 1.2734076919 3.1353469170 0.6889167354 4.3171648728 8.4951936963 2.5861063176 3.5598891935 6.6886134029 3.7139195690 1.3651811072 8.4657155213 0.3039026782 3.4185502213 6.8538157416 5.9431561942 0.8825180835 1.9407751822 3.1312153934 1.7597479620 3.3240604661 3.0226527540 4.3599774968
4.9622282382 4.4326508110 4.3366855495 3.1358621661 7.5299379536 5.3019335482 1.5068973866 2.9017583990 2.2186119270 5.9581139211 1.6488701457 -0.0151364031 7.6704512625 6.2780906218 2.4965164500 1.9350327384 6.0269626433 2.7028567540 2.5820673146 1.5977691569 4.9569004884 7.1547889787 3.0141792156 2.5211543208 6.4546987847 7.5633353438 -0.0682552021 2.7855397138 6.2311045542 4.0068364663 1.4642402076 2.2436217623 0.5126013080 6.4967314188 3.0551512046 1.1008587755 6.2934493281 7.1070371847 3.7320594388 4.9951506992 7.2384142597 0.4710935210 -0.3821580691 2.6559158096 2.6614819592 3.9694669224 1.9840870746 5.6239017223 9.5272905542 6.1699437438 2.9166695087 2.1280340913 7.0663335068 1.5431500039 2.3709991071 0.0750824833 4.7560403619 6.9426202625 4.5774672128 2.8907833184 7.5540276464 6.8267384263 0.7215348860 6.4459998141 2.0258300949 3.3795156191 6.7878111676 9.0573546614 -0.0773630752 2.3078502830 4.5973148874 2.1662104541 2.5827887399 2.2522748422 3.5944152549
4.2534848170 5.0451993776 2.4046712694 2.5229089815 7.8216202041 5.0878663457 1.6214884813 2.7293607020 2.1446485596 6.3027166948 1.1052280746 0.1957273757 7.0863497759 5.7542279385 3.4982423387 1.4732913049 6.0144115905 2.3681913510 3.0902334629 2.0858862413 4.8451909959 7.2685186456 2.4918777175 2.9981435936 5.7345499397 6.9565457316 0.7262717777 2.3529551244 6.8357470114 3.4270063031 2.6928997663 2.9305244834 0.5636258707 6.4205841784 1.5334480232 2.1084844162 6.1569881032 5.8452436566 5.2779969800 4.2397374068 7.3449860145 0.5455862047 -0.1508448152 2.6891253166 2.4766831031 4.6241460198 1.7118956395 5.0741247972 8.8838616247 5.6813283133 2.7896266262 1.4490129147 6.7524904741 0.9713725194 2.1892668384 0.8009789220 4.8892259669 6.4462264381 3.8521647104 3.0360937182 5.9970311498 6.6413103067 2.2376882017 7.4290328444 1.8539685628 4.3846062678 6.5612546342 8.2016780784 0.3564086727 2.1834624274 4.6820379931 2.1071720927 3.0652846940 2.5262294580 3.3943898081
4.7930838746 3.5439337548 2.3124540763 2.8674717430 8.1142052114 5.1714008519 1.7150924007 3.7065666132 2.0242681698 6.5692439684 1.2429587362 0.1203697725 7.4049732810 6.2586861365 3.0895398606 1.1676425927 6.9826313728 2.4280960298 3.3803960443 2.3912150864 4.6725413119 7.9345026039 2.9430239558 2.6282432870 5.8717466425 7.0618794736 0.8657407541 2.2767094995 7.4266268726 3.4706463711 2.9022043208 2.6975214881 0.9894548934 6.7998210387 2.5566845051 1.6103572193 6.9613508711 6.9399365919 4.9692844013 4.5441869853 6.7601713933 0.0828297236 0.1457496927 2.6201609653 2.0387034306 4.9510708997 2.5831165181 4.5164333604 8.9710940944 7.3278151189 2.9987376285 1.3985985467 7.8641553598 1.1706670960 3.1707499722 0.8823291648 4.7297671737 7.8514371263 4.4537941666 3.1114506872 5.7833278056 6.2191937324 2.1728477183 8.0046431677 1.9343813621 3.8513106536 6.0944930947 8.5395856690 1.3252829150 1.3697981118 5.5280130216 1.9207860030 2.7745735025 3.2533866288 3.5730288460
4.7596516403 4.4892894146 4.3726023692 3.2874804523 6.8540087056 5.6798010477 1.2226257910 2.2764318028 2.7353844184 5.7297677653 1.5690349103 -0.6589437034 7.8616493401 6.2926901148 2.7373896779 2.0130460737 5.3426843386 3.1635364292 2.5651482511 1.1660624706 5.2331539930 7.0957489661 3.1086430852 1.9820693459 6.4060902623 7.4667430424 -0.0395427280 2.6114434946 5.5911820229 4.4827444023 2.2208268402 1.2931274414 1.4639531959 6.8886786625 2.9981481441 0.3903721945 6.6969860079 7.3733680327 3.7235747269 5.2241379297 6.4720867758 0.3188705637 -0.4890076373 3.0170844684 2.4341813800 3.7896407650 2.0663474722 4.9144726469 9.6424156922 5.7711894820 3.0592618643 2.7252232064 6.1481193871 2.0015488478 2.7738435284 -0.3330936554 4.9539988516 6.5802304752 4.5541295928 2.4525537634 7.6382276740 6.9913524244 0.7979912627 6.1905809717 2.1193697721 2.7895766606 5.8147361072 8.8219516147 0.3801143936 2.2420425635 3.8716341830 2.7215109170 1.3428737842 1.6586884938 4.4370228495
6.0134877328 1.7987099531 2.5470948318 2.6258906861 5.3565502978 5.0672945189 2.3393122223 1.8017743909 2.9197430144 7.4757196975 1.3191867217 -0.2098140219 7.5106245878 4.4185152803 3.0047329847 0.9305510259 4.6352590868 2.2934040804 3.9653360227 1.8916266801 5.3413097329 8.8233389157 1.3639120054 2.8452974389 5.8833843278 5.1940866458 0.5456211772 1.4166621916 4.9903889392 3.6995779460 3.7224121011 1.6594062626 1.5257695344 8.6888019581 1.6573605275 1.3348356457 6.5810494147 4.8465302863 4.5207551530 4.3478317706 5.2767769830 0.6466181242 0.4082303390 1.1900749238 3.2238140026 5.4569248146 2.0029388620 5.0046370692 9.2440218998 4.6816770968 2.2137604106 1.4152930875 5.5930523714 1.1542841703 3.2035387693 0.7596782680 4.4169794556 7.9761318396 2.5952534821 3.6537969429 6.3555769423 4.0083445240 1.4804796950 7.9200691241 0.1666148308 3.5101891724 6.5535085797 6.4906563932 1.0924569464 1.5634985669 3.2558544005 2.0662258197 3.1403386429 3.0895024194 4.8464002846