-28926.8559586453
-28926.6529199202
-28926.1430425225
-28925.917044068
-28926.6018942478
-28926.2870435955
-28925.9545671865
-28926.2862464384
-28926.1480577141
-28925.3419674117
-28926.0977606261
-28926.3951077007
-28926.8948921291
-28926.3697862965
-28926.073538017
-28926.9640287369
-28926.4183097474
-28926.0983685281
-28926.1972385916
-28925.6732488333
-28926.5679584041
-28926.6741178494
-28926.1248970287
-28926.6904895702
-28924.8339199787
-28926.7469411897
-28926.2687263979
-28926.2892018653
-28926.3519605362
-28925.4936003215
-28925.5132584954
-28926.4576650074
-28926.8104345676
-28926.2881293292
-28926.1410498339
-28926.1288995491
-28926.0915980671
-28926.2278750567
-28926.7552252831
-28926.6725575495
-28926.6194405472
-28925.9914585931
-28926.0207612929
-28926.6939137129
-28927.0866018085
-28924.9816102331
-28926.2581557331
-28926.4418373781
-28925.9265596119
-28926.7545085357
-28926.2300485649
-28926.4718060761
-28926.5906149989
-28926.0034583991
-28926.7376944941
-28926.0482310348
-28925.9406797279
-28926.3129475951
-28926.0979147785
-28925.8115511652
-28925.9654807146
-28926.1422218276
-28925.8038968789
-28926.1950588249
-28926.0187736384
-28926.0945113164
-28926.2037513609
-28926.4672918459
-28924.665252207
-28925.6466340727
-28926.2904531801
-28925.8635073304
-28926.2874796577
-28926.2514467698
-28926.2123881137
-28926.2743236406
-28926.7513196352
-28926.0677467572
-28926.0816399302
-28926.6803640833
-28926.2643313535
-28925.0458249844
-28926.3234232923
-28926.2659730154
-28926.3523827206
-28926.8489326695
-28926.6076540784
-28926.7952839571
-28926.490193343
-28925.0311898933
-28925.8181812154
-28926.3392452073
-28926.7289143374
-28926.9250031426
-28926.0537858278
-28926.1105571809
-28925.2538865202
-28926.050462231
-28926.4426841959
-28926.8419339052
-28926.2521861027
-28926.4116516694
-28926.2932477878
-28925.9216810215
-28926.2542707658
-28925.1628296573
-28926.2004923912
-28926.1231923724
-28926.7823631824
-28926.2379594543
-28926.7380013023
-28924.9925357342
-28925.8363016748
-28925.736767926
-28926.1402449216
-28926.3447599995
-28926.2480124228
-28926.2201555992
-28925.1001273139
-28926.703089795
-28926.4352654241
-28926.3096495771
-28926.6752170527
-28925.7461509505
-28926.4206843475
-28925.0539266256
-28926.1479579844
-28925.7043759194
-28926.0032696883
-28926.5480821311
-28926.7720900739
-28926.7766155968
-28926.2367775285
-28926.1866310554
-28926.5555475704
-28926.1118848237
-28926.2273374961
-28925.0248768555
-28926.484315415
-28925.6097028014
-28924.9410070596
-28926.2256917524
-28926.1455246076
-28925.6395146259
-28926.8477331924
-28926.3306246453
-28926.1968915106
-28926.087088735
-28926.2462126628
-28925.8247982043
-28926.8887917481
-28925.8037640874
-28925.9246613468
-28924.6481671403
-28925.8202905048
-28926.7213431819
-28926.7594571954
-28926.1639575896
-28927.3933740853
-28926.3019083505
-28925.0453302817
-28925.4011762233
-28926.4426063714
-28926.8847720846
-28926.3459021968
-28926.4386975941
-28926.0187622096
-28925.5800726129
-28925.699691346
-28926.2649087788
-28926.5363540306
-28926.563118862
-28925.836309158
-28925.2769706056
-28925.8197106305
-28925.9259190563
-28926.2352671614
-28926.1240292581
-28926.0086209402
-28925.7581502123
-28926.2788366463
-28926.0437516351
-28926.1965408921
-28925.6600798909
-28926.1167102159
-28926.2956622527
-28926.3299560619
-28926.7604440157
-28925.0252598555
-28926.4910136297
-28926.9721687461
-28926.2861374569
-28926.2723203396
-28926.6735079066
-28926.4155008537
-28926.7093493625
-28925.5863939501
-28926.1256487428
-28926.3410080959
-28926.4638013074
-28926.1784740391
-28925.7671809857
-28926.1461338702
-28925.6398172164
-28925.6313582899
-28926.4566662141
-28926.3343569568
-28925.0281752817
-28926.4116809216
-28926.376282875
-28925.9384637699
-28926.2417402021
-28925.810536045
-28926.346254448
-28924.6629293084
-28926.4344522123
-28925.8737647923
-28926.7265062673
-28925.0238769737
-28926.3603654481
-28925.3916289781
-28926.2956019795
-28926.7106876176
-28926.1730680923
-28925.9970693055
-28926.1504845601
-28925.0812260243
-28925.763266494
-28926.6752359646
-28926.2721531257
-28926.2683866639
-28925.5226275062
-28925.9952095444
-28926.7198885982
-28926.0422774591
-28925.9624486877
-28926.4552174808
-28926.4196976633
-28926.5243787149
-28924.9082664754
-28926.7397601092
-28926.854983934
-28926.7106711548
-28926.6572503376
-28926.3053738546
-28926.1762591697
-28926.6633240514
-28926.2748108602
-28926.0276328441
-28926.1902157452
-28925.7575923792
-28926.5274918317
-28926.7249772604
-28926.1164228638
-28926.2433403667
-28925.878217933
-28926.0354057719
-28926.2762310216
-28926.582854044
-28925.318487673
-28925.0808805759
-28925.377125318
-28926.1315298001
-28926.311425119
-28926.2856818025
-28926.7599193805
-28926.2239767558
-28925.6829966263
-28926.1639877942
-28926.3865472758
-28925.9822996542
-28926.548740102
-28926.1723712091
-28925.665395768
-28925.7152060446
-28926.8145056607
-28926.4463665745
-28926.2674496404
-28926.3784384236
-28926.8394711402
-28926.289402141
-28926.2446206616
-28926.307416476
-28926.9809838694
-28926.3713966653
-28925.6616460413
-28926.5236245518
-28926.5449543201
-28926.7980510813
-28926.3275562912
-28926.7375483691
-28925.9513981504
-28925.9954251945
-28926.7634725051
-28925.5235369101
-28925.6047076103
-28926.4600066819
-28926.7486153693
-28926.2855713243
-28926.1540126502
-28926.6975720095
-28926.0360168032
-28926.5299209907
-28926.5256490777
-28926.8798224724
-28926.1005506078
-28926.5283284452
-28926.4224626106
-28926.2943622295
-28926.4192145254
-28926.5363895415
-28926.506551458
-28926.330178787
-28925.830969743
-28927.2855748828
-28926.8663690351
-28926.5264007918
-28925.7555592817
-28926.0994666429
-28926.3566777632
-28925.2801867174
-28924.6876528789
-28926.3110116422
-28926.7041836921
-28926.6499276219
-28925.2531828342
-28926.5210495398
-28925.843481939
-28926.406062454
-28926.1980158844
-28925.6778795282
-28925.8591744639
-28926.7043424704
-28926.2522047425
-28926.733280946
-28926.2421536788
-28925.7071576017
-28925.3628824788
-28925.087048305
-28926.4298500893
-28926.0604362866
-28926.8237527645
-28926.2413041399
-28926.198594126
-28925.3067565793
-28926.2731154558
-28925.7377816855
-28926.8788942926
-28926.2285466333
-28926.5550625277
-28926.1441267596
-28925.7595159509
-28925.7823854747
-28926.6886979736
-28926.1377005224
-28925.9109006931
-28926.8863839501
-28926.6634949388
-28926.7219354374
-28926.4513794531
-28925.8474610576
-28926.5301073885
-28925.7068072553
-28926.1630412467
-28925.5569230841
-28926.2097862985
-28926.4035738381
-28925.5011533815
-28924.6414743678
-28925.0122862907
-28926.588978235
-28925.9931130444
-28926.7983951691
-28926.1936753988
-28926.271617742
-28926.7681275542
-28926.087534049
-28926.2623287327
-28926.987006834
-28926.865981137
-28926.3332653727
-28926.6186044779
-28926.6680754287
-28926.7382798107
-28924.7008765162
-28926.1497523021
-28926.4389956947
-28926.3236831609
-28926.5536229102
-28925.197978992
-28925.5291674868
-28926.2436079905
-28926.0670396697
-28926.0196540623
-28926.8760384593
-28925.4239933652
-28926.1639865697
-28926.733668708
-28926.7522174744
-28926.000344466
-28925.4666949435
-28926.7829538051
-28926.8593895908
-28926.0938351138
-28926.8865711643
-28926.3302340261
-28926.3032109588
-28926.4484660678
-28926.2915463969
-28926.5052330671
-28925.8588071104
-28926.593267019
-28926.8116092825
-28926.2866552892
-28924.9854969691
-28925.9361204628
-28926.3121655404
-28926.2409816851
-28926.2992346974
-28926.3047935721
-28925.5716996743
-28926.6121051783
-28926.2427921936
-28927.4049957893
-28926.3477859039
-28925.702338332
-28926.703400957
-28926.5945078574
-28926.2646324473
-28926.1105488815
-28926.2459559235
-28926.4729922197
-28926.6161704209
-28926.1570385546
-28926.7078179066
-28925.7987991009
-28926.0486404298
-28926.3309774407
-28925.4575410386
-28926.8551150928
-28926.2312160687
-28926.9240493841
-28926.8682939674
-28926.6977641217
-28926.7079471606
-28926.8919439132
-28926.8830172233
-28926.2398271067
-28925.9591952963
-28925.9633676157
-28926.2937082042
-28926.2699479163
-28925.9075007685
-28926.0590729969
-28926.8872283189
-28926.2633905204
-28925.9060808792
-28926.3966493608
-28925.603359559
-28926.1606739936
-28926.3285186213
-28925.9862428538
-28925.7225142022
-28926.1616325141
-28926.4620113435
-28926.0257842397
-28926.4698962461
-28926.2572300023
-28926.6611818363
-28925.0713949645
-28926.3029568046
-28926.9497763738
-28926.5233442747
-28924.9167599603
-28926.7050721433
-28926.6927210386
-28926.2762497974
-28926.7349469621
-28925.3960014371
-28926.7144053711
-28926.1572626402
-28926.2692523937
-28926.4357250241
-28926.5203257174
-28926.4346767061
-28926.1273597937
-28925.0308332883
-28926.5020606296
-28925.6323925941
-28926.2529838041
-28925.9757668846
-28926.3281952142
-28926.6802050329
-28925.5092638663
-28925.8442929739
-28926.6944398447
-28926.412959992
-28925.8584415257
-28925.9153345137
-28925.9937523756
-28926.1120823782
-28926.2905276032
-28926.6744788083
-28925.452975651
-28926.5187028313
-28924.8455095732
-28926.6512918639
-28926.4538833073
-28926.2114056472
-28925.9793092607
-28926.369275403
-28926.6646976814
-28925.3119724547
-28926.1791833035
-28926.0806973284
-28926.0617331805
-28926.1671358776
-28924.7722869061
-28926.1545389181
-28926.8537511229
-28926.642566266
-28925.6466788354
-28926.6452114833
-28926.2417411545
-28926.2731264764
-28925.2910545304
-28926.6874442097
-28925.9762919279
-28925.9281112043
-28926.8634174178
-28926.1189460381
-28926.0732774681
-28924.9472123404
-28926.4272011985
-28926.2371889644
-28926.6387255172
-28926.8396315512
-28926.2560624984
-28926.7157079793
-28926.8608886652
-28926.1246602897
-28926.08971436
-28925.5896089735
-28925.2141022729
-28926.5465109466
-28924.6416702896
-28925.9190684579
-28925.3690085745
-28926.6345076188
-28926.2800810223
-28925.1948330855
-28926.2292013389
-28926.1389035371
-28926.1414012687
-28925.7478898931
-28926.3276147956
-28926.0676104282
-28926.2954143571
-28924.9672129694
-28925.6715806403
-28925.8581402958
-28926.6299940689
-28925.9216636062
-28925.9727277827
-28926.4426248751
-28926.5034300418
-28925.0313390116
-28926.3287746803
-28926.0906342404
-28925.7196140144
-28926.2849699531
-28926.131812118
-28926.0060734118
-28926.7413625868
-28926.2954187109
-28926.0521776358
-28926.2137705873
-28926.6215284757
-28926.6399126132
-28925.665321481
-28925.9203756921
-28926.2481531056
-28926.1738287862
-28926.1335555505
-28926.083127984
-28924.653886562
-28926.1535024371
-28925.3459020397
-28926.116767768
-28926.6837644161
-28925.8865899191
-28926.3791374837
-28926.0022051795
-28926.4143597449
-28926.3740275966
-28925.6206726571
-28926.869484873
-28925.9744093093
-28926.2914530619
-28926.4269475886
-28926.1915054281
-28925.4216629834
-28926.196667561
-28926.2044542306
-28926.1610433879
-28926.1079775431
-28926.6628082599
-28926.3309650595
-28926.7677823779
-28926.461543444
-28926.3930121531
-28926.5024131529
-28926.8761492096
-28926.8558768751
-28925.173390526
-28925.6575085525
-28926.7138185579
-28925.837623059
-28926.6602031794
-28926.4909178457
-28926.2244506418
-28926.7429430232
-28926.0948031583
-28926.7272026062
-28925.8124168949
-28926.2879623874
-28926.6050393379
-28925.6492724871
-28926.7420420547
-28926.0537978008
-28926.5543407461
-28926.3930031733
-28926.0140706973
-28925.7753777306
-28926.4965503272
-28926.0823264731
-28926.7148377597
-28926.3451208223
-28925.4978118253
-28925.9942526566
-28926.502123896
-28926.8826429309
-28926.2409801885
-28925.81302262
-28926.2390480452
-28925.0832426589
-28926.3505798313
-28926.071297977
-28926.3063163204
-28924.6458805688
-28926.3923854752
-28924.8934395441
-28926.3481167941
-28926.195025627
-28926.6733996053
-28926.450053307
-28925.8680660512
-28926.7517608676
-28926.7957089987
-28926.3319781388
-28925.1241054289
-28926.719143959
-28926.2382839499
-28926.9865050564
-28926.1283666144
-28925.7095730189
-28926.399655673
-28925.015838599
-28925.6708781788
-28926.2371054255
-28926.3012862986
-28926.769814387
-28926.8018012163
-28926.2499917779
-28925.8960514485
-28926.8619994333
-28926.9099661396
-28926.2162798838
-28926.8269090112
-28925.1180228714
-28926.5581908829
-28926.0670980381
-28925.792512322
-28926.3923879243
-28926.2808989961
-28926.3723885198
-28926.1078168599
-28926.2645626501
-28926.3283369854
-28926.6689838803
-28926.2295314128
-28926.4146379812
-28926.2806417126
-28926.7629486863
-28926.6672042567
-28926.5834683407
-28926.2991635397
-28926.3131342651
-28926.5358049052
-28926.6409118147
-28925.2329534936
-28926.111244132
-28926.1055453908
-28925.8849607744
-28926.612283957
-28926.5584322477
-28926.7573492666
-28926.5548619799
-28925.7475776427
-28926.1240087135
-28926.5257123441
-28926.1038378774
-28924.6805392825
-28924.800915172
-28926.8639342978
-28926.1769737402
-28926.1356064715
-28926.409212034
-28926.4796239027
-28925.2846776819
-28925.7368354102
-28925.8397610563
-28926.5306356973
-28926.2554399023
-28926.450900533
-28924.9391019916
-28926.8060831975
-28925.6244689153
-28926.2479845312
-28926.4196414718
-28926.1899086649
-28926.3086645255
-28926.2824387514
-28926.5856219846
-28925.186491304
-28926.4903744346
-28926.6968299554
-28925.9955774422
-28926.8224573672
-28926.3199132977
-28925.1471722351
-28926.5014052437
-28926.3232257377
-28926.6276978374
-28926.2407510688
-28926.1969619881
-28926.1536855696
-28926.2149439416
-28926.6771276991
-28924.7237124339
-28926.299159594
-28926.4601231465
-28925.9849704502
-28925.7965307611
-28926.2887784564
-28926.6769013005
-28926.8664068589
-28925.0683535497
-28926.3640758544
-28926.3737617415
-28926.0436162586
-28926.4597088534
-28926.161041211
-28926.1235364602
-28925.6646810614
-28925.7541885089
-28926.72848018
-28925.4478962407
-28926.2095924175
-28926.5304003189
-28926.0241212168
-28926.1767421715
-28926.0337215242
-28926.4536314661
-28925.0701542621
-28926.4236652171
-28926.0141975023
-28926.2569187042
-28926.5357706189
-28926.5164977579
-28925.9697077288
-28925.7649771368
-28926.2373693758
-28926.2223020321
-28926.0347800464
-28926.0499395006
-28925.8135494321
-28925.4531631374
-28926.5943279903
-28926.1908084089
-28925.7834527046
-28925.9844504409
-28926.4974458533
-28924.9938488189
-28925.8303992566
-28926.1405322736
-28926.6728146969
-28926.2663071711
-28924.8916099877
-28926.2326373185
-28926.2866351528
-28926.2982646121
-28926.9372715248
-28926.0516981715
-28925.0247738605
-28924.7274704601
-28925.7510586572
-28926.5874935826
-28926.4732545373
-28925.7114337324
-28926.6671692901
-28926.0748267474
-28924.9124409716
-28926.4968454345
-28926.2703076506
-28926.1020168925
-28925.6280020395
-28926.3105319058
-28927.3528609814
-28926.1638799011
-28925.7271223117
-28926.4277866512
-28926.3508104476
-28926.056103148
-28926.0590772147
-28926.1006911545
-28926.2194988528
-28926.3010905128
-28926.7555444725
-28926.2510358781
-28926.8660706624
-28926.3254343486
-28926.2711211345
-28926.3975189002
-28926.2145654314
-28925.913006581
-28926.0664446931
-28926.4264828184
-28926.7940999904
-28926.786105426
-28926.3062593125
-28925.103882619
-28926.2389604246
-28926.2458495271
-28926.2907236612
-28926.1502219704
-28926.989230003
-28925.6667099411
-28926.3711407424
-28926.325954766
-28926.0630398704
-28926.480730453
-28926.2051044463
-28926.1756286822
-28926.2986633947
-28926.4572127545
-28926.7344357965
-28926.7552271879
-28926.4822659906
-28926.7376305474
-28926.4880888156
-28926.7969739193
-28925.7013413074
-28925.8943971333
-28925.9683549156
-28926.1653520363
-28926.1739894693
-28926.1113079426
-28926.5389225118
-28926.3290175418
-28926.7753929899
-28925.7889742997
-28926.9779979658
-28925.8950504783
-28926.6447268488
-28926.3970233811
-28926.825493884
-28925.9329253038
-28926.7364037228
-28926.8086950808
-28926.3646550484
-28925.9560546961
-28926.3416796725
-28926.0936976964
-28926.5471012972
-28926.2928211136
-28925.9741875367
-28925.7063294236
-28927.1951687798
-28926.2422123193
-28926.2455459843
-28926.3131707284
-28926.3624092941
-28926.263918557
-28926.7197839704
-28926.5547109568
-28925.2183747301
-28926.9039253515
-28926.1205762713
-28925.3447048755
-28924.8802614859
-28926.2530344172
-28925.6524608433
-28926.6836385636
-28926.9615281481
-28926.7478435188
-28926.8927580774
-28926.493065231
-28924.8807485694
-28926.1370719398
-28926.7732958097
-28926.2474763588
-28925.999372748
-28925.087914443
-28926.0422216758
-28926.1009824523
-28925.1493752676
-28926.525889218
-28926.452812676
-28926.724619839
-28926.6486655585
-28926.5752771741
-28926.770647327
-28926.3778159636
-28926.0122536581
-28925.0696713963
-28926.5345127733
-28926.2561962423
-28926.1892610343
-28926.8259499465
-28926.8443919082
-28926.2324226208
-28926.3584299033
-28926.055478375
-28925.5990586659
-28926.1761435213
-28926.674296356
-28924.7609852078
-28925.6874704476
-28926.965859654
-28926.1761988965
-28926.8788823196
-28926.0824977687
-28926.2051553316
-28926.3321137875
-28925.8936105886
-28926.7419941627
-28926.5141209808
-28925.5194576537
-28924.8932641669
-28926.4725806477
-28926.1354418427
-28926.8215055135
-28926.5689669935
-28926.6559686821
-28926.1537233934
-28925.0740995026
-28926.5067892854
-28925.5992136347
-28926.1242104858
-28926.3307879135
-28926.3124688111
-28925.9983027969
-28926.3074915794
-28926.4806050086
-28926.0586008797
-28926.7195787967
-28926.9457652818
-28926.1915149521
-28926.3407154376
-28925.3092836992
-28925.7254882689
-28926.1314204104
-28926.7077953211
-28925.5963572572
-28926.0304738472
-28926.492218005
-28925.2939607047
-28926.1212063506
-28926.4791587243
-28926.23408646
-28926.3107672841
-28926.152008941
-28926.4847210004
-28926.8414457332
-28926.3216130559
-28926.2037642863
-28926.3016001818
-28926.3063718315
-28926.7284056209
-28926.4419293525
-28926.5242206168
-28925.7416493736
-28926.1769040791
-28926.115276857
-28925.8023680081
-28926.2488761117
-28926.1392016377
-28926.1050290551
-28926.1364388673