0.467952360515407 0.0990329290392896 -0.0250931825510026 -0.141438882887098 -0.612543414248691 -0.193973692402567 -1.44688704180869 -0.794912952752323 -0.275399458985273 0.716673552670171 0.0218484520388593 0.544912123215709 -0.469326100224312 0.124077260655482 0.258951863454978 0.981947498420164 0.20336875560734 -0.0220700810167886 0.23798864177692 0.484201466984262 -0.834119684590416 0.143318101216199 0.601385860737996 -1.45632427108351 -0.10601886982736 0.707701692826967 -0.278634676420637 0.321145531223196 0.60225772136927 0.714180612333742 0.266945419051058 -0.57602991157975 0.463656306464107 0.347954410026777 0.143392406059147 0.323512230459668 -0.109247916618327 0.144478182362854 -0.215332092432223 1.59993419235765 -0.100079367484965 0.00840878854196893 1.17325084445989 0.124399162604864 -0.69948676536314 -0.814228098155988 -0.233242902015181 -0.0726436540547121 -0.221176464006829 -0.247283174900056 0.393242311918215 -0.431899085074416 -0.16373496375493 0.399589076790819 0.68383749695172 0.850876326560933 0.353982872492563 -0.397672577485152 1.19658925001046 0.408642954782468 -0.985692308238656 0.075757258373417 -0.429188372412806 -0.781089423751896 -1.21690943912031 0.436920961172925 -0.898113123641123 -1.34971970425879 0.149816818207081 -0.728389035278438 0.565809267576682 -0.74047552788108 0.590230878329133 -0.650720419803018 0.786924282249723
0.193021356283947 -0.294865270956301 0.194884890891873 -0.54118351133876 0.865540862970648 -0.242347687823107 0.84069296353443 -0.438451280983407 0.025862713329358 0.643056222351633 -0.282747410911306 1.6449125335885 1.38454759256659 1.22183155646773 1.61703459064312 -3.32399141098339 -0.826773018215298 -1.50507827535483 1.36123875468708 -0.0482050740301688 -2.09685438588507 1.44614527893012 -2.89433098427421 -1.139530072601 -0.51485645701852 0.098165182170947 -1.38765168380851 0.634875490542174 0.485107780380086 0.418253476320773 -1.26996541097715 0.733189282399017 1.49044279239582 -1.17827040656675 -0.22754456902464 0.843871616729488 0.447642712923075 -0.731292323467275 0.71162827954499 0.681748733823301 -0.50321116549027 0.107340416169073 -0.920459598104865 0.423034954397978 1.01820003425314 0.64799068098785 0.791910677142949 0.270814670198225 0.439054461473224 0.365046837896569 0.137831369906441 0.449864402016215 0.50165693443275 0.831037704824246 -0.322085268942838 -0.931895087723613 -0.438852372869219 -0.947892740433286 -0.120698318627702 0.0902032511274016 -0.596759420101268 0.948176847185735 -0.982944828820846 0.563352579776085 1.87322894738314 -1.91939205233824 -0.315047906118125 0.371825290766786 0.158057713799412 0.558045825594577 -1.47124746033753 0.16286258890329 -0.360765182015529 0.0925465533372015 -0.0105865117937799
0.279297249362776 1.164739726065 -0.235721701291534 0.0932080978386075 -1.63587125399583 1.68865494616865 -0.258147879912072 0.833882114781128 0.968775486623998 -0.936273931253907 0.532800433815112 -0.830323452735282 0.606122858753505 -0.328287537892476 0.159556409057359 -0.249351626324002 1.58075942911402 -1.60520263712186 0.258214728559707 0.772904321069322 1.7688730662208 1.02398501337543 1.28198762603399 -0.571896865384607 0.86484075194176 -1.40231724865896 0.204403366984587 -0.407269729293929 -0.631119882095987 -1.66836843849281 0.188524499179559 0.0270731880719231 -1.82464617849384 -0.0802451166213934 0.257500219360559 -0.135715095988418 -0.163228970914368 0.692999618330502 -0.845054323572266 -1.44455376689603 0.416500499091629 0.584013954099052 -0.23499227970176 -0.061843997919049 -0.353713163910373 0.00957684010430389 -0.717057418173708 0.494012534465472 -2.52196601923286 0.751950098247676 0.498661857908506 1.01525920797756 -0.486642213953499 -0.187201410176746 -0.785975031453302 -0.0423887274655328 -0.351620801239389 1.90492651921033 1.00652208973163 -0.0632290504760154 -0.320706901250635 0.262535465188595 0.970558031524211 -0.556933052721632 -2.19423435355649 1.51056732065624 0.472647192460869 -0.320015531967977 0.0134733449308912 1.48410168394725 -1.65461458635203 0.203914857636483 -0.241060851356127 -0.107762076869541 -0.392772314503302
0.00939454898440614 0.151816621212109 -0.220927067129113 0.624631706622616 -1.32620517823271 0.930366567684414 -0.190519931311472 1.36011646873736 1.77959893173388 -0.675264415002679 -0.340076554013142 -1.27732981795491 0.38499627412222 -0.950828424505207 -1.98990991939815 -2.09883207741435 -0.830276144461571 -0.540130130918138 -0.2678499326756 -1.07393766532089 -1.94763509174378 -3.35853570675911 -1.27460316446194 1.61234464379114 -0.280683844580842 -0.0779627495250149 1.48355326792645 -0.0670527931207535 0.464673177238713 -0.0863188304794252 -0.708072445711159 0.302730528570958 -0.407883965521624 0.928874043070865 -0.185279511557232 -0.194556046967544 -1.12315061126926 0.791996551944142 0.868630041821948 -0.128884449751008 0.527348669490272 -0.570549865134756 0.490397051069136 0.0644037869031139 -0.796536860669494 1.5377073573758 0.438370291275695 0.148220421079514 0.891287362497194 0.631215012863775 -0.250755962144709 0.784952504254666 0.661039537006257 -0.196934830382627 -0.447097896444848 -0.142416930024038 0.16396224915689 0.303789822525794 1.31716184175857 0.319499511830269 0.559023358511151 -0.317913913330397 0.674893405008303 1.50537240940443 0.396949840760141 -0.241308962682928 0.0948250637808318 0.233927329322893 -0.849121549560506 0.448330225552986 -0.530294637969522 0.302961413515483 0.782362119158798 -0.291954526572151 1.28586870424958
0.183424461585353 0.0918227881714579 -0.00443592199096743 1.47602508176199 -0.106772716884539 0.977298432087313 -0.145390409292892 0.139629084307464 0.095521832377338 0.0327401536201126 0.132364436080791 -0.00932795744695407 -0.645979822244944 -0.0922781303059275 -0.0347363570825754 0.278470125903381 -0.147596414664857 -0.212675887129453 -1.87859972200027 -1.7555408747805 -0.931303220081857 -0.143728191958423 0.0387950984347699 -0.796960321141245 -2.81068044327617 -0.487686595517709 0.168207138281731 0.322768410699634 -0.683431005752061 -0.773352464118662 0.181057505238698 0.265815934016205 -0.0419184729404369 0.301413867322726 -0.836119230485261 -0.0964715973941254 0.148435108082496 0.313615031067081 0.0739425747003023 0.93377482027308 0.596753506567054 -0.331805319419192 -0.761113248067191 0.773208739526246 -0.542822331646557 1.49408295836974 0.789370685642992 0.103097583925698 -0.815861776260121 0.0722068238534338 0.109663920894765 0.27135125915059 0.31902102977931 -0.122743887245341 -0.36732946210313 0.713262986089856 0.692804471701444 0.196729656456423 -0.151533542900392 0.919540943420246 0.044597046829146 0.231459842894601 -0.691937753273834 0.317904657363801 0.578567331977876 0.449802181351878 0.990273497483139 0.244726985458556 -0.189711576895451 0.284210624963969 -0.0115581311761404 1.10975234251186 0.111423582988672 -1.02810417562068 0.0805716465540734
0.197184741480709 -0.61238889102858 0.246033619409643 -0.559826313613324 -0.236981284079093 0.289616366566015 0.83952285509063 1.23010844748571 0.13481726722864 -0.0515719318793381 -0.518805412322482 1.95675890370526 0.206258674066649 -0.879868842150538 0.376466643794141 -0.427831344865809 -0.113287117596598 -0.302858569442198 1.91843328846504 -1.60019361653251 0.178102537903035 -1.32938434564813 0.561790635413069 -2.52416045464658 2.15576964170715 0.430343825576163 -0.473363758541483 -0.150035876083178 0.298249612297929 0.00127243829671929 -0.156118331687439 0.343950690253789 -0.433744621969517 0.363913496208967 0.24657997854897 -0.416660935845954 0.0638905949774215 0.448733888540629 -0.387609799134576 -1.01709394624496 -0.340267586879269 0.0375445145036237 -0.422694797625588 0.24409346596712 0.125743077532516 -1.76798423631744 0.211405248604017 0.0135137112296556 0.175938441490934 0.725481633326669 -0.0705096395340473 -0.299325104194307 0.307243583616889 0.710654603281164 -0.19417398123529 -2.00851029849248 0.154318303294768 1.28519996066304 0.204157569649436 0.215294554345474 -0.793954188879123 -0.0454524524086944 -0.534618459920609 1.27803892784021 0.0560399926432071 1.06398904389166 0.175157854974701 -0.428535826767812 -0.200141508587655 -0.785162820384534 0.682826282601145 0.54693455191686 -0.704150486976434 0.79328647373332 -0.707392646386745
-0.378470303451917 0.350779279609734 -0.122402187811852 0.144534746603161 -0.973347934122252 -1.36522344830651 0.584008554785204 -0.227232180152036 -0.750153155177203 0.355758218307646 1.01577959898838 -0.325053348897845 0.0476494589242463 -0.444816557789202 -0.771653994248359 0.646829571400461 1.90510058280436 0.401342568240329 0.262496384440747 -0.655572346070423 3.26146478552792 0.552769410414687 1.8282428928468 0.247401445584334 -1.04331507116972 0.444575388437348 3.31044684653175 0.371906537584682 -0.312859127128436 0.00899628531060978 0.694739225830119 -0.43242281851762 -0.592418371767906 -0.273419196354169 0.030998232128847 -0.156502197190976 0.251763062732353 -0.402593152171475 -1.60431123611666 0.0956596434355399 0.107475399015259 -0.623739020066502 -1.23816216686466 0.528634477516518 0.259675114400355 -0.787327173906818 0.514689335399432 -0.253701416403593 -1.34654439349611 -0.940970305860469 0.296443927481226 0.0912309205297025 -0.60000080818103 0.329704472112161 -0.217314926165159 -0.111680693171885 -0.369738841630016 1.83073789006469 -0.251814998989362 -1.73384283219882 0.848587788820157 -0.473050341228147 0.239716165097925 -0.769520751058244 -2.32948485144384 1.29492823866526 0.616128815753591 -0.393216086679527 -0.396655963820729 -0.461139969101005 1.0126042882257 0.6774542224331 -0.879586535169371 0.810182983643504 -1.26217728641745
0.039644076259738 -0.660005696959559 0.239838035324768 -0.592525072493939 -0.146892446983221 0.16600704644398 0.765424985839667 1.26282803229116 0.218687637433331 -0.0225927860192599 -0.655078180298289 1.91330933962379 0.0735018878462758 -0.745386075270258 0.409538983770964 -0.462261997940545 -0.709001127692923 -0.352130136512333 1.95416517617701 -1.19619278610795 -0.381591106855752 -1.28224653598848 0.442353185123842 -2.60044710288723 2.71616082639299 0.316809110873132 -0.586407907014945 0.0923249243592722 0.577351972141829 0.280619309924856 -0.288950194081311 0.66849470387869 -0.0600475690689423 0.258268721698182 0.276184416374621 -0.3819135230255 0.0972943499804058 0.562996739282519 -0.293814975857877 -1.28499555806739 -0.217573836119654 0.068361741063489 -0.0172598065990636 0.300115718007686 0.0208140977717949 -1.51705061103613 0.0622003526329817 0.0887132976156844 0.20179138463333 0.80095504205782 -0.235945901371295 -0.454864423749151 0.189938862297411 0.796546630856456 -0.318451530723494 -2.31687796783038 0.000671314688368166 1.1266419104471 0.389814518955624 0.144119513657272 -0.765659470326757 -0.0745010180182401 -0.579508612358617 1.31786812343186 -0.074829861942569 1.26898530695874 -0.000124698438858124 -0.53997509347766 -0.132798438070054 -0.754523514071451 0.91123962693486 0.43610823588379 -0.881579396199451 0.575032066958702 -0.447715217994741
0.682450130403105 -0.117709412747855 0.0213162339596092 0.423235757451067 1.09958620586764 -0.0365970634784852 -1.52284484612501 -0.660588822855085 -0.148897135081729 0.079479185385603 -0.241216145906788 1.00426209122119 1.23517917451903 0.144679242526126 -0.0784232338631487 -2.75621242229312 0.584172848192277 1.31468972734698 -0.478675397816473 -0.826638549589478 -1.19823372674229 -1.22090621691835 -0.492202735885839 1.43385875460494 -0.915732113166134 -0.608171512693344 -1.0016138563341 -0.536462197044426 -1.09040737232694 0.00777706882181551 -0.371580521872368 0.226984068825236 -0.61305712039475 0.0922452202024763 -0.641588637425855 -1.24921996162427 -0.536755045543105 -0.0394149910864955 -0.152546814132433 0.0584604279079708 -0.471542132893422 -0.820358119144143 0.236016349561496 -0.0939565455819395 -0.532950586162108 1.68253675224892 0.122801479926381 0.581052301898626 -0.376179194609309 -0.0758215359192202 6.3249105070306e-05 0.642588281818186 0.690514648409752 -1.37268375738261 -0.340191482265038 0.444456089312338 0.337919399575988 0.0505483762399687 1.2184824392212 0.612037164297946 1.11512003180679 0.0234080824102271 0.886856068489524 0.320409938989025 0.603652029892832 -1.11641432446909 -0.204589771867416 0.632636832176941 0.780560033884661 1.73035127591079 -0.0531012232490868 -0.0276352309324259 0.911508307076317 -0.379014605709778 1.36823883653523
-0.942122416591445 -0.155118944405292 -0.360168172170109 1.24135110446705 -0.475928175508846 0.540667234090869 -0.357147384627544 0.00536486108291465 0.178675893611599 -0.878326438161445 -0.342689050584765 1.42493677413727 0.752490286742606 0.921188248364089 -0.826831382226888 -0.872205673139886 0.25835099695681 -0.794200243324457 -1.59314468374955 -0.676610386811797 1.21453888323108 -0.747380736071621 0.125716852293829 0.957257721746622 1.43512425092671 -1.34918980017119 0.510093747984689 -0.312988967770959 0.78140746904853 0.123328298691783 0.0578842439873913 -0.467042961797384 -0.694532252132633 -0.289032983560305 -0.584425844612559 -0.00682781802539449 -1.48371241912986 0.0366991362212206 0.208526128772402 -0.936892538354717 0.244780464376664 -0.817061709485175 0.144124398750753 0.180688037905421 -0.199478421425149 1.37783573123382 -0.543593662196195 -0.902443887567156 0.0844313846244614 -0.407551264944547 0.681005428283633 0.825408277362806 0.600952115858917 0.143232997745555 0.706752956250912 0.106304005020543 0.900665713540058 1.06155832421957 -1.3718337511169 -0.305464638259241 0.148280584862386 -0.0833972874675802 1.18382321519359 1.03373103198029 1.79069066503768 -0.942388268520886 0.190044534582712 0.983708446064988 -0.426112820401216 0.124335399279427 -0.655664648626197 -0.522398270022696 -0.770399039444098 1.07719448001165 -1.26884415346816
-0.457554824706288 -0.352075629153492 0.122281603135925 1.59914177877299 0.603091529693429 -1.42086620571665 0.734137247644522 -0.743375987857902 -0.688852431075283 -0.355525790702022 0.604496379734502 0.142753230143681 -1.91114241499968 -0.409137377664786 0.927479220326936 2.20175354086454 0.520906516739696 2.69339886187318 -1.84012086909085 -0.196553535980923 -0.832176702935878 -0.181633689159277 -0.422015255411357 0.783140391683383 -1.87510688016133 -0.770883949249637 -0.842150521163062 -0.0290063995394988 -0.0414207076257372 -0.346160809388685 1.07731172225519 -0.778472299196975 0.352906609265635 -0.683088020767656 -0.79938409883839 -0.992120577039338 0.221146639225577 -0.220046978971976 -0.445062612234536 1.32610901902419 0.294647755741303 -0.115876474251732 0.108118174473291 -0.24419271049784 0.855898716879808 0.828023859256628 0.00805757603170048 0.159787294001883 -0.547699711822101 0.418186370562954 0.363040607136961 -1.17759137857288 0.0211719951468269 -0.825409562913722 0.804701908757777 1.60307839278816 0.168579176716839 -0.188825575204101 0.123061932541975 -0.000676199781849206 -0.00105132353915643 0.516555698219372 0.310952655119915 0.501813257424143 0.409896881145996 -0.991974538455274 -0.648636798878263 1.0116961750586 0.60477791538512 1.54871758675151 -0.716866642417764 -0.66063561690843 -1.05399182863781 -0.440421516317365 0.67696597019518
0.612080615918908 -0.14433702887227 0.11375711501151 0.111870954707462 1.00079547462093 -0.188508815458383 1.73609897405651 -1.13468868785111 0.148141231143084 -0.753496873109883 0.0705379216542007 0.0286675283180246 -0.31452083024254 -0.905500413425188 0.451153552474844 0.0633416647362625 1.2313430905855 0.65886772728866 1.88378023508182 0.654603812010262 1.6075222851948 -1.47572374862726 0.361784623891967 0.798166425010695 -1.35503982816982 1.43800517052961 0.247529229345391 -0.599569634403782 -0.733242504206942 -1.20919741917484 -0.538943053202245 0.0106980976132941 -0.585590810852695 -0.419306856741395 0.301855839727669 -0.616890890336634 0.087532647654372 -0.331859826778033 -0.341404785219618 -0.465205652428146 0.449498277115321 -0.556995787606336 -0.867745582791696 -0.448154362187668 0.745494832877757 -0.856601913230895 -0.810943515565447 0.740386310647505 0.165362728324849 -0.140060000974528 0.189122280355528 1.45800808567336 -0.213252328160216 -0.264950758249695 0.312992053093157 -0.224263843086846 -0.158859640460852 0.422287535095379 -0.422120927696657 -0.865715697895233 0.469037365488564 0.175264555700734 0.578276797470845 0.939263865574487 -0.297328643621661 -0.47663677117378 -0.284072042575218 -0.710443515820746 -0.131847130392167 0.489639090249025 -0.0334538914887108 0.10618290612425 -0.821069543021093 0.85526339761709 -1.01666997155285
-0.102354535496214 0.292052485551955 -0.0430453868734578 0.0768157809977034 -0.706755270242561 -0.129538795167284 0.83251300305552 -0.26780905215647 0.322268845613652 0.384269680744461 1.2149368897947 -0.474606886277316 0.287516033479351 -0.0881623104930598 -0.989633807347306 1.64290655993908 -0.519776260374293 0.0411276020168748 -2.41274072831066 -1.28257409436189 -2.43736134234491 0.307838022360477 -0.923928785806953 -1.31752359578635 -0.723546879197994 -0.0230800098164478 0.811559294454241 -0.431169663484642 0.449032393463339 0.339528395102532 0.268066676560049 0.186093008176917 -0.340121548295204 -0.845371854648533 0.69967882667 0.472429420135688 -0.347528378453193 -0.313447138117444 -0.00174269282181518 1.59683370065829 0.252565503614159 1.01168923308365 0.354300917789197 0.276258721217569 0.851026993128295 0.54963806549334 0.0202142597143599 0.0472470814875186 -0.69796698707017 0.173701068676618 0.100683576415515 -0.533884153237353 -0.381116995677907 0.178837101696473 0.624059379354785 0.957299373596303 0.914243445205333 -0.197590461349819 0.565472710346857 -0.290087135311477 -0.440781470573863 0.00519182592961255 -0.917905979765197 -0.0848715572581214 -0.834451099616577 0.702611425419723 -0.424543419842886 0.024765881287773 0.328418921196098 -0.302332007786979 -0.0430780398667258 -0.452458386654648 0.619924276278176 0.266915594269806 1.27235422168937
-0.377450347355112 0.352846702592946 -0.089302851265791 -0.495040460977956 -0.844019455084835 -1.24247159064549 -0.752934830249381 1.0964762010915 -0.787472955380699 0.396743381283021 -0.122945975849346 -0.270564759100143 -0.330532624012289 0.552141804457465 -0.675416367120957 -0.891849405357697 -1.42204736989833 -0.0308521935447823 0.1965309102848 -0.758023040775158 -2.08704023308166 -0.281443605172235 -3.93889535382416 -0.170595691883776 1.97750281039704 0.233129516424384 0.278653959684378 -0.408191983521113 1.36246697003229 -0.508207587680641 -0.38469057011438 0.721037483809839 1.16875630134714 0.194040541050202 0.162312116001031 0.364434401440156 -0.0847941670929744 0.752017461115678 1.68808698977393 -0.587820984581881 -0.263863696395072 0.112527871225571 0.463349316905351 0.581690963593726 -0.234563934136527 0.218828533813732 0.454304951990481 0.165177608992936 1.55884078599514 -0.118415951531323 0.779883576992629 0.287739719338746 1.6094734943752 0.808790217781041 0.13566958748599 -0.205274199175128 0.0267834248954424 -0.373856975434533 1.20546212243313 0.710703711326157 -0.289439474759965 -1.03947255948161 -0.534404801358359 0.463445219003689 1.83299660302422 -1.14217342239461 -0.490068978475357 0.0314718290863247 -0.429127694409567 -0.551004863227299 -1.75000503542575 0.524100339435563 0.406427436333725 -0.484865325477317 1.57429516488769
0.262636766600781 -0.0208464936548797 -0.127380355179214 2.03077552613833 0.523546009880557 0.661869488677667 0.443655448201814 -0.316948721702616 0.0797792329694121 -0.557146454173699 0.0013624268608437 0.738194703445801 -0.493984766565685 -0.499748148432579 0.336958321711139 -0.585724508147966 0.0625654490931436 0.902748048913897 -0.854589511826889 -0.647823816478944 1.30563533513497 1.32285451832508 -0.271895047188085 -1.05657835708093 -0.471646776737989 0.7783830819634 -1.70059025798356 -1.40699074045922 0.617116375967311 -0.0877177669862851 0.0360558465428226 0.0500742650621246 -1.46519534373489 -0.819161785461655 0.0493330164039226 -0.484979739508846 1.2053844751578 0.0526546228608465 0.182952407288975 -0.824861661113296 -0.707750286651594 0.397945114279357 0.465631426891547 0.69446643192573 0.578327191066755 0.628583233028411 0.853498079099152 0.432222529684898 0.209028779180582 0.00487275219224568 0.0707387247072897 0.125465398534647 -0.0475941802348556 0.0394368454520686 -1.15469211721523 -0.682268610613757 -1.0603679040713 0.488021352976252 0.0971801930590594 -0.0574828949913964 0.212086333479347 1.4634063710801 -0.206859026344451 -1.08832683672439 -0.719478367658838 0.36041396950526 0.821777881575844 -1.60409603489331 0.975123279937335 -0.616899117862496 0.447386888290779 -1.66273361171752 0.622067546765437 -0.177395227789017 0.847540064823566
-0.1836075240358 0.288836294270148 -0.105653259146831 0.403077804866831 -1.43163475152015 0.0535856188342594 1.75521948705148 -0.160832704006826 0.172418603082753 -0.679765642980182 0.390244407181956 -0.99625670855668 -0.148820002026766 -0.0218649070905849 0.12978253562097 0.217820147675172 0.0403773545022604 2.14388858014089 -0.470766945691035 1.26189677920757 1.2036875479486 1.20195025444063 -0.0218232552409045 2.08691090665951 0.535928179193894 -0.0343177817043052 -0.525106411582474 -0.324541442523068 -0.174672173838612 -0.504340907635307 -0.336656474356047 0.222245013928261 0.19810031084313 -0.388538224006157 0.840776267233791 0.335480709488216 -0.121896966301839 -0.680368052139449 -1.10649449938038 0.124375508468008 0.567917313968842 0.390207897535939 -1.03645177193904 -0.412889643678591 0.29940455124092 0.702125230063268 -0.603715536108086 -0.195182881594216 0.134132325700561 0.0732090393475967 -0.324895740355535 -0.106439759197279 0.154530933416285 -0.637425252229093 0.131285858862214 -0.868500715399792 -0.325323057480035 -0.593047520386227 -0.561490330719076 -0.92674568497423 -0.535506004273059 -0.733966012262503 0.516705079235819 0.6162512002008 0.448131222271179 -1.01364455602698 -0.372067745669556 1.23667041358166 0.368399040465295 0.0792202754311079 -0.0970737494432094 -0.283839100749227 -0.603280248567907 0.278314831352721 -0.953662807164943
0.249796169830776 0.0365104173467425 0.0431513162689414 1.65309480805906 0.322387373408113 0.546814224351116 -0.6510423217524 0.0724803890883721 0.232269739971721 0.0842789182858163 -0.196165042494088 0.564703693788868 -1.33206677618959 0.546318001697516 0.21398329241109 -0.152395633344704 -0.207035661040318 1.02174738345093 -1.24554302889415 -2.16902547142304 -0.305840790457281 -0.361722917447996 -0.138418866675082 -0.0752096136831741 -1.44742568764252 -0.720834366765101 -0.189585078685311 0.0972228733494727 -0.483324464149323 -0.913090820253991 0.681343271064375 0.130331722972312 -0.425932843272967 0.169199583588931 -1.02154220952473 -0.682363741381545 0.15529249377896 0.415600870560568 0.0954508699667713 -0.635711098637615 0.246568922811091 -0.858263102124631 -1.32089868116138 1.12451689478285 -0.733863682409584 1.42939377916326 1.16321943355166 0.449285132773437 0.238119767970358 0.317133326814163 -0.0559883134963814 0.262762493480372 0.909553498353352 -0.489011741401987 -0.888144447617603 -1.22508682849738 0.514558723426359 0.720530719638727 -1.55933803708948 1.04255942434126 0.214049112617992 -0.049153296385857 -0.0435122989661719 0.98585583031518 1.24387824045784 -0.20389943102549 1.12819228485187 1.05566021661667 -0.185184637899627 0.155192992138057 -0.516667284038886 0.708065503736212 -0.189373991224893 0.702432219622024 -0.270843209428562
-0.101488074178787 0.0186929387602907 -0.0188659739135928 0.0674824242369018 1.58385734971155 2.0573962002878 1.40484309909884 -0.718505462725561 -0.304777639849697 -0.269743806285145 -0.681731764551209 -0.880483849708783 0.0700581540523259 -0.75226814354431 -0.560229205270418 1.57015466249723 1.48782515362053 1.3298535717325 0.763138504980357 0.550012932140465 0.79578429916323 -0.726444253852617 -0.710561272284657 1.04535601180406 1.32439435121234 -0.0960584213297027 0.946646784485437 0.356685100518128 -0.687188928189897 1.40670869058823 0.211704781967459 0.642066348146264 0.610661110597392 0.985680224060045 0.460415946825078 0.368030858682934 -0.899091170778064 0.816818740362038 0.526230754413663 -1.58806470074964 -0.489894143550772 -0.988892044468737 -2.353298396613 0.065705021540353 0.201863889704996 -0.0607525651913114 -0.730027341365869 -0.857197123305032 0.482925943365344 0.131537055511213 -1.19555386730266 -0.856239902092931 -0.772701461134767 -1.921745124735 0.606563802717715 -1.16466593544242 -0.171007839507466 0.373458711760736 1.39914682298977 -0.628683763110047 -0.506681895853458 0.638228978661816 0.82327014907921 0.206254046083352 0.0223978965003847 0.234810759912412 -0.1725679840992 -0.465961813476975 -0.267976430885741 -0.782462906350618 -0.793164603506477 -1.55130102987243 -0.106508150506013 0.246024877663413 -0.99989893141207
-0.0332320054005983 0.072451335637669 -0.0684627853654916 0.0643359098147457 1.65460970125855 2.43153805380533 0.588999063441361 -0.982319536855273 0.208248192664349 -0.725604531994245 -0.43394413947169 -1.07385744694373 0.0512680276427808 -0.575215129409149 0.315083130213226 -1.25798201955797 2.05524213117284 1.07732406354399 0.973883494633883 0.384700083191159 -2.16778440056867 -1.68686443085276 -1.36191186914673 1.35565817816045 1.01456218227087 -0.800381172128889 -0.84912103534014 1.04188939520381 -1.15961911965613 1.44241898104482 -1.11950915974442 0.500891517417326 1.12907365855993 1.25084541220254 0.200969917597966 0.373293647023114 -0.2409770334364 0.618369016779923 0.800668621313721 -1.06681519902554 -0.240000014740192 -0.470132911979233 -1.56175307304039 -0.366322361515487 -0.0770842040289774 1.08973580052839 -0.516127609764323 -0.202056208122039 0.710974191238897 0.0231674272787401 -1.24089190567983 -0.172769558482839 -0.531942200023548 -2.16550794700651 0.48105289568064 -0.390879469334491 0.073223951738223 -0.0340778979033679 1.96166250911949 0.309436219259327 -0.716068829519255 0.807463015015298 0.59202010809411 0.986605049389061 1.21268409036939 -0.774437469091819 0.0713478187313205 -0.934952384912194 0.338197078573857 0.242044297806916 -0.603888828371571 -1.60839671692791 0.0481096861521969 -0.594707423729048 0.251549404170103
-0.240211359310793 0.367802287730058 -0.285746858308665 -0.490428932731855 -0.639310898312774 -1.05289551081659 0.32862795177505 -0.0553280545458914 0.127832611991485 0.468550398801559 -0.435300138577953 0.666630655050399 0.0160339052455058 0.192025311434182 0.914371743186756 -1.00525119409601 -0.163736763526213 1.23511746807506 -1.69091083091616 0.572829661129303 -1.27421569941583 -0.504848443136968 -1.35587620759581 -0.45576868026351 -0.124694839315559 -0.351061586590901 -3.59965800744902 0.615808713575492 -0.316133682421832 1.68698887218143 -0.551927888785032 -0.487624374853371 0.385154653995078 -1.07554846061872 -0.371024649656262 0.00621486734861559 -0.0111079312453351 -0.41625727285831 0.557282722570802 1.06443461583917 -0.0755438569213505 0.684911703297183 1.97850451167084 -0.82957346233085 0.384040595571218 1.20234954655516 -0.367406852268277 0.583924736865477 0.685264715578734 0.390166245686259 -0.217805235284545 -0.718413674390154 0.312293227615185 -1.54653600684695 0.876633624715174 0.698124081392113 0.158150530575552 -1.24380676382691 1.1704110624863 0.235889594241172 -0.148149972889314 0.925293526659445 -0.0471506651688138 1.01719884719971 0.495093168565515 -1.56041815696915 0.387115376252258 0.296173190458303 1.49225259097545 0.254041058955617 1.02761592338276 -0.0460219514645104 -1.08926297490147 -0.583650143189806 0.967452911841552
0.446474147140374 0.164701955153993 -0.0565560127809149 -1.33791628996786 -0.787109144471453 -0.0237847488286336 -0.769091634162462 -0.297513248733208 -0.661882601297011 0.131071171859232 -0.0224544607406915 0.364315102315146 -0.374425188939432 0.459687296565854 -0.0933567075245045 0.520542962940633 0.301252916348035 1.20079454416709 -1.54610406173916 0.447019220728784 1.09545753054561 0.736026236160585 0.798469557916703 0.711173194520703 -0.156098277093149 -0.675334348972512 0.0623589896160238 -0.347100547108327 0.246321068594474 -0.393675028356562 -0.0767957264034128 -0.76183341369037 0.208182886677813 0.26066473149554 0.658316225945669 0.67602160449224 0.123331384013982 -0.172249167472016 -0.756432557181805 2.38179391821845 -0.504151931650645 0.495577821260871 -0.434779747567131 -0.253034986808706 -0.778597511856199 1.87322689050168 -0.98432731027598 -0.4048472371477 -0.275910851139683 -0.478920166710891 0.885967752806525 0.233676132673894 0.297184919029245 -0.433665946253454 1.25619613222538 2.37544278247273 0.155871505911555 -0.199900339235801 -0.180116996188506 -0.613166392222615 -0.875505425231236 0.00546076318125296 -0.300801173756131 -0.0119936758265026 -0.542108079557592 -0.664280410865652 -0.736154534142009 0.55405496133075 0.317493023960477 -0.497335683583495 0.16147008015101 -0.789640394225182 -0.32389172509009 -0.810228235035749 -0.202526462647135