-0.200943227993956 -2.27816358484714 -4.66043028781163 -2.27816358484714 1.57123078274792 0.343782390061948 -4.66043028781163 0.343782390061948 0.0459990521913875
-1.51188380116949 -0.293829007294425 -2.10488416134552 -0.293829007294425 -3.48320932283573 3.01308291116465 -2.10488416134552 3.01308291116465 -2.60973581933321
-4.20402672037293 1.50235530324872 -1.48181027346071 1.50235530324872 5.32886710126684 0.351833635119787 -1.48181027346071 0.351833635119787 -8.00999348860303
-3.91787572687567 -2.56344270630366 0.199600655663244 -2.56344270630366 -10.1197532421265 2.56914558217975 0.199600655663244 2.56914558217975 -3.14798748360316
-7.78028211345125 0.584361501375866 -4.23274237943493 0.584361501375866 -10.7253606535712 1.24887878391391 -4.23274237943493 1.24887878391391 -10.3814664956819
-0.843279491074696 0.512950263679194 1.74564225859412 0.512950263679194 -1.38845699645101 -3.67927676042144 1.74564225859412 -3.67927676042144 -3.17706891064129
-3.78165285608442 4.03282233682435 -0.756330571216884 4.03282233682435 0.888970634079546 -6.29899192147793 -0.756330571216884 -6.29899192147793 -2.31132364860682
0.139869269773831 0.368501729981055 2.36970820520664 0.368501729981055 -1.3206886819029 -3.31920536347899 2.36970820520664 -3.31920536347899 -3.16588712545767
-3.26713484496253 -3.67552670058285 0.24289973112058 -3.67552670058285 -0.640614675482849 -1.08370649269182 0.24289973112058 -1.08370649269182 0.702006915216622
-2.12793924948028 -0.28686504972873 -1.24593626076209 -0.28686504972873 4.74397724029004 0.301850537401126 -1.24593626076209 0.301850537401126 -3.41240962139996
7.00523820151352 2.32062859970051 -3.69515477029235 2.32062859970051 7.53056731309408 3.31008343122117 -3.69515477029235 3.31008343122117 -2.85105799391777
-2.9500323498916 1.00823890439333 0.434769686286013 1.00823890439333 -12.2615720727411 -5.23590732625425 0.434769686286013 -5.23590732625425 0.456108075796983
-3.31700330800383 -0.51706988433419 -4.22704630443201 -0.51706988433419 -1.90281717434982 -0.100828627445167 -4.22704630443201 -0.100828627445167 -1.95193881336157
-1.32779284654507 -2.88518320613857 -2.17426078621756 -2.88518320613857 6.25169131914973 -1.24203955853904 -2.17426078621756 -1.24203955853904 -7.52969193394936
-5.18359443714334 0.772449382816509 0.950092780931934 0.772449382816509 -5.347265882598 1.29140762450202 0.950092780931934 1.29140762450202 2.61874312727457
-7.07616664530972 1.30576776769804 -2.35872221510324 1.30576776769804 0.476957088799882 -0.969552114937465 -2.35872221510324 -0.969552114937465 -3.92772859465258
-5.80627793679512 0.160296016659988 -3.10160070330993 0.160296016659988 -4.06592118448668 1.59023826051575 -3.10160070330993 1.59023826051575 -6.7731427991887
-6.91553416368513 -0.75033410236615 2.46770529695149 -0.75033410236615 -0.105642707553357 4.71329002930362 2.46770529695149 4.71329002930362 -2.40269439999558
-4.70973925011601 -1.4788905682052 3.64450545875797 -1.4788905682052 3.66343093220849 7.76214775377903 3.64450545875797 7.76214775377903 0.386620386203553
-0.996169966082181 -2.54195094793384 6.12587277993066 -2.54195094793384 -3.76426294654617 -3.68983645482739 6.12587277993066 -3.68983645482739 -5.36443251850002
3.28779656188577 -2.48606903557933 -3.44719046177459 -2.48606903557933 3.00469396357578 -1.37744877665113 -3.44719046177459 -1.37744877665113 -1.42502904527466
-5.78973975988253 -0.7081754514889 2.46780224125712 -0.7081754514889 -9.76038761574969 1.40553906402377 2.46780224125712 1.40553906402377 -10.2063759726034
1.43133197347177 -4.59573617428234 4.03609826753752 -4.59573617428234 -10.6563310169106 -2.96324403156589 4.03609826753752 -2.96324403156589 1.97549602104392
-6.4613865480267 2.80441172619063 -0.918355746113257 2.80441172619063 -2.44529350905381 -0.466031274147026 -0.918355746113257 -0.466031274147026 -5.34839421094616
0.119198781657818 -0.993996619926212 -0.644481548285491 -0.993996619926212 10.798601490865 -2.20416730150304 -0.644481548285491 -2.20416730150304 -3.63657299973004
-6.02635192671762 0.0162654572920853 -0.0948818342038311 0.0162654572920853 3.67870425755997 -0.615376467550562 -0.0948818342038311 -0.615376467550562 8.55020871653953
-2.40110456035685 0.634405552736424 0.610314202632509 0.634405552736424 -1.0278976044337 -3.63511704901293 0.610314202632509 -3.63511704901293 -3.88406100008671
1.19005599666531 -5.12579674380679 1.18746328207562 -5.12579674380679 -11.1616363085929 -3.07755221795582 1.18746328207562 -3.07755221795582 1.52451617873464
-7.01759843080591 0.378114760966558 0.840842615296263 0.378114760966558 0.158649550055899 2.43262643419044 0.840842615296263 2.43262643419044 -6.1027193588169
-4.4792357862622 0.0278080540694406 -1.09520951411951 0.0278080540694406 3.44178146136384 0.203212702815143 -1.09520951411951 0.203212702815143 -3.79472983993751
0.125549858479123 0.658054430649198 1.87458926625726 0.658054430649198 -1.33775538862238 1.98715120834199 1.87458926625726 1.98715120834199 4.93973753533378
0.388407778406649 0.852867429508306 -2.7079898956044 0.852867429508306 -4.87818440572267 -1.74647693367465 -2.7079898956044 -1.74647693367465 1.12991353718298
-3.03265541059629 -1.16878230595137 -1.75317345892706 -1.16878230595137 -2.48945482346911 0.180208725587216 -1.75317345892706 0.180208725587216 0.944808604150117
-1.30953101572059 0.563527691191236 1.43565387993958 0.563527691191236 -1.37393418042816 -3.76490167019668 1.43565387993958 -3.76490167019668 -3.27919446969376
5.08556048454355 -0.118268848477757 1.82134026655746 -0.118268848477757 -13.1409831641952 -1.91069895207399 1.82134026655746 -1.91069895207399 0.733266860562094
7.26949995786632 1.35393406846547 5.87711745743631 1.35393406846547 -2.30141328473441 -1.04360029618028 5.87711745743631 -1.04360029618028 -1.89495843253788
-4.03417531843191 -1.87199390657842 1.20911460531281 -1.87199390657842 -10.9389309586535 0.850647687031834 1.20911460531281 0.850647687031834 -1.48792220842023
-16.3049410233911 0.105489830775092 -4.47385077184619 0.105489830775092 -4.94449770915045 0.895311127860392 -4.47385077184619 0.895311127860392 -1.34702399297425
1.54609277981046 -1.51298041385076 2.24145246496409 -1.51298041385076 -1.06978413100559 0.468667333583401 2.24145246496409 0.468667333583401 6.6937921340064
2.24608392313398 -2.5423758449091 -4.18153921860049 -2.5423758449091 2.33688306045216 -1.13259976549522 -4.18153921860049 -1.13259976549522 -1.15649427531579
-8.71174312868865 3.40965227321335 -2.48246612874305 3.40965227321335 -3.15678332472145 -3.05617954951499 -2.48246612874305 -3.05617954951499 2.40089550019728
8.99371012155017 2.71105910522596 -1.9647563178323 2.71105910522596 5.14035083153799 7.40464364226978 -1.9647563178323 7.40464364226978 -1.82260340594779
-2.07919819522559 0.0372234971012255 -0.220682161385837 0.0372234971012255 1.28421064999228 -1.96221006147888 -0.220682161385837 -1.96221006147888 -5.38677179479163
-10.3511316572071 2.8738010258825 -2.75666979923516 2.8738010258825 -3.3586698245622 -3.22247072380948 -2.75666979923516 -3.22247072380948 1.80327609396608
-4.38860554499236 1.2424727578449 -0.75307432428863 1.2424727578449 -4.13092228814028 1.03073302740831 -0.75307432428863 1.03073302740831 -0.0199754462676029
-3.01080238356702 0.45141039920984 -2.86593113916945 0.45141039920984 3.74355693856346 -2.12687783441659 -2.86593113916945 -2.12687783441659 -11.375542060088
-2.95774503314984 1.92028503578074 -1.37484536236718 1.92028503578074 -11.5470141170593 -4.23418633072592 -1.37484536236718 -4.23418633072592 1.83875023923954
-6.45471117587288 0.274069085642221 -3.72170449942194 0.274069085642221 -6.92600754744455 1.51122206101786 -3.72170449942194 1.51122206101786 -8.56529927465036
-0.568777315477852 1.37730829756969 -2.32612068033991 1.37730829756969 2.20114270519007 6.16217934616363 -2.32612068033991 6.16217934616363 4.26965572246603
0.530085543986987 -1.57496570280749 3.2416769805358 -1.57496570280749 -0.468921827373104 0.186039638033894 3.2416769805358 0.186039638033894 7.41355215124108
10.0614127434657 -2.60075449367086 4.29739380871885 -2.60075449367086 -1.01115148440443 2.30014189019928 4.29739380871885 2.30014189019928 0.14347419711144
-4.64935775575137 -0.0629994275847069 -2.2578994846359 -0.0629994275847069 -0.755993131016483 1.84462323968022 -2.2578994846359 1.84462323968022 -4.09496279300595
6.13119565188452 0.45260328417345 -4.6102381039063 0.45260328417345 1.02625163271887 -3.05770358261366 -4.6102381039063 -3.05770358261366 2.33932743971045
10.1514025050989 2.21157368232645 -1.93734870219871 2.21157368232645 5.4514910401319 6.43666967244265 -1.93734870219871 6.43666967244265 -2.2471213649356
-5.80387195224263 -1.76580066471533 -3.98879312944223 -1.76580066471533 6.21999862051663 -0.246390790425395 -3.98879312944223 -0.246390790425395 0.862367766488882
8.98923070023866 0.122408439839843 0.587560511231247 0.122408439839843 -1.07051744659936 2.43704075681142 0.587560511231247 2.43704075681142 -2.57280284463379
-0.316018795385483 -0.308311019888276 1.39510736499445 -0.308311019888276 -1.10735041309873 5.06657776016401 1.39510736499445 5.06657776016401 1.56981694293114
1.9673076161392 -4.7610403603263 0.135138700183934 -4.7610403603263 -11.5231730118378 -2.54684473423568 0.135138700183934 -2.54684473423568 0.977156755176139
-2.31533898413006 1.86456502261801 -1.32670972763205 1.86456502261801 6.19558075510023 -0.143428078662924 -1.32670972763205 -0.143428078662924 -7.40703577666386
2.78959257061704 2.43358257983638 -3.20408991702596 2.43358257983638 4.08902903696646 6.761646896327 -3.20408991702596 6.761646896327 3.31852169977688
-0.703244070705142 -0.110363120585113 0.949636153871907 -0.110363120585113 -0.718643575903064 5.25636444089099 0.949636153871907 5.25636444089099 1.99166933893135
-13.4658013787689 -0.990056025725775 -0.30663152502793 -0.990056025725775 -6.09625048911462 1.7566348382956 -0.30663152502793 1.7566348382956 -5.50637458927275
0.986281898940065 -1.34660355268617 0.328760632980022 -1.34660355268617 2.39863757822224 0.0841627220428855 0.328760632980022 0.0841627220428855 -4.0003593821009
-3.93625173812048 -2.45061655995174 4.41056462069179 -2.45061655995174 1.13671535650709 0.425246032650135 4.41056462069179 0.425246032650135 -4.29334936810233
-3.11028080631446 3.60893995732683 -0.169037000343177 3.60893995732683 0.76348378488335 -6.61779856343539 -0.169037000343177 -6.61779856343539 -2.70177472215178
-7.3237570487959 -1.80971098089812 -1.23124031544975 -1.80971098089812 -5.46097536464564 -0.758911056505662 -1.23124031544975 -0.758911056505662 2.40675639248474
0.984771077680676 -5.02982812904618 2.92071212015529 -5.02982812904618 -10.7161703098795 -3.32909487677877 2.92071212015529 -3.32909487677877 1.92301753751817
4.90625121072794 -0.360258276963119 -0.679047975283001 -0.360258276963119 2.24189503289998 2.07861250449224 -0.679047975283001 2.07861250449224 1.99567534720577
-10.0196748470741 2.46190702497611 0.995413322910473 2.46190702497611 7.2689750679203 -3.16647941814731 0.995413322910473 -3.16647941814731 -1.58733606019674
-4.88004905888338 -2.48725081065669 -2.96523802052973 -2.48725081065669 -9.45098064072313 5.11474936552763 -2.96523802052973 5.11474936552763 -5.08612737691248
0.619126183794081 0.271877150274792 2.67301000220662 0.271877150274792 -1.27055460326437 -3.05525312437514 2.67301000220662 -3.05525312437514 -3.27060136221656
0.550163667948087 1.8211436230689 -2.91382979691024 1.8211436230689 3.03863544380587 6.34980566756751 -2.91382979691024 6.34980566756751 4.30706834490841
-17.2935044975037 0.544144396367914 -5.59846075467088 0.544144396367914 -5.31149903320322 1.21281935110858 -5.59846075467088 1.21281935110858 -3.63575086727417
4.17812053496169 -3.21976413725485 -0.464815909514487 -3.21976413725485 -12.1609420820729 -1.67385953931903 -0.464815909514487 -1.67385953931903 0.104453013374042
4.88257903837964 2.78493519195908 -4.12885804606044 2.78493519195908 7.39668567038674 3.44667667335119 -4.12885804606044 3.44667667335119 -3.00721901003288
10.5207175463486 -1.36132700133331 0.291892665720266 -1.36132700133331 8.73161681077003 -0.533459009764624 0.291892665720266 -0.533459009764624 2.21939078590754
-3.94309606617872 -0.454248967405729 -0.123641730773157 -0.454248967405729 -6.89705828617219 2.83569621664523 -0.123641730773157 2.83569621664523 -7.18734756711786
0.678904757864259 1.71799181093131 -1.08313812514221 1.71799181093131 3.94645781002773 2.81149489420886 -1.08313812514221 2.81149489420886 -0.0647809883458262
10.3042498610151 0.759190822914797 1.98846201001812 0.759190822914797 0.765811673114635 3.09414399339112 1.98846201001812 3.09414399339112 -1.41024109256557
-2.48797449372942 -0.353511984039057 -1.46225411579792 -0.353511984039057 -4.83133044853378 3.14143603998344 -1.46225411579792 3.14143603998344 -4.42157792157942
-1.06571008516366 -1.2788521021964 0.930546854850224 -1.2788521021964 -9.98388399296008 -1.01112493446016 0.930546854850224 -1.01112493446016 -0.480869184768971
-4.98673530887663 0.448387124411596 -2.00726572516967 0.448387124411596 3.10728086683363 -2.60441680207296 -2.00726572516967 -2.60441680207296 -10.91005493837
-17.1910373950203 0.723063482115692 -5.78992406278408 0.723063482115692 -5.12102263925383 1.3080137148385 -5.78992406278408 1.3080137148385 -6.31800413399217
4.29632923052075 -1.23937560180381 -0.0181498519092609 -1.23937560180381 -4.07075249964851 -0.469303313653745 -0.0181498519092609 -0.469303313653745 2.39837328800947
5.65767753999173 -1.722567586601 0.803864873747133 -1.722567586601 -6.73204932363472 1.0182288400797 0.803864873747133 1.0182288400797 2.35034777371781
-5.698948560266 0.858670752362535 4.64885439177169 0.858670752362535 0.773897525218463 -2.23145010805041 4.64885439177169 -2.23145010805041 0.207831137514499
2.90937868802036 -1.00376112353767 0.555380520129982 -1.00376112353767 4.01504449415069 -0.603785244361494 0.555380520129982 -0.603785244361494 -0.00764285119444929
-6.27058414944511 0.0956715105625888 4.7863089998598 0.0956715105625888 0.645099328364884 -2.09930628891623 4.7863089998598 -2.09930628891623 0.297948418609205
-3.9086608860096 -1.12910867336007 5.34300707154595 -1.12910867336007 2.67150353577298 6.78005447400422 5.34300707154595 6.78005447400422 2.95243009565204
-7.48459862228692 4.35629514598395 -5.255549840189 4.35629514598395 6.25660695260596 -0.846232601386365 -5.255549840189 -0.846232601386365 -7.77091792350787
1.74652523777483 -1.05669944119809 2.6766274354064 -1.05669944119809 -2.83422808556064 4.19062712377334 2.6766274354064 4.19062712377334 -1.13679157488303
-0.418767477935726 -2.62908323896072 -0.984519567332336 -2.62908323896072 5.2526198888097 -2.12711692434902 -0.984519567332336 -2.12711692434902 -8.74419773464466
-2.79529037302003 -0.296002203404515 -1.12995623734419 -0.296002203404515 2.203285966211 0.162157728821604 -1.12995623734419 0.162157728821604 -0.0411829152562803
-7.65205182396081 1.53667184599827 -1.58102400454151 1.53667184599827 0.438303684427349 -0.910523725387767 -1.58102400454151 -0.910523725387767 -4.14040444753692
9.75286049586575 0.551797833099426 1.03046583289652 0.551797833099426 0.0443211110923233 2.77450155437944 1.03046583289652 2.77450155437944 -2.17395049907846
-0.23972730609951 2.0963387831255 -0.461602578766078 2.0963387831255 6.66390905146829 -0.645223494076341 -0.461602578766078 -0.645223494076341 -6.12069717700876
-9.21789120167394 3.30581475302976 -2.46336518693508 3.30581475302976 2.79607944594968 -0.403096121498467 -2.46336518693508 -0.403096121498467 -3.71317644195149
9.22736949876232 0.286688503212991 0.668939840830313 0.286688503212991 -0.693386147305839 2.54686065645029 0.668939840830313 2.54686065645029 -2.49130086900592
5.20212160076228 -1.28175718883889 0.849325975634659 -1.28175718883889 1.93428812133869 1.9757186567355 0.849325975634659 1.9757186567355 3.25229702864979
0.113536542874512 -2.35769501798987 -4.75887211622955 -2.35769501798987 1.5822645868682 0.050729093624782 -4.75887211622955 0.050729093624782 -0.159434294249315
0.0181871702044 -1.18476423045806 0.670327130390742 -1.18476423045806 -9.07539793199559 -1.06784670771548 0.670327130390742 -1.06784670771548 0.114319355570514
-4.52590663280262 2.9749392255019 -2.26160229949599 2.9749392255019 -5.53916931178828 -0.194546434365247 -2.26160229949599 -0.194546434365247 1.55096740730072
10.7613259777133 -2.25028368745 4.75366676714897 -2.25028368745 2.38603699783809 1.75098761364974 4.75366676714897 1.75098761364974 -0.839829801553424
-6.88771257914738 0.385200964293087 1.57273761587022 0.385200964293087 -6.46658613631919 1.10570639491384 1.57273761587022 1.10570639491384 3.59653957334789
10.2342825734859 -2.00381838314239 3.94053430310796 -2.00381838314239 4.04697269297465 0.983398167246556 3.94053430310796 0.983398167246556 -1.37675743414518
-0.473529672728077 -0.119989419333811 -1.47415572324397 -0.119989419333811 5.72949477318949 0.477815009132856 -1.47415572324397 0.477815009132856 -2.66762191197491
-11.7551100793094 -1.64394380763392 0.679983096343032 -1.64394380763392 -12.0703512848937 0.737299679176544 0.679983096343032 0.737299679176544 -4.66869620171155
0.754191182116143 2.61642351877963 -1.7847469412406 2.61642351877963 4.74468904639505 3.09683297040156 -1.7847469412406 3.09683297040156 0.21437626067
-6.67087154608666 -0.179339112847951 -1.76078401705261 -0.179339112847951 4.39924278334595 -1.20102860422416 -1.76078401705261 -1.20102860422416 7.80125140888587
-11.8215957235993 -0.409338620278037 -0.512968650728173 -0.409338620278037 -1.66844349024719 1.9067925602825 -0.512968650728173 1.9067925602825 -7.12456459344685
-5.28533126314859 -0.156963242838002 1.87273386282582 -0.156963242838002 2.86863857600487 0.879535412454322 1.87273386282582 0.879535412454322 7.88063729559073
-4.81372672205703 3.25148823442375 -5.36834255371004 3.25148823442375 6.21296742710528 -0.715496759918768 -5.36834255371004 -0.715496759918768 -9.17868032842537
-3.54998909499753 2.00416385154632 1.2725301727858 2.00416385154632 1.13303581380034 -3.49874626924777 1.2725301727858 -3.49874626924777 -7.46437161754895
1.18667980752999 -0.43033443569769 1.12147762030307 -0.43033443569769 -4.34768184429121 3.46093209800506 1.12147762030307 3.46093209800506 -5.68823881367674
-10.4193311539302 -0.0188560801648167 -2.29505432863198 -0.0188560801648167 -1.49771151023402 0.172398447221182 -2.29505432863198 0.172398447221182 -13.9319495160617
-6.34201677991431 -0.0968446639937389 0.677912647956172 -0.0968446639937389 0.827105778973554 3.37385869967377 0.677912647956172 3.37385869967377 0.0837575472378282
3.66762532851459 -1.15942611163085 -0.0181565610322505 -1.15942611163085 -5.07864950016377 -0.713293469124125 -0.0181565610322505 -0.713293469124125 2.0646603688102
-3.58913374202695 1.15578889690412 0.337354617576504 1.15578889690412 -4.22591553496722 1.42128099239332 0.337354617576504 1.42128099239332 1.85644848725532
-1.54203890739984 0.534773938638663 -1.73533069244996 0.534773938638663 5.1050508118237 0.829006989214956 -1.73533069244996 0.829006989214956 -0.382288197099125
-2.34807405772876 -0.956072348400105 -2.18707741874946 -0.956072348400105 1.81554671341263 2.32330534403963 -2.18707741874946 2.32330534403963 -0.331900763434233
5.29524495917548 -1.4060234781576 0.885561748673845 -1.4060234781576 1.49665114249556 1.7529979644801 0.885561748673845 1.7529979644801 3.29366825822553
1.65933476027913 -4.92087538455236 0.444047330215543 -4.92087538455236 -11.4101986489304 -2.73699348565603 0.444047330215543 -2.73699348565603 1.17373914185629
-8.34046302418745 0.772841412067121 -4.20653949789554 0.772841412067121 -11.4966643613877 1.04255787802343 -4.20653949789554 1.04255787802343 -10.5734041509988
-1.68217654608782 -2.56768345024649 4.4733860109763 -2.56768345024649 -7.15856390481666 -3.79707653077745 4.4733860109763 -3.79707653077745 -3.47611609949664
-4.86677739268632 2.32547788940998 -2.55748612431631 2.32547788940998 -6.34515544767085 -0.223914924386344 -2.55748612431631 -0.223914924386344 0.701420245065656
-9.83638973456677 1.13296549134117 -0.299902630060897 1.13296549134117 2.31174944005275 -3.56134373197315 -0.299902630060897 -3.56134373197315 -7.79746838158331
9.7014197216527 -2.49004619435026 3.69534658559911 -2.49004619435026 -1.76368814312685 2.24717022097243 3.69534658559911 2.24717022097243 0.0771755429424876
-2.84988717281375 0.645554552957811 -1.22025555742025 0.645554552957811 -5.56593986513625 2.06787393386486 -1.22025555742025 2.06787393386486 -3.99404077073898
8.53980490295019 -0.932674938206164 1.10082546793083 -0.932674938206164 -2.38325350796431 2.05592047676695 1.10082546793083 2.05592047676695 -2.03798442026299
-5.97566972661195 -0.684712156174286 2.87957997695431 -0.684712156174286 -10.0027514988939 0.88769006808366 2.87957997695431 0.88769006808366 -10.0189897318467
-2.32634925738644 -1.42764921314223 0.279880870921768 -1.42764921314223 -2.60109469948396 0.302990300630905 0.279880870921768 0.302990300630905 2.90665271452699
-3.96374356394553 2.82341346532773 0.890882889545157 2.82341346532773 -1.82562462903715 -0.413917896373289 0.890882889545157 -0.413917896373289 -4.90122648155921
2.03000307854698 -1.09028298336283 0.212864772942267 -1.09028298336283 -7.11020259864474 -1.01759745113864 0.212864772942267 -1.01759745113864 1.20190719356426
-1.38170999954714 -3.63903854531891 -0.401659883589284 -3.63903854531891 0.870263081110115 -0.747087383476068 -0.401659883589284 -0.747087383476068 -0.797964302064044
2.69494986004979 0.611690944978742 2.33896578551298 0.611690944978742 5.42750367163515 -0.358491004639181 2.33896578551298 -0.358491004639181 5.50772543491105
-6.9545772767776 -2.09779154205968 -0.894880695790016 -2.09779154205968 -4.90989438135234 -0.828494887496988 -0.894880695790016 -0.828494887496988 2.29694896693876
4.32768676997537 1.29969757014694 3.22837083805236 1.29969757014694 -5.03458866037649 -1.92589018959675 3.22837083805236 -1.92589018959675 -5.79158596033359
-9.20777389438736 5.01179940398242 -4.81421680772537 5.01179940398242 5.84249612588031 -0.968792084873244 -4.81421680772537 -0.968792084873244 -6.24828403862327
6.19608132182277 -1.40451270551956 0.970989830711179 -1.40451270551956 5.45326142522127 -0.578030499744514 0.970989830711179 -0.578030499744514 0.562819170803869
-5.60501162731734 -0.109058085938586 -5.42420480062968 -0.109058085938586 -12.4326217969988 0.757666702310178 -5.42420480062968 0.757666702310178 -0.487891437093675
-11.541257689347 1.72755932708465 0.329750219695629 1.72755932708465 2.65666686434025 -3.7724254693481 0.329750219695629 -3.7724254693481 -4.95662279919844
-12.6859621458908 0.078325080313143 -3.28695250831362 0.078325080313143 -2.56582159646503 0.653609290888986 -3.28695250831362 0.653609290888986 -12.8642192252241
-4.15037309224978 -1.57202487672201 1.37587710729376 -1.57202487672201 -11.1804228574099 0.298485736086457 1.37587710729376 0.298485736086457 -0.898299929555432
-5.84565675519811 -1.54527169742608 -4.6272143221627 -1.54527169742608 -10.507274157823 4.97411205015631 -4.6272143221627 4.97411205015631 -4.82789895819206
-3.25787458925328 2.80029254013192 2.28517023333661 2.80029254013192 -0.928864159593659 -0.748023349761265 2.28517023333661 -0.748023349761265 -3.73463672426595
0.398000128463739 -1.83135723446951 0.782084168519656 -1.83135723446951 3.50128784340828 -3.618182986034 0.782084168519656 -3.618182986034 -9.61045065444261
5.13381792320309 -2.1757365800029 1.90728494557246 -2.1757365800029 -9.0199749168628 0.483212941974793 1.90728494557246 0.483212941974793 1.62604989997867
-7.34175379386487 -0.425491083660681 2.42286005600413 -0.425491083660681 -1.89438386929182 3.37411719208629 2.42286005600413 3.37411719208629 -2.96759704846144
-10.3180071793493 -1.7795956827009 1.15947302899254 -1.7795956827009 -12.9079312036607 0.39865027738395 1.15947302899254 0.39865027738395 -4.48155867385879
4.41616797083649 2.74930595192467 -3.03643309847503 2.74930595192467 4.57116581100969 7.12990064796731 -3.03643309847503 7.12990064796731 2.07595467904109
-3.61183256737983 2.5411528601429 3.43658064599066 2.5411528601429 0.0739344043360541 -1.35820239076603 3.43658064599066 -1.35820239076603 -2.1605275933758
2.02280864189727 -1.1226329291348 2.69794042646912 -1.1226329291348 -3.12216116466752 4.06372426652251 2.69794042646912 4.06372426652251 -1.82363183188948
7.29898628882801 2.96783129448346 -2.33821439026456 2.96783129448346 4.99631478831775 7.65695396421054 -2.33821439026456 7.65695396421054 -0.553453569031133
-4.9913696178558 1.37237250185445 0.349700844916985 1.37237250185445 10.5194893697702 -2.8911314039067 0.349700844916985 -2.8911314039067 -3.12494301533376
1.05330829434857 -1.33961902772511 0.315204477111791 -1.33961902772511 2.38242050616995 0.315204477111791 0.315204477111791 0.315204477111791 -3.66425204642457
-11.7192118273606 2.45584415682918 -3.02951186865802 2.45584415682918 -3.44473802198175 -2.46677116086401 -3.02951186865802 -2.46677116086401 -0.428884908367276
0.805122275817445 -1.55164387966084 2.93512930930917 -1.55164387966084 -0.568171732618007 0.254785530321976 2.93512930930917 0.254785530321976 7.2588397588731
-13.238771026386 -0.86994670338158 -0.342784969690653 -0.86994670338158 -4.99375376299337 1.84636449583374 -0.342784969690653 1.84636449583374 -5.86629732220594
-8.09818797868955 0.271737864569894 -0.643379355819895 0.271737864569894 -6.06415013948255 0.23177641389785 -0.643379355819895 0.23177641389785 -0.119884352016129
2.47517344612098 3.17211669389003 -4.06379408441809 3.17211669389003 6.70039188572087 3.54364893994339 -4.06379408441809 3.54364893994339 -2.20613285415131
-9.84364336568904 4.92607747331823 -4.06002411191844 4.92607747331823 4.86436851144945 -0.910739161373737 -4.06002411191844 -0.910739161373737 -4.86224061621259
-2.87858872462958 -0.24398447182734 -1.17711806583366 -0.24398447182734 4.31895319427694 0.261106189148557 -1.17711806583366 0.261106189148557 -3.58057913479947
-3.94944394984396 -1.21292772467848 5.17587866477498 -1.21292772467848 2.9256140887011 7.13979504749493 5.17587866477498 7.13979504749493 2.51230018697324
-7.90949061619212 1.74170691350285 -0.937440452694939 1.74170691350285 -0.0470025853718911 -0.775542658636203 -0.937440452694939 -0.775542658636203 -4.51747070518731
-4.85261940860047 0.757426908273108 0.113048792279568 0.757426908273108 -12.1725287087025 -3.00709787463652 0.113048792279568 -3.00709787463652 2.55490270551825
7.25427830821584 -1.47059863819728 0.954243866782056 -1.47059863819728 6.05451280992753 -0.566977788220638 0.954243866782056 -0.566977788220638 0.827686324768521
-7.18466817681578 0.0949276656053425 2.44370933458325 0.0949276656053425 -5.93433520984255 0.637371469064442 2.44370933458325 0.637371469064442 -4.48329803558946
-9.49579575115967 -0.251464956840294 2.55256888729156 -0.251464956840294 -7.73753680690333 0.672568971866501 2.55256888729156 0.672568971866501 6.24072158761587
-1.79120746754314 -0.917029660416825 4.75084213480741 -0.917029660416825 -0.522792610144171 -3.18532109459427 4.75084213480741 -3.18532109459427 -7.16768666039194
1.13364832910437 3.23899522601248 -3.22100080809018 3.23899522601248 5.83790330021772 3.38295056939081 -3.22100080809018 3.38295056939081 -0.742912397077465
-0.534910613645124 -0.751036114107801 -3.39317035726402 -0.751036114107801 -2.35036481753161 -0.934742789501076 -3.39317035726402 -0.934742789501076 -1.8613808727348
-7.48316533817193 0.500770636635169 -4.1945994048049 0.500770636635169 -10.1496399136571 1.33194664177189 -4.1945994048049 1.33194664177189 -10.1651276653057
1.40386219271937 -0.954832741371631 2.57546777267267 -0.954832741371631 -2.52643582108872 4.33287614260262 2.57546777267267 4.33287614260262 -0.500642031962423
-2.72011522950816 0.571634049024316 -0.552220062453679 0.571634049024316 1.00737019205417 1.18641029042783 -0.552220062453679 1.18641029042783 3.42764718452694
1.99461200975727 2.2413943630053 -3.18781740845135 2.2413943630053 3.77805973786932 6.6020639863777 -3.18781740845135 6.6020639863777 3.78569218178421
-4.2686874332151 4.19518685489484 -1.03466198712366 4.19518685489484 1.02900809648364 -5.84329597646068 -1.03466198712366 -5.84329597646068 -2.72517528848964
4.48201827112818 -2.89305785780693 -0.331904560019404 -2.89305785780693 -12.2856955641828 -1.60986778718073 -0.331904560019404 -1.60986778718073 0.0784026519730876
-6.51580239136641 -2.38629304545148 -0.579300538873523 -2.38629304545148 -4.31020859657273 -0.900838911367543 -0.579300538873523 -0.900838911367543 2.15510429828636
-7.91427521384539 -0.963799323465949 -2.18443527983354 -0.963799323465949 -6.73865186324407 -0.550742470551971 -2.18443527983354 -0.550742470551971 2.45451091443114
1.93078784663289 -0.817071945879689 1.79027228906123 -0.817071945879689 -4.09316614926354 3.65860877677338 1.79027228906123 3.65860877677338 -5.01432369334446
-8.55516579211839 -1.84180944428371 1.53180191405774 -1.84180944428371 -13.2235144825801 0.0521021059203313 1.53180191405774 0.0521021059203313 -4.03270299823364
0.618131576845438 0.973946812256468 -0.719422045320111 0.973946812256468 3.40232086414926 2.50628979687331 -0.719422045320111 2.50628979687331 -0.53502144886622
5.66807397443207 1.08862567269837 4.41004481695156 1.08862567269837 -3.68799717689652 -1.63849272166336 4.41004481695156 -1.63849272166336 -5.93745328629876
-6.22083092475993 -0.593963100288425 -5.54078621573405 -0.593963100288425 -11.8850007796843 3.29692561464445 -5.54078621573405 3.29692561464445 -2.96120734056838
-3.22645252557664 1.7004276823985 -1.44651766647474 1.7004276823985 5.81428288989049 0.0948956625169599 -1.44651766647474 0.0948956625169599 -7.74297311185681
-5.48767377744525 -1.72335865306867 1.65827713293768 -1.72335865306867 -12.6284181662177 -0.468586944943143 1.65827713293768 -0.468586944943143 -2.79850536563266
-0.349540356992831 -2.52206811430212 -1.85794143601574 -2.52206811430212 0.62379509863336 -0.392560708622718 -1.85794143601574 -0.392560708622718 -2.38225197150499