9.969680935 0.110946233 -0.180090445 0.066300350 6.119380981 -0.034755334 -0.085610584 -0.027647444 4.961487194
9.955225350 0.093641056 -0.092202995 0.055958951 6.178734615 -0.040642276 -0.043831044 -0.032330435 5.039845617
10.004309917 0.086738006 -0.040679206 0.051833758 6.134696092 -0.022496362 -0.019337898 -0.017895581 4.992848116
10.129840322 0.102744324 -0.118715951 0.061398972 6.080284065 -0.068299895 -0.056434654 -0.054331733 5.002086171
10.269117118 0.045305683 -0.154659962 0.027074220 6.026236974 -0.058648603 -0.073521556 -0.046654249 4.920090352
9.984844192 0.103701209 -0.178765796 0.061970797 6.136536848 -0.040216278 -0.084980878 -0.031991558 4.976109001
9.937921642 0.079688361 -0.004759535 0.047620961 6.190924842 -0.009341943 -0.002262566 -0.007431402 5.013014824
10.210164973 0.039486734 -0.065414604 0.023596874 6.079767672 0.021310435 -0.031096500 0.016952191 4.930302115
9.928809067 0.134376595 -0.082641661 0.080302099 6.190448824 -0.019302653 -0.039285820 -0.015355025 5.014664672
10.288484586 0.068903588 -0.153161606 0.041176090 6.043308063 -0.067616796 -0.072809274 -0.053788336 4.931818227
10.101684705 0.051663257 -0.055508324 0.030873442 6.068563100 -0.041598968 -0.026387297 -0.033091471 4.996102289
10.041959845 0.073071945 -0.151323222 0.043667058 6.110901782 -0.032208352 -0.071935351 -0.025621352 5.020636376
10.206857700 0.038401332 -0.069332521 0.022948249 6.080927081 0.022910131 -0.032958981 0.018224729 4.932622076
10.160113372 0.019546026 -0.121107745 0.011680508 6.026953371 -0.034923057 -0.057571654 -0.027780866 4.950315346
10.157307187 0.019187126 -0.120632726 0.011466033 6.027808686 -0.034730442 -0.057345842 -0.027627643 4.951998203
10.275454183 0.080444540 -0.144459498 0.048072846 6.052862249 -0.074277327 -0.068672505 -0.059086707 4.944803001
10.152369350 0.077706375 -0.089014462 0.046436546 6.070725301 -0.092110231 -0.042315294 -0.073272566 5.008576452
10.287845460 0.070520332 -0.152050104 0.042142239 6.044533620 -0.068480141 -0.072280893 -0.054475117 4.933376457
10.001853189 0.086483598 -0.038853765 0.051681727 6.136359663 -0.021328944 -0.018470128 -0.016966915 4.992896973
9.975447081 0.110252453 -0.090736984 0.065885755 6.133431343 -0.030062292 -0.043134139 -0.023914186 4.996812456
10.058526347 0.069384380 -0.071803446 0.041463406 6.080807415 -0.041731829 -0.034133599 -0.033197161 5.003030965
9.990045310 0.085439339 -0.030484126 0.051057688 6.144717296 -0.015950656 -0.014491406 -0.012688553 4.994385845
9.968361848 0.113310827 -0.184127918 0.067713408 6.095039852 -0.036392929 -0.087529900 -0.028950131 4.968684225
10.166556021 0.033152755 -0.110776768 0.019811752 6.096890949 0.029398357 -0.052660561 0.023386034 4.958179729
10.024607340 0.083461900 -0.166709223 0.049875990 6.135850903 -0.039566983 -0.079249479 -0.031475052 5.013056977
10.003843191 0.093897072 -0.174746686 0.056111944 6.142860103 -0.043647631 -0.083070292 -0.034721158 4.994741986
9.941657662 0.128271713 -0.086470912 0.076653883 6.163344008 -0.021355531 -0.041106152 -0.016988065 5.000154905
10.129768191 0.017080498 -0.117037901 0.010207133 6.039538957 -0.034121541 -0.055636950 -0.027143270 4.969734110
10.091423995 0.049508559 -0.137826209 0.029585816 6.133699348 0.002127119 -0.065519202 0.001692097 5.009739619
10.167863727 0.077138571 -0.077434766 0.046097232 6.076352920 -0.092414381 -0.036810590 -0.073514513 5.000287228
10.060479404 0.094511260 -0.080471126 0.056478977 6.106587787 -0.047180174 -0.038254001 -0.037531253 5.001247824
10.029136597 0.036967620 -0.118367393 0.022091477 6.104041083 -0.043671075 -0.056268958 -0.034739808 5.008733047
9.990229419 0.111657914 -0.184950354 0.066725644 6.071015006 -0.046991511 -0.087920866 -0.037381174 4.987030821
10.056038204 0.065078699 -0.136704569 0.038890375 6.084260529 -0.026482964 -0.064986002 -0.021066875 5.023468996
10.180607369 0.100101010 -0.131800947 0.059819355 6.074241967 -0.076348946 -0.062654940 -0.060734655 4.988506351
9.975040609 0.071137604 -0.104279696 0.042511115 6.154671760 -0.045776891 -0.049572012 -0.036414958 5.031616721
9.929038110 0.132880469 -0.082088586 0.079408029 6.192038847 -0.020556241 -0.039022902 -0.016352239 5.016344492
9.940137264 0.081035532 -0.004897620 0.048426017 6.183845185 -0.007259237 -0.002328208 -0.005774635 5.009057960
9.959900322 0.087673504 -0.094910834 0.052392802 6.172772139 -0.042526491 -0.045118285 -0.033829305 5.038445241
10.071954064 0.055286331 -0.119156791 0.033038554 6.056358261 -0.020521457 -0.056644218 -0.016324569 5.020035769
9.950831235 0.099409171 -0.089859062 0.059405919 6.183855046 -0.038517528 -0.042716796 -0.030640224 5.039910043
10.038151418 0.100614917 -0.167266384 0.060126460 6.057679222 -0.062027516 -0.079514340 -0.049342133 5.008615359
10.233770475 0.074734966 -0.026900386 0.044660863 6.101921682 -0.071214961 -0.012787784 -0.056650633 4.979538056
9.966717369 0.112153426 -0.180971249 0.067021757 6.111052818 -0.034436312 -0.086029297 -0.027393666 4.961118458
10.086855268 0.018687189 -0.117179830 0.011167276 6.064397971 -0.037530974 -0.055704420 -0.029855432 4.997262618
10.070648297 0.056172521 -0.120749119 0.033568132 6.058515896 -0.020987371 -0.057401172 -0.016695198 5.020818797
9.993550319 0.110996027 -0.184147028 0.066330107 6.068999403 -0.048378122 -0.087538985 -0.038484206 4.988983710
10.168553420 0.033114509 -0.109043788 0.019788897 6.095863777 0.029437225 -0.051836745 0.023416954 4.956764268
10.103073189 0.017267219 -0.116370727 0.010318716 6.054985218 -0.035686698 -0.055319792 -0.028388333 4.988336520
10.061394921 0.062002655 -0.131170716 0.037052162 6.074558716 -0.024428815 -0.062355344 -0.019432824 5.023624048
9.937879912 0.079532984 -0.004943634 0.047528110 6.191668981 -0.009703226 -0.002350082 -0.007718798 5.013562714
10.280824379 0.077511928 -0.146555212 0.046320347 6.050554459 -0.072486490 -0.069668756 -0.057662119 4.940914772
9.965340264 0.084106689 -0.016384279 0.050261310 6.161415645 -0.007586912 -0.007788685 -0.006035296 5.001933809
9.986970968 0.102517172 -0.178407478 0.061263229 6.137889621 -0.040997726 -0.084810543 -0.032613191 4.978291241
9.984316847 0.112660307 -0.186022109 0.067324664 6.075284422 -0.044319496 -0.088430352 -0.035255618 4.983377144
9.934662270 0.121680291 -0.082594345 0.072714916 6.193908984 -0.027862733 -0.039263327 -0.022164464 5.025826236
9.940675872 0.078841133 -0.008859954 0.047114666 6.193830176 -0.013470168 -0.004211805 -0.010715354 5.016724672
9.995814494 0.055474042 -0.113676555 0.033150728 6.135035451 -0.045669910 -0.054039048 -0.036329857 5.022565906
10.104607541 0.100812099 -0.106627648 0.060244294 6.087657229 -0.061955541 -0.050688171 -0.049284877 5.003288931
10.165747555 0.077181573 -0.079037536 0.046122930 6.075596767 -0.092477102 -0.037572508 -0.073564407 5.001405385
10.249631355 0.023854732 -0.028742288 0.014255347 6.093123410 -0.019468715 -0.013663379 -0.015487126 4.955617768
10.194654095 0.035413598 -0.082953590 0.021162809 6.085015762 0.026936550 -0.039434104 0.021427697 4.940602746
10.219163063 0.031323347 -0.137270416 0.018718516 6.015944138 -0.046250580 -0.065254992 -0.036791773 4.922510752
10.081673413 0.052676681 -0.134998932 0.031479053 6.140164480 -0.003400022 -0.064175184 -0.002704676 5.015464720
9.995361666 0.098044939 -0.176704315 0.058590667 6.141496139 -0.043117483 -0.084000901 -0.034299432 4.986554222
9.931606484 0.134699073 -0.084884195 0.080494808 6.180277074 -0.017983446 -0.040351866 -0.014305612 5.007652445
10.391037063 0.002418084 -0.004689356 0.001445023 6.204849622 -0.001976683 -0.002229205 -0.001572428 4.942358869
10.121206701 0.081407275 -0.111050679 0.048648167 6.061822714 -0.087322863 -0.052790771 -0.069464272 5.020014998
9.941634681 0.111645192 -0.085442165 0.066718042 6.191422036 -0.033135761 -0.040617111 -0.026359094 5.034371031
9.994060282 0.098710329 -0.176985667 0.058988298 6.141097703 -0.042897811 -0.084134649 -0.034124685 4.985293514
10.172477871 0.033125613 -0.105498324 0.019795532 6.093902094 0.029429445 -0.050151318 0.023410765 4.954086924
10.189803666 0.098906255 -0.133201106 0.059105381 6.072568326 -0.077422613 -0.063320541 -0.061588744 4.984724199
10.288844194 0.065574433 -0.155012855 0.039186621 6.041135012 -0.065941879 -0.073689312 -0.052455961 4.928769489
10.280771784 0.052671328 -0.156707849 0.031475855 6.033445818 -0.061037910 -0.074495071 -0.048554913 4.920962291
10.052044442 0.097284516 -0.159791582 0.058136246 6.057307277 -0.066019251 -0.075961002 -0.052517509 5.012538229
10.288865813 0.066420565 -0.154603516 0.039692260 6.041645404 -0.066352803 -0.073494723 -0.052782846 4.929520982
10.227966026 0.048761561 -0.040954958 0.029139418 6.075166827 0.006189210 -0.019468983 0.004923441 4.919704336
10.198209574 0.036141158 -0.079084590 0.021597592 6.083838710 0.026021117 -0.037594876 0.020699481 4.938385411
10.092315355 0.055107381 -0.059041112 0.032931616 6.070653733 -0.042030891 -0.028066698 -0.033435061 4.997929166
10.056819915 0.025387248 -0.118638645 0.015171163 6.082421221 -0.041322241 -0.056397905 -0.032871338 5.004908423
10.273905943 0.081152944 -0.144009673 0.048496181 6.053356170 -0.074717621 -0.068458670 -0.059436956 4.945839191
9.999049317 0.109806673 -0.182607375 0.065619361 6.066176500 -0.050491106 -0.086807071 -0.040165059 4.992082044
10.019227328 0.073723698 -0.089393402 0.044056539 6.159210213 -0.025453651 -0.042495433 -0.020248069 5.024243055
10.238478779 0.057358242 -0.024549721 0.034276707 6.081211302 -0.010693006 -0.011670336 -0.008506156 4.921919618
10.265421853 0.043639600 -0.153789703 0.026078585 6.024267866 -0.057964923 -0.073107856 -0.046110389 4.920120820
10.274098769 0.047962881 -0.155683337 0.028662134 6.029150923 -0.059578993 -0.074008043 -0.047394362 4.920170332
9.942858855 0.081861593 -0.006009295 0.048919663 6.179157882 -0.006444508 -0.002856671 -0.005126527 5.007296336
10.093325901 0.048904372 -0.138188020 0.029224760 6.132420987 0.003257108 -0.065691198 0.002590990 5.008565346
10.018959238 0.086504368 -0.169724990 0.051694138 6.139656882 -0.041349743 -0.080683101 -0.032893216 5.008688679
10.185190725 0.023864038 -0.126250326 0.014260908 6.021206098 -0.037968690 -0.060016311 -0.030203630 4.935949149
10.032002577 0.081237347 -0.079683792 0.048546620 6.091517104 -0.039926831 -0.037879722 -0.031761307 5.001958330
10.119061955 0.016893632 -0.116383661 0.010095464 6.045529626 -0.034492441 -0.055325940 -0.027438316 4.977306353
9.983770651 0.079413879 -0.053267013 0.047456933 6.172312288 -0.024035752 -0.025321832 -0.019120147 5.025994152
9.966484433 0.080165374 -0.034530668 0.047906020 6.179349989 -0.021545734 -0.016415033 -0.017139369 5.021720365
10.180079603 0.033481438 -0.098164550 0.020008170 6.090418300 0.029085506 -0.046665021 0.023137165 4.949273117
10.082481586 0.097862366 -0.093953814 0.058481563 6.096938930 -0.055027167 -0.044663341 -0.043773440 5.002887768
10.398419524 0.001099564 -0.002348526 0.000657089 6.211501279 -0.001078025 -0.001116432 -0.000857556 4.944426322
9.956991499 0.083670080 -0.012504046 0.050000396 6.166566799 -0.006193406 -0.005944117 -0.004926779 5.004116063
10.069389452 0.056906284 -0.129292757 0.034006621 6.146986604 -0.009683547 -0.061462608 -0.007703143 5.020978176
10.148927079 0.018278558 -0.119317735 0.010923082 6.030722893 -0.034305987 -0.056720727 -0.027289994 4.957128715
10.095136757 0.099643583 -0.101350131 0.059546001 6.091448947 -0.059122383 -0.048179368 -0.047031134 5.003237812
10.037048464 0.068558522 -0.105602437 0.040969882 6.155402655 -0.022280511 -0.050200811 -0.017723875 5.023963166
10.259387127 0.041324412 -0.152180421 0.024695052 6.021449094 -0.056797110 -0.072342843 -0.045181408 4.920203071
10.249545407 0.066922992 -0.011020131 0.039992506 6.097305282 -0.039976932 -0.005238700 -0.031801162 4.943749107
10.176918338 0.022241081 -0.124345077 0.013291046 6.022821243 -0.036678145 -0.059110603 -0.029177017 4.940523744
10.244561839 0.072516285 -0.015032071 0.043335001 6.101875501 -0.060053239 -0.007145878 -0.047771619 4.968846828
10.021045885 0.086293555 -0.082460875 0.051568159 6.097299941 -0.038759731 -0.039199879 -0.030832893 5.000037660
10.111200705 0.048529222 -0.052212439 0.029000574 6.066926221 -0.040900292 -0.024820514 -0.032535683 4.994241612
10.248743327 0.065639036 -0.011994765 0.039225226 6.095517399 -0.035224842 -0.005702017 -0.028020933 4.938846919
10.214121431 0.030219081 -0.135313205 0.018058618 6.016505097 -0.044790275 -0.064324582 -0.035630118 4.923698883
10.248589850 0.070128209 -0.011320915 0.041907911 6.100280163 -0.051619942 -0.005381686 -0.041063034 4.957831410
10.286057960 0.058405590 -0.156864338 0.034902592 6.037261048 -0.062929011 -0.074569462 -0.050059261 4.923426702
10.025954877 0.082701624 -0.165848751 0.049421657 6.134650231 -0.039075709 -0.078840432 -0.031084250 5.013973697
10.055496818 0.070726674 -0.072815733 0.042265548 6.081875169 -0.041589345 -0.034614815 -0.033083817 5.003197903
9.938418987 0.079058118 -0.006190584 0.047244335 6.193679354 -0.011282694 -0.002942852 -0.008975245 5.015419450
10.146152707 0.018031211 -0.118918778 0.010775270 6.031814400 -0.034212811 -0.056531073 -0.027215874 4.958870382
9.952647813 0.083337802 -0.010522913 0.049801830 6.169500629 -0.005855476 -0.005002335 -0.004657960 5.004959976
9.966962884 0.113087442 -0.183168514 0.067579915 6.099305661 -0.035552515 -0.087073823 -0.028281592 4.965924080
10.257793128 0.022687266 -0.027751992 0.013557681 6.097781673 -0.018286500 -0.013192617 -0.014546687 4.953783235
9.996703630 0.077985575 -0.067025733 0.046603394 6.167128138 -0.025365374 -0.031862391 -0.020177846 5.026388992
9.978919676 0.106902619 -0.179465018 0.063883928 6.131658088 -0.037802845 -0.085313272 -0.030071702 4.969838895
10.224155996 0.032404744 -0.139270697 0.019364748 6.015562154 -0.047721396 -0.066205876 -0.037961788 4.921637697
9.988464839 0.060337578 -0.111056125 0.036057129 6.141682453 -0.046020556 -0.052793360 -0.036608791 5.025922952
10.321850104 0.013934446 -0.020243309 0.008327084 6.144425812 -0.009868111 -0.009623173 -0.007849962 4.941551534
10.064063213 0.060400697 -0.128309479 0.036094848 6.069829577 -0.023418873 -0.060995182 -0.018629428 5.023279766
9.946611451 0.079175647 -0.014639588 0.047314568 6.190325710 -0.016584601 -0.006959301 -0.013192848 5.017189220
10.066716185 0.095472001 -0.084373579 0.057053106 6.103891180 -0.049497332 -0.040109132 -0.039374523 5.001882877
10.009320310 0.087292319 -0.044449251 0.052165010 6.131429178 -0.024896951 -0.021130085 -0.019805221 4.993005411
9.939167106 0.080620652 -0.004609515 0.048178089 6.186108994 -0.007771256 -0.002191250 -0.006181939 5.010132487
10.213348760 0.040676114 -0.061502802 0.024307636 6.078639309 0.019501556 -0.029236925 0.015513250 4.928050243
10.128154000 0.038706126 -0.134152856 0.023130391 6.114988112 0.022158569 -0.063772980 0.017626871 4.987218305
10.154081799 0.034017641 -0.120430395 0.020328599 6.103399369 0.028484335 -0.057249658 0.022658941 4.967643963
9.999428264 0.086244503 -0.037073924 0.051538846 6.138035229 -0.020187853 -0.017624035 -0.016059191 4.993032119
10.089507801 0.050121021 -0.137397843 0.029951817 6.134993613 0.001004178 -0.065315567 0.000798811 5.010913359
10.013276046 0.090018691 -0.084351148 0.053794262 6.102126935 -0.037733180 -0.040098468 -0.030016285 4.998473702
9.933932159 0.122845310 -0.082357273 0.073411119 6.193998352 -0.027190779 -0.039150629 -0.021629933 5.024799092
10.236437281 0.035085714 -0.144225054 0.020966869 6.015677904 -0.051271787 -0.068561056 -0.040786082 4.920541963
10.248949125 0.069745977 -0.011047208 0.041679493 6.100002644 -0.050271070 -0.005251572 -0.039990023 4.956080159
9.972005949 0.113519747 -0.185535439 0.067838257 6.088336003 -0.038276060 -0.088199001 -0.030448139 4.973535934
10.203451708 0.037420270 -0.073244439 0.022361976 6.082092854 0.024302971 -0.034818611 0.019332717 4.934953582
9.981707116 0.079576483 -0.051027547 0.047554104 6.173137019 -0.023775650 -0.024257245 -0.018913240 5.025701699
10.249716171 0.068159685 -0.010628467 0.040731541 6.098665930 -0.044551907 -0.005052513 -0.035440499 4.948965320
9.973516195 0.109427265 -0.179777298 0.065392631 6.125500799 -0.035792503 -0.085461722 -0.028472500 4.964403183
10.286663640 0.059340100 -0.156769212 0.035461046 6.037777745 -0.063274401 -0.074524242 -0.050334015 4.923993544
9.968968844 0.113370670 -0.184438469 0.067749170 6.093655913 -0.036721898 -0.087677528 -0.029211822 4.969649268
9.937712472 0.130679039 -0.085910013 0.078092477 6.168634524 -0.020024230 -0.040839515 -0.015929031 5.001770914
10.226846624 0.047952766 -0.042699507 0.028656090 6.075151671 0.007595080 -0.020298299 0.006041794 4.920051873
9.997708442 0.054298226 -0.114227781 0.032448073 6.133318747 -0.045557062 -0.054301088 -0.036240087 5.021660752
10.084079555 0.046746782 -0.103787255 0.027935406 6.039149047 -0.016614387 -0.049337918 -0.013216542 5.009551651
10.162922242 0.019932488 -0.121600532 0.011911454 6.026152079 -0.035142779 -0.057805913 -0.027955652 4.948645129
9.942843176 0.078908208 -0.011039051 0.047154750 6.192755145 -0.014823861 -0.005247694 -0.011792201 5.017018486
10.011597997 0.046244055 -0.116973540 0.027634981 6.120412109 -0.044688692 -0.055606354 -0.035549309 5.014981643
10.054313245 0.093564672 -0.076532082 0.055913305 6.109223171 -0.044811053 -0.036381476 -0.035646646 5.000464288
9.934558548 0.132764764 -0.085492229 0.079338885 6.173953513 -0.018892750 -0.040640911 -0.015028952 5.004124282
10.052317347 0.063153752 -0.118040315 0.037740046 6.152699885 -0.017184029 -0.056113473 -0.013669685 5.024134470
10.101453031 0.100443182 -0.104901553 0.060023833 6.088875168 -0.061036219 -0.049867628 -0.048553567 5.003292916
10.134835136 0.079361000 -0.101507968 0.047425334 6.065053206 -0.089991629 -0.048254400 -0.071587243 5.016339717
10.249731271 0.067751769 -0.010692647 0.040487774 6.098253834 -0.043050484 -0.005083022 -0.034246135 4.947202129
10.029932651 0.102563752 -0.171118417 0.061291064 6.058328366 -0.059777551 -0.081345502 -0.047552313 5.005904380
10.064930221 0.022975266 -0.118385876 0.013729787 6.077219845 -0.040364736 -0.056277744 -0.032109655 5.003787169
10.065390365 0.059581409 -0.126847435 0.035605249 6.067504207 -0.022920597 -0.060300162 -0.018233056 5.022978152
9.974927177 0.084531976 -0.021274054 0.050515457 6.155304748 -0.010192446 -0.010113164 -0.008107966 4.998781211
10.228891922 0.026952560 -0.031498966 0.016106578 6.083330210 -0.022621746 -0.014973837 -0.017995323 4.960793602
9.969037689 0.084268220 -0.018196606 0.050357839 6.159117094 -0.008476239 -0.008650221 -0.006742745 5.000761755
10.079318084 0.097392219 -0.092061226 0.058200609 6.098340487 -0.053954407 -0.043763651 -0.042920073 5.002744536
10.172034980 0.077067565 -0.074278917 0.046054800 6.077809083 -0.092185764 -0.035310377 -0.073332651 4.998159868
10.231242684 0.092374563 -0.138879605 0.055202108 6.061024516 -0.080244813 -0.066019961 -0.063833770 4.967704865
10.164534459 0.033220867 -0.112479311 0.019852455 6.097943476 0.029329563 -0.053469908 0.023331310 4.959646476
10.233081441 0.026315053 -0.030918614 0.015725611 6.085085540 -0.021969398 -0.014697951 -0.017476388 4.959681305
9.947665550 0.103593676 -0.088276041 0.061906536 6.187005485 -0.036804654 -0.041964266 -0.029277654 5.038903375
10.402281149 0.000490784 -0.001153895 0.000293288 6.215013534 -0.000573803 -0.000548534 -0.000456453 4.945631014
10.169958086 0.077101378 -0.075848618 0.046075006 6.077090184 -0.092317177 -0.036056574 -0.073437189 4.999204423
9.946464678 0.125588426 -0.087301938 0.075050378 6.158161081 -0.022799336 -0.041501202 -0.018136594 4.999274712
10.067674265 0.065358311 -0.068565900 0.039057468 6.077744277 -0.042059580 -0.032594549 -0.033457883 5.002137467
10.115998437 0.041961099 -0.137676870 0.025075530 6.119845101 0.016629031 -0.065448210 0.013228191 4.994944514
9.985864284 0.079230258 -0.055530098 0.047347204 6.171473669 -0.024288447 -0.026397648 -0.019321163 5.026221544
10.192549814 0.076546455 -0.059406925 0.045743390 6.084533097 -0.089054033 -0.028240596 -0.070841397 4.989941995
10.140640114 0.017616320 -0.118187584 0.010527335 6.034175411 -0.034094825 -0.056183481 -0.027122017 4.962409911
9.982804541 0.104832014 -0.179059920 0.062646555 6.135048221 -0.039405502 -0.085120698 -0.031346596 4.973972642
10.302882474 0.016545543 -0.022664499 0.009887450 6.129163307 -0.012214556 -0.010774147 -0.009716531 4.944737404
10.140060065 0.078745762 -0.097837024 0.047057674 6.066587481 -0.090789164 -0.046509323 -0.072221673 5.014346324
10.226170021 0.093258711 -0.138274505 0.055730466 6.062398195 -0.080207045 -0.065732311 -0.063803726 4.969764252
10.068582468 0.093216575 -0.149235978 0.055705286 6.057504428 -0.071258760 -0.070943127 -0.056685474 5.016495010
10.240173315 0.058720587 -0.022193048 0.035090831 6.083211934 -0.013932656 -0.010550031 -0.011083258 4.923360264
10.208551538 0.075795661 -0.048376618 0.045294723 6.090642738 -0.084399774 -0.022997059 -0.067138991 4.985728241
9.938826453 0.115522963 -0.084210681 0.069035358 6.192756598 -0.031197096 -0.040031694 -0.024816909 5.031255025
10.027276785 0.081942771 -0.164945534 0.048968174 6.133349999 -0.038571599 -0.078411065 -0.030683236 5.014818088
10.025164711 0.089298572 -0.056375961 0.053363926 6.122376489 -0.032400131 -0.026799750 -0.025773909 4.995171492
9.948710112 0.102211759 -0.088790065 0.061080717 6.186025155 -0.037385556 -0.042208621 -0.029739754 5.039341759
9.973502102 0.072589553 -0.103364064 0.043378785 6.156319276 -0.045623798 -0.049136743 -0.036293175 5.032286065
9.962143159 0.117418746 -0.090001393 0.070168259 6.144702872 -0.026820615 -0.042784457 -0.021335472 4.998235371
10.148308681 0.039699159 -0.043173428 0.023723818 6.065755246 -0.036085524 -0.020523590 -0.028705594 4.985876603
9.992093240 0.057869202 -0.112447810 0.034582052 6.138395689 -0.045869928 -0.053454933 -0.036488968 5.024298921
10.252866181 0.039237112 -0.150193186 0.023447703 6.019001287 -0.055414431 -0.071398160 -0.044081504 4.920267886
9.962378752 0.084638709 -0.096424575 0.050579240 6.169575548 -0.043352004 -0.045837880 -0.034485991 5.037397492
10.056632004 0.061559756 -0.121196003 0.036787490 6.151639948 -0.015436669 -0.057613610 -0.012279682 5.023802879
9.995312054 0.110625260 -0.183678470 0.066108541 6.068028936 -0.049079246 -0.087316243 -0.039041941 4.989994956
10.347648346 0.010090709 -0.015970142 0.006030106 6.166419829 -0.006852128 -0.007591814 -0.005450785 4.938660439
10.124212716 0.044869176 -0.048353698 0.026813368 6.065588940 -0.039542785 -0.022986163 -0.031455803 4.991615452
10.249629165 0.068563426 -0.010631537 0.040972812 6.099042385 -0.046026736 -0.005053972 -0.036613707 4.950743024
10.195788362 0.098061624 -0.134073120 0.058600638 6.071214926 -0.078070230 -0.063735076 -0.062103915 4.982210262
9.946631340 0.104963381 -0.087774274 0.062725059 6.187915027 -0.036214459 -0.041725739 -0.028808160 5.038364951
9.963565281 0.084025828 -0.015539973 0.050212988 6.162502729 -0.007216270 -0.007387322 -0.005740455 5.002458908
10.317218913 0.014583259 -0.020875750 0.008714809 6.140613243 -0.010430238 -0.009923820 -0.008297127 4.942273165
10.070399943 0.021610357 -0.118140006 0.012914131 6.073906315 -0.039672232 -0.056160864 -0.031558777 5.002715115
10.161683532 0.102006567 -0.128352493 0.060958096 6.076437531 -0.073857767 -0.061015630 -0.058752952 4.995395278
10.210142383 0.095883650 -0.136119362 0.057299103 6.067239386 -0.079391014 -0.064707809 -0.063154583 4.976232056
10.244133827 0.061743098 -0.017196392 0.036897053 6.088496254 -0.022131984 -0.008174743 -0.017605723 4.928105016
10.187915446 0.024431019 -0.126935794 0.014599731 6.020707239 -0.038460842 -0.060342166 -0.030595131 4.934503665
9.976975068 0.084631453 -0.022407984 0.050574903 6.153930086 -0.010867556 -0.010652206 -0.008645008 4.998093168
9.944601747 0.082248392 -0.006800201 0.049150810 6.176858364 -0.006148964 -0.003232649 -0.004891426 5.006635028
10.282980431 0.019224431 -0.024910818 0.011488326 6.114338368 -0.014807573 -0.011841992 -0.011779244 4.948538329
9.987985882 0.079025311 -0.057811675 0.047224730 6.170622055 -0.024531855 -0.027482254 -0.019514792 5.026382354
10.098296152 0.100052899 -0.103141038 0.059790604 6.090141508 -0.060091447 -0.049030722 -0.047802014 5.003275400
10.075881064 0.052547028 -0.114217589 0.031401574 6.050140003 -0.019167944 -0.054296243 -0.015247866 5.017142744
9.938781816 0.080418754 -0.004538155 0.048057437 6.187188123 -0.008052645 -0.002157328 -0.006405781 5.010701300
10.171225238 0.035838882 -0.039636748 0.021416954 6.068227977 -0.032234088 -0.018842339 -0.025641824 4.979046325
10.343613032 0.010723670 -0.016739397 0.006408357 6.162912374 -0.007312126 -0.007957499 -0.005816707 4.938946910
10.247374875 0.064280547 -0.013520500 0.038413407 6.093245339 -0.030357004 -0.006427314 -0.024148627 4.934386554
10.121728047 0.016909291 -0.116497343 0.010104822 6.043991243 -0.034367398 -0.055379982 -0.027338846 4.975403444
10.113738951 0.016925396 -0.116256289 0.010114446 6.048656162 -0.034807043 -0.055265391 -0.027688578 4.981092031
10.180248320 0.076924039 -0.068159347 0.045969030 6.080536964 -0.091323470 -0.032401283 -0.072646707 4.994393865
9.976612062 0.069705725 -0.105191232 0.041655439 6.153032491 -0.045900206 -0.050005334 -0.036513054 5.030944039
10.160419391 0.033448049 -0.115781098 0.019988217 6.100104218 0.029096628 -0.055039497 0.023146013 4.962725677
10.186362711 0.033488245 -0.037528163 0.020012238 6.070818824 -0.029622872 -0.017839969 -0.023564634 4.974025735
10.059506624 0.024536298 -0.118570882 0.014662644 6.080653184 -0.041016269 -0.056365691 -0.032627941 5.004584967
10.060920747 0.059976969 -0.124136832 0.035841632 6.150350807 -0.013594221 -0.059011608 -0.010814037 5.023184544
9.948845159 0.079357509 -0.016757057 0.047423248 6.188837795 -0.017419743 -0.007965894 -0.013857193 5.017336662
9.963659202 0.083115508 -0.097221599 0.049668990 6.167942774 -0.043730505 -0.046216766 -0.034787083 5.036816275
9.939580942 0.129510557 -0.086161811 0.077394204 6.165976422 -0.020671904 -0.040959214 -0.016444247 5.000863317
10.386374583 0.003288170 -0.006147338 0.001964977 6.200675274 -0.002519405 -0.002922294 -0.002004156 4.941251173
10.144517193 0.040406837 -0.043849865 0.024146719 6.065530243 -0.036688250 -0.020845151 -0.029185055 4.986883295
10.017488174 0.087261932 -0.170375813 0.052146851 6.140364111 -0.041735985 -0.080992486 -0.033200467 5.007438271
10.277018130 0.049816404 -0.156191084 0.029769781 6.030979468 -0.060164824 -0.074249414 -0.047860383 4.920366339
9.943594499 0.109004467 -0.086338637 0.065139971 6.190222275 -0.034391665 -0.041043272 -0.027358150 5.036198838
10.084122050 0.019058350 -0.117348209 0.011389078 6.065959972 -0.037880159 -0.055784463 -0.030133205 4.998426114
9.940678916 0.112949495 -0.085014947 0.067497480 6.191926385 -0.032496450 -0.040414023 -0.025850530 5.033370979
9.969574441 0.113461920 -0.090655497 0.067803700 6.138506861 -0.028633731 -0.043095402 -0.022777784 4.997495885
10.326396479 0.013287706 -0.019589187 0.007940599 6.148215395 -0.009322781 -0.009312219 -0.007416158 4.940889457
9.928833237 0.133947408 -0.082439713 0.080045621 6.191035691 -0.019681714 -0.039189819 -0.015656563 5.015219358
9.978060961 0.113348070 -0.186378277 0.067735664 6.080970672 -0.041284423 -0.088599665 -0.032841255 4.979028388
9.981535313 0.106874197 -0.090406257 0.063866943 6.128025657 -0.031523364 -0.042976919 -0.025076452 4.996180311
10.079669176 0.053346836 -0.134224026 0.031879532 6.141412285 -0.004476224 -0.063806813 -0.003560782 5.016526544
9.971506456 0.112413313 -0.090726360 0.067177063 6.136855377 -0.029104522 -0.043129088 -0.023152292 4.997273282
9.929457101 0.131545446 -0.081832996 0.078610233 6.192824071 -0.021569404 -0.038901401 -0.017158197 5.017534978
9.985710183 0.104549714 -0.089955105 0.062477855 6.124284676 -0.032498596 -0.042762452 -0.025852237 4.995885338
9.942776765 0.127626930 -0.086651300 0.076268567 6.162039217 -0.021707901 -0.041191905 -0.017268370 4.999872830
10.162488746 0.033319216 -0.114148433 0.019911228 6.099016373 0.029229497 -0.054263368 0.023251708 4.961162806
10.117964929 0.041400101 -0.137243401 0.024740283 6.119019508 0.017638974 -0.065242150 0.014031588 4.993756216
9.987834071 0.103370710 -0.089663991 0.061773294 6.122387592 -0.032982284 -0.042624064 -0.026237005 4.995798013
10.255086136 0.039908205 -0.150897595 0.023848741 6.019762653 -0.055901409 -0.071733019 -0.044468889 4.920249680
10.076773993 0.091175716 -0.143451390 0.054485689 6.057722515 -0.074014058 -0.068193275 -0.058877280 5.018218339
10.064617061 0.066697812 -0.069676581 0.039857940 6.078742842 -0.041967769 -0.033122539 -0.033384848 5.002495841
10.223247924 0.045583418 -0.048121320 0.027240191 6.075596820 0.011611839 -0.022875696 0.009237076 4.921653732
10.212903118 0.095445712 -0.136506336 0.057037396 6.066397781 -0.079592865 -0.064891767 -0.063315154 4.975105697
9.975716045 0.079941494 -0.044501077 0.047772231 6.175530271 -0.022964866 -0.021154721 -0.018268271 5.024475171
10.138867270 0.036350954 -0.129488049 0.021722964 6.110611738 0.025602100 -0.061555445 0.020366158 4.979519135
10.253721481 0.023265445 -0.028238884 0.013903196 6.095398927 -0.018871711 -0.013424074 -0.015012216 4.954686053
9.966186667 0.112690491 -0.181953536 0.067342702 6.105173479 -0.034783470 -0.086496252 -0.027669826 4.962896246
10.186391734 0.076765939 -0.063724939 0.045874552 6.082511156 -0.090331308 -0.030293274 -0.071857454 4.992001142
9.930491103 0.129082989 -0.081682013 0.077138694 6.193623241 -0.023297459 -0.038829627 -0.018532844 5.019554254
10.288813843 0.067256960 -0.154157024 0.040192082 6.042176472 -0.066769325 -0.073282471 -0.053114183 4.930280634
10.182448592 0.023308377 -0.125590881 0.013928851 6.021722410 -0.037507298 -0.059702827 -0.029836598 4.937438225
9.971106990 0.110401155 -0.179935297 0.065974617 6.121932261 -0.035089198 -0.085536831 -0.027913029 4.962409391
10.218315005 0.094571206 -0.137251072 0.056514800 6.064732869 -0.079921884 -0.065245796 -0.063576884 4.972918792
10.230373887 0.074944416 -0.030470774 0.044786028 6.100830180 -0.073684760 -0.014485059 -0.058615327 4.980823667