4.9493756991 3.1143717044 2.3784620781 2.6552666111 4.6112161718 4.7332286642 2.1198979376 1.4285705828 2.2947594159 7.3345068398 1.5656970245 -0.0540761318 7.8092519720 4.6097356023 2.4896906705 0.9968152073 4.4995847508 1.9854557359 3.8726629553 1.5076332420 4.5309918968 8.9541495665 1.5417907816 2.7094152205 6.0859937814 4.6881968962 0.2618708976 1.1781224505 4.5713485825 3.5169348748 3.7535533454 1.5345368589 1.0921419829 8.8257406041 1.5208478539 1.1801320268 6.2725687949 4.6050173901 3.7178679238 4.5609598374 4.5969715742 0.4989605084 0.4728203628 1.4260968480 3.2847931017 5.3883889540 1.6242595876 4.2182773760 9.4534509451 4.6205873231 1.5057676269 1.7371685212 5.7377273049 1.3018446344 3.1609390791 0.2974056286 3.8040004019 8.1853575632 2.7631116699 3.3724039064 6.7670524350 3.4611253852 1.0045516781 8.1858046628 0.3561498188 3.4210202787 6.7241845731 5.9109544136 0.9798390146 1.7477570219 3.2873250021 1.3462489253 3.1540587068 2.7155214582 3.8147241392
4.7740723195 3.3323374782 2.4199420374 2.6564510684 4.5425058119 4.8922965375 2.2181160791 1.4065599795 2.3824444329 7.2725839373 1.5481079054 0.0060199656 7.8040549274 4.7514425984 2.5631795669 1.0565233460 4.5676717221 2.1179939858 3.9189316732 1.4774644658 4.6282111858 8.9371206178 1.5928783114 2.8299178698 6.0866693661 4.6620403005 0.2196505246 1.2251726470 4.5945294378 3.6495064842 3.7588136507 1.4634896428 1.1241861013 8.6774780000 1.5989921477 1.3172427122 6.2291719020 4.6232713385 3.7307048413 4.5700449584 4.6427329095 0.5516950099 0.4991296713 1.4546673091 3.1989493736 5.4200968363 1.5769518357 4.2606437568 9.4985713684 4.6165069992 1.7087929671 1.7167524309 5.7927459867 1.3645768190 3.2419888453 0.2705713325 3.8737284535 8.2352839815 2.7807123890 3.5826978962 6.7512180642 3.4696214784 1.0015892391 8.2192898315 0.3539739067 3.5375915977 6.7854903761 5.8907666999 0.9158151972 1.8749089573 3.3844139060 1.4651339089 3.1649572149 2.6797072963 3.9328429508
4.8677910399 3.1995907461 2.4687204471 2.7312510299 4.5835420043 4.8993362910 2.2054033311 1.4937106818 2.3497445329 7.2794514309 1.4472386103 0.0791493926 7.8773617174 4.6498362773 2.5377345579 1.1154274728 4.5715727645 2.1596244774 3.9521682327 1.4506673498 4.6258354621 8.9471056812 1.6148179248 2.8115049998 6.0962459781 4.6026820634 0.2561198055 1.2487001325 4.5792112638 3.6896299918 3.8370253207 1.4860516806 1.1715808882 8.7306109483 1.5540409670 1.2927016991 6.2342159997 4.6252492725 3.7275079559 4.5809514665 4.5690080968 0.5973790673 0.4501140432 1.5529128525 3.1682810074 5.4507414174 1.5303469152 4.2447387664 9.6260329336 4.6840168981 1.7139824515 1.8708202934 5.7803948423 1.4858309727 3.2355442331 0.2462539154 3.9318896991 8.2146503854 2.8305075501 3.4713090274 6.7783953736 3.3884819750 0.9876516476 8.2249760668 0.3803261706 3.4950490059 6.7892836321 5.8096890213 0.9693743869 1.9006510821 3.3735676596 1.5077062511 3.2084891492 2.6670755984 3.9426592896
5.0278407706 3.0258340230 2.4127963790 2.7483276184 4.5229627343 4.8723325279 2.1902602613 1.4630431020 2.3293642090 7.3538787567 1.4762907515 0.0176527552 7.9676600818 4.6216845526 2.4509517928 1.0891323179 4.5581729620 2.0938789232 3.9561673646 1.3952783904 4.5961859461 9.0752585349 1.5948314632 2.7566018502 6.1566467429 4.5624225289 0.1722797897 1.3002009351 4.5667721288 3.6104789539 3.7904451412 1.4712269335 1.1253173813 8.8589069563 1.5712225923 1.2245965852 6.2934842254 4.4935500709 3.6496916484 4.6561521550 4.4333967643 0.5741787774 0.4658207890 1.4818619004 3.1315582124 5.4602433763 1.5116291182 4.2267998186 9.7126374519 4.6579920297 1.6687048803 1.8277266146 5.7535072402 1.3518636843 3.2811430150 0.1742236070 3.9002201480 8.3677795104 2.8082450509 3.4419160642 6.8782773879 3.3762154365 0.9165007321 8.3383262714 0.3799633977 3.4722652896 6.8690871636 5.7768972086 0.8533726407 1.8273244372 3.3703482868 1.3723857888 3.2361350122 2.5943166642 3.8625561167
5.2970624801 2.7497021950 2.3628818247 2.7630606713 4.4554189318 4.6609829823 2.1145282226 1.4484187223 2.2701945044 7.5166295036 1.5301646188 -0.0099338556 8.0333494920 4.5629950943 2.4420845468 1.0167725509 4.4139342720 1.9823799476 3.9818908209 1.4100559614 4.5366239308 9.1953022230 1.4878530253 2.6759178772 6.2134052340 4.5827939348 0.2198289654 1.2199361573 4.3829237541 3.5119118208 3.7972507132 1.4339723960 1.1363492212 9.0183022960 1.5240848065 1.1522325327 6.3722678778 4.5118848913 3.6206387891 4.7111125661 4.4726539186 0.5989316500 0.4210271110 1.4064171384 3.1923821185 5.5058034691 1.4270467153 4.2407981055 9.7656728892 4.5318349828 1.5456904747 1.8171902148 5.6051478172 1.3175713528 3.2432708460 0.2276736555 3.8187562147 8.4118203300 2.6781180174 3.3642341533 6.9904233065 3.3874521848 0.9586599050 8.4492531486 0.2852079587 3.3779032715 6.9135784735 5.8049883809 0.9382236919 1.7023427381 3.1887972059 1.2513624219 3.3299984611 2.6538139900 3.7738514299
4.9530553368 3.1163319229 2.3443406069 2.6333018240 4.6098177614 4.7375635289 2.1443864121 1.4180302139 2.3047014843 7.3496737811 1.6001491073 -0.0488313441 7.8149478698 4.6060032745 2.5013334588 0.9981057571 4.5210087099 2.0002104751 3.8774403691 1.5111312376 4.5489820557 8.9668904384 1.5154455419 2.7415807013 6.0925921188 4.7064583776 0.2377345123 1.1918283684 4.5527393519 3.5267115402 3.7199025235 1.5147961431 1.0942182625 8.8246042687 1.4995229610 1.2037218742 6.2746545417 4.6353593295 3.6899527586 4.5639056682 4.6134638712 0.5200739430 0.4774018797 1.4414523573 3.2881385227 5.3911062966 1.6042413560 4.2291173739 9.4737028607 4.6259600454 1.5162388218 1.7560039312 5.7260656865 1.3059920168 3.1440113983 0.3262531795 3.8185962355 8.1792994167 2.7331304290 3.3765295021 6.7726963030 3.4777556458 0.9768257111 8.2241919324 0.3297573002 3.4752344856 6.7557262986 5.9218411630 0.9567385248 1.7190399797 3.2948681926 1.3327054713 3.1892421330 2.7353833836 3.8165565014
4.8743183240 3.3068189375 2.4808064230 2.6994926107 4.6364978489 4.9089778915 2.1951854060 1.4659789743 2.4533121688 7.2481017130 1.5030198851 0.0445675650 7.8211024856 4.6870690600 2.5676889507 1.0830548831 4.5826871666 2.1949693684 3.9473681711 1.5150085421 4.6947466014 8.9013518594 1.5779148119 2.7999928443 6.0781081855 4.6846702582 0.3108244957 1.1992622272 4.5965012560 3.7336676853 3.7987441318 1.5571949639 1.2114488125 8.7348237621 1.5225268108 1.2752431625 6.2810156565 4.7059927403 3.7924754534 4.5699235815 4.7221067857 0.6436945770 0.4624190487 1.5009643586 3.1796974787 5.4401790312 1.5432952363 4.2748777333 9.5291652997 4.6041806974 1.8020397134 1.8044937707 5.8048413561 1.5218943774 3.1937088810 0.3000295466 4.0325857539 8.1477783144 2.7811661959 3.4820534939 6.7103107834 3.4205414630 1.0249782653 8.2022692248 0.3716559108 3.5559483406 6.8300190645 5.8714528812 1.0232660182 1.8428145760 3.3704722845 1.5354349924 3.2261064400 2.7369192042 3.9778881764
5.2282370375 2.9597284440 2.4236245437 2.7968940458 4.5183957182 4.8594718360 2.1547485705 1.4378530133 2.3855457352 7.4252209962 1.5203019097 -0.0020373572 8.0172621338 4.6589905182 2.4902954504 1.0769177450 4.5030773140 2.1854310404 3.9744001476 1.4528721527 4.6346751862 9.1046675287 1.5752681039 2.7438918421 6.2101039475 4.5786130870 0.2375630527 1.2462256091 4.5256964045 3.7104139023 3.7955353491 1.4506568247 1.2290450002 8.9471778014 1.5568341794 1.2153163065 6.3633633895 4.6178952285 3.6409639391 4.7138078361 4.5085131464 0.6519808322 0.3930176624 1.5108588809 3.1716664693 5.4838565820 1.5432371081 4.2718834153 9.7989403425 4.5670298917 1.7310052110 1.8447317406 5.6908229974 1.4818723721 3.2861407954 0.2547349719 3.8753962754 8.3370802058 2.7673066013 3.4540965252 6.9498625653 3.3653561022 0.9467185714 8.3304815063 0.3607326193 3.4131589678 6.9348283822 5.7894686626 0.9524158880 1.8752936205 3.2984907834 1.5163314301 3.2734313092 2.6769835497 3.9009574876
4.7211718579 3.3921696335 2.4346619109 2.6738176541 4.5963108515 4.9079344402 2.2238752064 1.4455890919 2.3723903543 7.2841674657 1.5714296440 0.0064252929 7.8038346386 4.7866850786 2.5350933446 1.0779341285 4.6089036756 2.1572815380 3.9078149179 1.4685397395 4.6254755220 8.9373167930 1.6259791937 2.7920491037 6.0628384300 4.7171111336 0.2420389913 1.2216632280 4.6463703757 3.6896499402 3.7528843032 1.5250679507 1.1536510729 8.7276140729 1.5991531273 1.2665728473 6.2460611736 4.6546870177 3.7339341540 4.5481807763 4.6611358036 0.5541227624 0.5121951335 1.5075283412 3.2128837401 5.4063434791 1.6055824629 4.2740869694 9.5104260217 4.6898507806 1.6884587551 1.8313180387 5.8198333189 1.4763627589 3.2091871474 0.2474427657 3.9248308216 8.2027418075 2.8102830099 3.5167643293 6.7204664874 3.5107222393 1.0022156343 8.2035961807 0.3865334233 3.4852071064 6.7752376584 5.9460475214 0.9174040962 1.8492316935 3.4046936048 1.4946763761 3.1747498952 2.6868069665 3.9467270165
5.3100099492 2.7788227604 2.3366166994 2.7666329775 4.4722726241 4.7041016090 2.1371389716 1.4737105723 2.2924326034 7.5332722772 1.5314708549 -0.0432530176 8.0496936092 4.5900249395 2.4415406424 1.0112916765 4.4614031537 1.9812136402 4.0032787002 1.3936301966 4.5392005886 9.2015408589 1.5221074248 2.7010189709 6.2564642176 4.5967363514 0.2279136499 1.2591125610 4.4492774485 3.5036372207 3.8133187783 1.5003197909 1.1299086411 9.0295967811 1.4716925354 1.1668480949 6.4302674196 4.5143650453 3.6352788600 4.7394798512 4.4724979897 0.5265475818 0.4148752825 1.3893002027 3.1751960082 5.5256002390 1.4757171630 4.2422112207 9.7874688985 4.5453950347 1.5513196272 1.8085820744 5.6440896146 1.3007501104 3.3009719275 0.1886453469 3.8329545979 8.4658321564 2.7405119856 3.3655849606 6.9927973264 3.3695389149 0.9189247693 8.4051496335 0.3377470705 3.4062746487 6.9711710202 5.7900326899 0.9328372660 1.7079911863 3.2310186519 1.2841314849 3.3310871890 2.6126674393 3.7734915230
5.1459361727 2.9633498322 2.4804862385 2.7492014941 4.5525880439 4.9094315138 2.1931835979 1.4379754434 2.4586210942 7.3541986772 1.4961788709 -0.0364494861 7.9092994915 4.5353372187 2.4496321703 1.0568610446 4.4729516859 2.1527264540 3.9581210980 1.4706322606 4.7216039476 9.0264927497 1.5080160126 2.7102664450 6.1484970284 4.5806085678 0.2155961672 1.2614096723 4.4832245418 3.6765093075 3.8148077733 1.4572904968 1.2434222432 8.8810623628 1.4897585553 1.1825226131 6.2736894616 4.5519871299 3.6828628004 4.6576198002 4.5359935114 0.6472088291 0.4118461123 1.4641145221 3.1749200891 5.4537579177 1.4751687499 4.3130879080 9.6683855273 4.5037377521 1.7057698258 1.8016296934 5.6984113344 1.4793165569 3.2128008253 0.2901161527 4.0060710624 8.2485572836 2.7028195354 3.3980582108 6.8722710951 3.3491656713 0.9205552323 8.2708563951 0.3073867190 3.3904878455 6.8808158409 5.7812400517 0.9049507000 1.8082485123 3.2730100912 1.4733017504 3.2816047284 2.7050847761 3.9838863761
4.9715299915 3.0633116450 2.3586259023 2.6512467777 4.5624214251 4.8355060299 2.1694023853 1.4021759742 2.3322244592 7.3531912277 1.5996092429 0.0324705891 7.8698753996 4.6027550160 2.5262155851 1.0064613044 4.4790860662 2.0460171712 3.9194992131 1.4825364438 4.5988813665 9.0028241993 1.4882589676 2.8105520754 6.0942692782 4.6840692223 0.1931917908 1.2005447017 4.5229067837 3.5693322812 3.7604433005 1.5391462130 1.1003210887 8.7535816052 1.4989306194 1.2967469494 6.1893187012 4.5929342642 3.6801586682 4.5952016687 4.6220884139 0.5896893131 0.4797252913 1.4785649292 3.2010601134 5.4287516236 1.5180727579 4.2747245408 9.5421116586 4.5928055583 1.6110370709 1.7449850122 5.6972282882 1.3675930473 3.1859005298 0.2863918414 3.8956426109 8.2541602908 2.6785909123 3.5119979708 6.8295630545 3.4609006281 0.9072538585 8.3521998697 0.2457696512 3.5175689597 6.8474948127 5.8776034383 0.8747276793 1.7233627901 3.2671026334 1.3464279808 3.2387195833 2.7261730843 3.8844367549
5.2239137092 2.9579019706 2.4237257649 2.7941891760 4.5213982258 4.8641349123 2.1528851626 1.4361290029 2.3854799767 7.4227019940 1.5230589281 -0.0058050845 8.0104880560 4.6558412161 2.4868367550 1.0750709151 4.5023803755 2.1870117169 3.9715880561 1.4576680572 4.6386759089 9.1012022095 1.5736807956 2.7409663423 6.2073572944 4.5803840073 0.2374935116 1.2417234777 4.5301851044 3.7120831797 3.7978875793 1.4447740550 1.2321829906 8.9471865285 1.5560599134 1.2091303080 6.3566778197 4.6213757678 3.6413018190 4.7150006247 4.5130428184 0.6501220939 0.3939424768 1.5124181847 3.1697451572 5.4798281298 1.5478675763 4.2745359566 9.7949369494 4.5617532217 1.7316645367 1.8413708119 5.6928069596 1.4801900626 3.2867193660 0.2566516834 3.8797270321 8.3364484453 2.7686834932 3.4509820594 6.9450944993 3.3671297326 0.9468463076 8.3265290603 0.3600513420 3.4101522192 6.9325835175 5.7907965852 0.9505683968 1.8731132687 3.2978053339 1.5190104421 3.2666675630 2.6805037533 3.9086062921
5.1616014831 2.8316562252 2.4134504759 2.7552008466 4.4786251588 4.7377371716 2.1370576124 1.3653650188 2.2731849417 7.3858816475 1.5318134778 0.0530942257 7.9619844436 4.5191069126 2.4769844499 1.0102565509 4.3962810753 2.0141050797 3.9395594789 1.4164763230 4.5712107452 9.1109672903 1.5041641337 2.7613046861 6.1257029570 4.5946028314 0.2618358821 1.2569651113 4.3888577376 3.5312016934 3.7952494123 1.4896603020 1.1483026333 8.9183420299 1.5190774163 1.2257978520 6.2679363724 4.4819861306 3.6845236526 4.6146508082 4.5039159194 0.6219918684 0.4507938722 1.5059311331 3.2171620964 5.4567383692 1.4378897458 4.2549879999 9.6661652525 4.4956165244 1.5899504386 1.7590678792 5.6051304021 1.3176389583 3.2028062744 0.2274184565 3.8725048563 8.3192272164 2.6912558445 3.4431829561 6.8648912313 3.3672058258 0.9702555760 8.3929570633 0.2766365349 3.4493480724 6.8502726604 5.7913542037 0.9527423518 1.7141662960 3.1718814650 1.3284234809 3.2966613157 2.6529651816 3.8300432586
5.1576939715 2.8356316781 2.4140492989 2.7544281757 4.4791009171 4.7412971390 2.1377139610 1.3636700920 2.2741734924 7.3832304260 1.5321219877 0.0536987623 7.9596388890 4.5188150996 2.4781612502 1.0103273703 4.3965659066 2.0147398796 3.9390340427 1.4175853959 4.5728007939 9.1081601817 1.5052015725 2.7632372742 6.1240093797 4.5945703723 0.2615574101 1.2557908654 4.3928957195 3.5318523935 3.7957745357 1.4901333706 1.1468032211 8.9137932433 1.5174394974 1.2279368876 6.2671189672 4.4833638177 3.6858244605 4.6136685033 4.5061331878 0.6216774889 0.4509943879 1.5071716853 3.2182969027 5.4560109462 1.4380167074 4.2549407650 9.6640506822 4.4938733799 1.5915852845 1.7579393409 5.6053611568 1.3176702781 3.2039033485 0.2265558851 3.8749951222 8.3174943258 2.6917530698 3.4458388305 6.8608405415 3.3672359759 0.9713404583 8.3891178194 0.2778133282 3.4523664571 6.8486439495 5.7889192239 0.9527544690 1.7150602320 3.1736831448 1.3283311691 3.2950922454 2.6527682435 3.8313237711
5.2813974597 2.8119296345 2.3364069554 2.7650106322 4.4813825193 4.7393073405 2.1592748468 1.4769511228 2.3051049395 7.5125992060 1.5288726573 -0.0455072524 8.0442730617 4.5973449519 2.4440733476 1.0196795621 4.4851657851 2.0003325735 4.0113750455 1.3908684003 4.5582124339 9.1939358293 1.5349886079 2.7066899893 6.2581017770 4.5816482683 0.1955637464 1.3049713252 4.4813071635 3.5147274469 3.8085529826 1.5319323029 1.1207048248 8.9878412455 1.4623737553 1.1934962100 6.4473092045 4.5088309640 3.6261212464 4.7473296892 4.4877977403 0.5215041904 0.4230818006 1.4013425540 3.1807505485 5.5331073805 1.4832439700 4.2440509896 9.7776993991 4.5714680914 1.5630497034 1.7759105280 5.6807856223 1.2753484974 3.3248585740 0.1689749049 3.8535635029 8.4861771721 2.7786364700 3.3734629255 6.9881855379 3.3629521030 0.9313118070 8.3896233568 0.3680731763 3.4295830425 6.9737977627 5.7815835326 0.9423191335 1.7220186126 3.2448934048 1.3177637568 3.2921685975 2.5818566902 3.7639138074
5.0669594601 3.0067908139 2.4114992896 2.7409389194 4.4656632528 4.8325696360 2.2273686589 1.4725939808 2.2901762589 7.3729473730 1.4444272223 0.0489500055 7.9532470511 4.5908134449 2.5038708727 1.0881517560 4.5174206369 2.0370365876 3.9806805269 1.3640537317 4.6282574925 9.0956717117 1.5823896255 2.7751278412 6.1624605426 4.5434767310 0.2090050624 1.3221653223 4.4782753050 3.5566757159 3.8335734069 1.4481133812 1.1524547304 8.8215966512 1.5026169839 1.2682513240 6.3067826076 4.4938952012 3.6933989947 4.6434051056 4.5209992193 0.5740454323 0.4626822743 1.4944327191 3.1171629369 5.4973518987 1.4227688797 4.2816301187 9.7297674524 4.6473451505 1.6406918292 1.8456524618 5.6980648522 1.3056115855 3.2857784825 0.1529025445 3.9353693331 8.4061342304 2.8434124429 3.4116428941 6.8406616466 3.3089133790 0.9313782310 8.3410335574 0.3858938219 3.5210336299 6.9021846404 5.7185713504 0.9629242478 1.8161209036 3.2979643855 1.3240930595 3.2644903869 2.5750002846 3.8789585439
5.3078600323 2.7824968656 2.3359399689 2.7665454158 4.4736067212 4.7086226467 2.1400384910 1.4744055627 2.2941657472 7.5316196190 1.5312064041 -0.0444410524 8.0495560170 4.5911927211 2.4421302554 1.0123050368 4.4656438718 1.9833667493 4.0052130990 1.3919675628 4.5410315460 9.2009116302 1.5241960381 2.7028093452 6.2580599200 4.5960346338 0.2240823979 1.2658007344 4.4534724630 3.5044285566 3.8126231284 1.5059911084 1.1304365513 9.0265343971 1.4690336072 1.1707434256 6.4339917120 4.5135018070 3.6351393967 4.7400251064 4.4737657778 0.5246936716 0.4154607316 1.3903038380 3.1751815016 5.5271070595 1.4779982582 4.2422835883 9.7860789638 4.5477162900 1.5517589128 1.8044864013 5.6475300306 1.2978695531 3.3050401024 0.1871282288 3.8353154649 8.4696632686 2.7458308429 3.3661247659 6.9926447919 3.3679453453 0.9198780584 8.4022617004 0.3419047553 3.4096029706 6.9735534755 5.7885753939 0.9347292817 1.7094193426 3.2327696112 1.2885968168 3.3270465427 2.6080399179 3.7721509319
4.8658000965 3.2033208853 2.4695396298 2.7310815710 4.5854503310 4.8997064073 2.2056286319 1.4944963929 2.3514172488 7.2779538444 1.4474350568 0.0794865057 7.8757559318 4.6510479339 2.5398751581 1.1150854291 4.5718398480 2.1615981581 3.9527614163 1.4518750472 4.6283944305 8.9448098563 1.6149322432 2.8130091858 6.0947306932 4.6054711840 0.2584576831 1.2461635086 4.5796612905 3.6924243218 3.8368493181 1.4892574344 1.1730249747 8.7296908913 1.5530245726 1.2950757404 6.2358210359 4.6277777595 3.7301394070 4.5799214437 4.5729433320 0.5981514117 0.4505798317 1.5538466400 3.1689474149 5.4505702417 1.5324484908 4.2440792311 9.6227911222 4.6842006480 1.7166994611 1.8696379524 5.7793418729 1.4868259432 3.2345637123 0.2476614608 3.9332875510 8.2117825267 2.8316417791 3.4711154451 6.7759903473 3.3887881520 0.9884476029 8.2220521504 0.3799801891 3.4964885057 6.7903038430 5.8113984197 0.9744374471 1.9016823431 3.3735148565 1.5100337425 3.2091464636 2.6688167555 3.9441613325
4.8505519782 3.2373209608 2.4665865552 2.6636932399 4.5925103277 4.9161614768 2.1742938718 1.4373329055 2.3897220171 7.3233737375 1.5690226374 -0.0112931649 7.8280713263 4.6438739412 2.4342755330 1.0769958070 4.5375950270 2.1541698832 3.9373706314 1.4673341534 4.6543982468 8.9261169152 1.5712162423 2.7272118979 6.1063461888 4.6656312237 0.2367994262 1.1867496850 4.5637577778 3.6843582183 3.8274751256 1.5321786307 1.1948730203 8.7871892485 1.5425711228 1.1933958441 6.2194214401 4.6504619956 3.6988134608 4.5900873551 4.6217128765 0.5943776550 0.4476293422 1.5075510827 3.1842240106 5.4351049246 1.5262603868 4.2380852679 9.5700101484 4.6897157841 1.6588650781 1.8483645326 5.7451740127 1.4578546056 3.1960239055 0.2472716118 3.9826678757 8.1544659384 2.8004388656 3.3469870663 6.7833638438 3.4211401225 0.9426050449 8.2065796339 0.3630683303 3.4475053979 6.8394990211 5.8608113233 0.9433920240 1.8548953096 3.3388513769 1.4807008301 3.1872608923 2.6673019328 3.9376274321
5.0564323239 3.0482526592 2.4827923723 2.7196321331 4.5634565198 4.9157281306 2.1853497266 1.4320592491 2.4404708623 7.3368063553 1.5234268999 -0.0334305168 7.8758486565 4.5473090365 2.4340043522 1.0562869001 4.4864754329 2.1549796083 3.9491565327 1.4640313192 4.7027254301 8.9922029173 1.5234495710 2.7065861676 6.1234735920 4.6060703547 0.2082915618 1.2374178418 4.4824729215 3.6796342100 3.8148945209 1.4818851060 1.2327679750 8.8466866308 1.4997101679 1.1742076872 6.2831984311 4.5878942863 3.6843505934 4.6353578789 4.5381918206 0.6601784707 0.4196672438 1.4794834872 3.1921339667 5.4470055664 1.4944638210 4.2783500568 9.6309178752 4.5670262527 1.6685282982 1.8046478192 5.7108381274 1.4719453543 3.1973227947 0.2645529893 3.9990806326 8.2063925726 2.7337339396 3.3672186217 6.8500991978 3.3762985504 0.9047623160 8.2313776175 0.3205830652 3.4158801131 6.8886199836 5.7707737647 0.9273872179 1.8196468355 3.2808101816 1.4806653367 3.2642557511 2.6923481954 3.9954029169
4.8574339794 3.2215718841 2.4733913266 2.7300219689 4.5949222248 4.9020311170 2.2063248367 1.4976339010 2.3609372972 7.2705153691 1.4491664320 0.0800353029 7.8679958949 4.6573602527 2.5500373507 1.1111300162 4.5736796179 2.1723122488 3.9561566101 1.4575408968 4.6425031243 8.9343018578 1.6146606616 2.8204020717 6.0866780962 4.6195780771 0.2698271127 1.2334191435 4.5816417971 3.7066113447 3.8339373008 1.5055047813 1.1809718735 8.7264491034 1.5482679471 1.3036848778 6.2461233755 4.6397267117 3.7401531377 4.5752400307 4.5921137680 0.6034878138 0.4535280815 1.5574173894 3.1723593233 5.4503520353 1.5429780946 4.2407097205 9.6082832439 4.6834712038 1.7312012721 1.8639303888 5.7752691436 1.4898860865 3.2293268937 0.2549600715 3.9416396088 8.1980389363 2.8357902762 3.4711503152 6.7639806943 3.3909858687 0.9924211878 8.2079426537 0.3797171491 3.5059481585 6.7975075066 5.8208925910 1.0000196335 1.9054690918 3.3730612099 1.5199791160 3.2120415521 2.6775789311 3.9513149261
4.9443884738 3.0980040579 2.4238881694 2.6682020016 4.5973154988 4.7423881553 2.1022318367 1.4351366885 2.2866429802 7.3233776744 1.5206522079 -0.0490695967 7.8190232732 4.6128566090 2.4791822281 0.9987553037 4.4977596642 2.0042550140 3.8737866627 1.4970677641 4.5490979709 8.9447875625 1.5638472428 2.6914518833 6.0847264141 4.6546164515 0.2634757675 1.1820634813 4.5703321490 3.5288360742 3.7659344040 1.5259289996 1.1077255538 8.7944650454 1.5495919188 1.1567946247 6.2529000544 4.5726379303 3.7102621241 4.5578346713 4.5677927133 0.5336056102 0.4634462345 1.4217838873 3.2679946107 5.3792925984 1.6047090898 4.1837011691 9.4660639397 4.5949323821 1.4819254130 1.7121262571 5.7090406575 1.2865363654 3.2210183647 0.2677358094 3.8253510077 8.2274693508 2.7696171106 3.3821910905 6.7718279659 3.4500766762 1.0273823160 8.1676205450 0.3571545512 3.3652708912 6.7248687381 5.8871848649 0.9837261743 1.7598019945 3.2839376701 1.3521627595 3.1281813893 2.6889093959 3.8067080272
5.1468103605 2.9352457854 2.4271450808 2.7602153210 4.5552115358 4.9096101041 2.1414351611 1.4113648396 2.3873981877 7.3976585147 1.5544517174 -0.0375185566 7.9419007312 4.6253170958 2.4405058247 1.0660769895 4.5057555844 2.1876822969 3.9481470851 1.4964630350 4.6684395552 9.0714151855 1.5570898040 2.6860010169 6.1847842590 4.6220672624 0.2226447643 1.2245228456 4.5722757267 3.7194193391 3.8362451891 1.4099471233 1.2370349010 8.9062698243 1.5533288495 1.1639973376 6.2853166083 4.6235494266 3.6550249640 4.6795785341 4.5512411972 0.6222564745 0.4006002139 1.5176690513 3.1607743177 5.4581625715 1.5950587372 4.3022476662 9.7205259310 4.5059097860 1.7373506884 1.7876119574 5.7152034551 1.4682867314 3.2667683693 0.2825985267 3.9536364276 8.3343897919 2.7686887288 3.3786901038 6.8981505307 3.3958919478 0.9417921631 8.3081368825 0.3618756978 3.3739264274 6.9241391345 5.8109310981 0.9248497494 1.8277993198 3.2999340607 1.5267018798 3.2028972603 2.7121264054 3.9933205135
4.9588555845 3.0881532374 2.3408046070 2.6301062151 4.5845875963 4.7962987465 2.1650236195 1.4090005014 2.3262477623 7.3661812354 1.6138751583 0.0023174223 7.8566849003 4.6077463417 2.5166145672 1.0034150794 4.4991515951 2.0294273983 3.8918244509 1.5133766800 4.5871603786 8.9983003705 1.4821835399 2.7845537445 6.0983858062 4.7118925391 0.2050786933 1.1925355470 4.5385554481 3.5615137677 3.7283109928 1.5109337842 1.1019441776 8.7586771346 1.4870190118 1.2642660729 6.1999642101 4.6301539252 3.6759018588 4.5812991296 4.6305475795 0.5733029341 0.4842252585 1.4710535466 3.2401380865 5.4104126101 1.5319138112 4.2505642192 9.5081001706 4.6235822765 1.5791132181 1.7585089851 5.7240289720 1.3410858270 3.1814231810 0.2964251627 3.8811575895 8.2189340232 2.6999505523 3.4606879736 6.8178293742 3.4792945618 0.9194401355 8.3212695096 0.2675775579 3.5081777884 6.8281571638 5.9054494804 0.8958831169 1.7058848468 3.2845163850 1.3331444810 3.2359537806 2.7502041551 3.8550114791
4.9535614176 3.1057323455 2.3329486807 2.6226800018 4.5987151529 4.7576518375 2.1590270885 1.4122902660 2.3143970751 7.3628713426 1.6148937941 -0.0271997999 7.8343307993 4.6063409492 2.5082972045 1.0006227478 4.5193285753 2.0166324793 3.8813262339 1.5204134425 4.5744932608 8.9825617350 1.4949013258 2.7602520136 6.0920753145 4.7197076593 0.2112553151 1.1968344390 4.5417674895 3.5427662020 3.7100880900 1.4985358385 1.0952033349 8.7892353909 1.4885980815 1.2386103774 6.2360953352 4.6450425128 3.6846651515 4.5843498883 4.6260825000 0.5487249064 0.4818538083 1.4582508540 3.2720975574 5.3892558602 1.5627347692 4.2309921459 9.4965146990 4.6276558312 1.5393751832 1.7604778694 5.7173415242 1.3161120265 3.1642156774 0.3178023753 3.8506785290 8.1959614950 2.7074001662 3.4061840576 6.7948218037 3.4806235949 0.9491572953 8.2724560513 0.2950296285 3.5001344800 6.7916150566 5.9144329742 0.9229906522 1.6988275731 3.3017981584 1.3282721476 3.2206003017 2.7471033550 3.8248740654
4.7602052402 3.3298984660 2.4550700955 2.6607775411 4.5988571285 4.9128780557 2.1943561911 1.4434654034 2.3712787161 7.3069051482 1.5768517285 -0.0000341011 7.8098296438 4.7194826021 2.4821236716 1.0840967822 4.5819931101 2.1588371234 3.9258148034 1.4697045043 4.6459678786 8.9164265335 1.6100625989 2.7565786806 6.0760277184 4.6966278292 0.2257590220 1.2103872528 4.6208945692 3.6889318923 3.7964495673 1.5298353501 1.1707426610 8.7748818583 1.5596297206 1.2263803126 6.2334433392 4.6602656304 3.7030501294 4.5680338971 4.6659271251 0.5771362887 0.4773442888 1.5077656942 3.1876078726 5.4194432268 1.5562361855 4.2493103321 9.5429913097 4.6994021994 1.6625042641 1.8624315095 5.7795786094 1.4882570964 3.2045607448 0.2596563338 3.9652285269 8.1595749271 2.8068826936 3.4304599262 6.7464258988 3.4808999856 1.0008318799 8.2127998864 0.3926082147 3.4624367408 6.7872871541 5.8933709927 0.9436849368 1.8417458421 3.3784056740 1.4933251910 3.1598119823 2.6593383666 3.9114015683
5.1177343154 2.8805074326 2.4190097342 2.7430861140 4.4832463180 4.7765981440 2.1438106713 1.3494119463 2.2852358204 7.3597014447 1.5358732469 0.0567587449 7.9353781219 4.5211293847 2.4909528608 1.0141986684 4.4001387075 2.0242347183 3.9388658820 1.4325136076 4.5901507060 9.0780044003 1.5120460899 2.7793174172 6.1080439445 4.5899029526 0.2473470972 1.2450214081 4.4398933155 3.5422559649 3.7967672237 1.4898235865 1.1355553375 8.8654159665 1.5036641843 1.2544521344 6.2635765510 4.5031469002 3.6984088846 4.6101180121 4.5316196495 0.6213405046 0.4537600581 1.5158337160 3.2270568058 5.4534927381 1.4400101870 4.2503234153 9.6368610956 4.4768707326 1.6056161097 1.7515662758 5.6158691490 1.3153967834 3.2142681028 0.2195719495 3.8940513796 8.3006436166 2.7033621244 3.4706755200 6.8210426694 3.3700912229 0.9861997616 8.3482001757 0.2896353029 3.4802327071 6.8364787932 5.7732701524 0.9578692019 1.7265896249 3.1952772092 1.3224337778 3.2762229029 2.6496116581 3.8409296932
4.9966843572 2.9744584855 2.4441380642 2.6958053352 4.6044917188 4.9694901071 2.1768112681 1.3715692385 2.4109559742 7.3814491180 1.6024387031 -0.0780264498 7.8629795721 4.6185508611 2.4160389059 1.0458524833 4.5085456992 2.1747015609 3.9203578240 1.5116565373 4.7401393864 9.0063569321 1.5367246203 2.6642463267 6.1324348029 4.6689255744 0.1848781984 1.2874645445 4.5943425117 3.6863598093 3.8236308675 1.4785957446 1.2635004987 8.8581521219 1.5585990589 1.1366793142 6.2531267683 4.5811287350 3.6749544891 4.6329316514 4.6187368831 0.6259058925 0.4148552856 1.4869472442 3.1602233111 5.4169029709 1.5984951509 4.3219595925 9.6312842087 4.5201366096 1.6983308314 1.7239384473 5.7475717891 1.4447172273 3.1891300528 0.3263877097 4.0147221955 8.2287043620 2.7346834537 3.3416512925 6.8439289462 3.4619720620 0.9473080109 8.2831192881 0.3104393878 3.3266927889 6.8692185690 5.8758956414 0.8457035872 1.8230360141 3.3334241059 1.4912924478 3.2176392837 2.7361155067 4.0445659792
5.0794174320 2.9975802683 2.4021047181 2.7540546608 4.4596558733 4.8311242588 2.2306552471 1.4759998694 2.3015744183 7.3815400099 1.4530137203 0.0628023823 7.9655560302 4.5994303663 2.5047488551 1.0907499813 4.5200246023 2.0367199703 3.9960610616 1.3636585058 4.6145286061 9.1120565144 1.5813235419 2.7787726370 6.1714749310 4.5485658412 0.2114427372 1.3325827135 4.4669556365 3.5513697250 3.8365304621 1.4681231184 1.1463061983 8.8345608834 1.4855011898 1.2695105818 6.3430555467 4.4999176379 3.6929251158 4.6615473361 4.5232690741 0.5559598719 0.4656509565 1.5152717655 3.1085499083 5.5082896134 1.4103349304 4.2709334478 9.7536148808 4.6583436080 1.6708904715 1.8588011266 5.7187542817 1.3194389967 3.2791870195 0.1482845867 3.9422442534 8.4258856757 2.8472818018 3.4124278856 6.8372767714 3.3019096529 0.9183954113 8.3598067756 0.3913553732 3.5270341336 6.9072935752 5.7213142078 0.9635578979 1.8103846263 3.3003094747 1.3271785922 3.2772578666 2.5753005967 3.8799611874