-28927.8050645608
-28927.7916924855
-28927.8357463328
-28927.8531652831
-28927.7857975504
-28927.8127554464
-28927.8111265738
-28927.8438115107
-28927.7842405158
-28927.8096933509
-28927.8779715761
-28927.8242600054
-28927.84765811
-28927.8382599831
-28927.8421048136
-28927.8195234583
-28927.8410681965
-28927.813814649
-28927.8367353301
-28927.8473896698
-28927.8784000191
-28927.8385574034
-28927.8362879751
-28927.8518980496
-28927.8160750974
-28927.8126742204
-28927.8282660633
-28927.875901199
-28927.823816188
-28927.8428470037
-28927.8384284215
-28927.8716446605
-28927.8259043885
-28927.8415237148
-28927.8741740934
-28927.8291535621
-28927.7823276925
-28927.8102715925
-28927.7988237692
-28927.8435124578
-28927.7873567619
-28927.8265022223
-28927.8101318621
-28927.8171257284
-28927.8650660397
-28927.8427464577
-28927.8294331589
-28927.8531546707
-28927.8714154047
-28927.8433576251
-28927.8102096867
-28927.8220923477
-28927.8182194895
-28927.8122463216
-28927.8206980371
-28927.7752791314
-28927.8178175775
-28927.8459406644
-28927.8465843493
-28927.84375219
-28927.7480719792
-28927.8612247466
-28927.7993220094
-28927.8349942106
-28927.8068181976
-28927.8009001328
-28927.611343417
-28927.8460406662
-28927.7815755703
-28927.8069919422
-28927.8560046535
-28927.8717773159
-28927.8046324443
-28927.7945506317
-28927.830048272
-28927.8053887843
-28927.8364705634
-28927.8577400586
-28927.8818595366
-28927.878579342
-28927.8192909371
-28927.8338046655
-28927.813939277
-28927.8367464867
-28927.7836221374
-28927.7887312082
-28927.8059326035
-28927.8205833412
-28927.8149533087
-28927.8128106855
-28927.8692103313
-28927.8789918664
-28927.8286468864
-28927.8469877579
-28927.8620838096
-28927.8409311872
-28927.6114460038
-28927.8134388599
-28927.8298456833
-28927.8539771343
-28927.8443077101
-28927.8121484968
-28927.7800884689
-28927.8212217199
-28927.8190284835
-28927.8130172198
-28927.8680251401
-28927.8717339138
-28927.8231519584
-28927.8023300903
-28927.8215336983
-28927.802159475
-28927.8170430059
-28927.8770580904
-28927.8084827171
-28927.8578656391
-28927.8108241194
-28927.8333114594
-28927.7357452287
-28927.8257690119
-28927.8056701499
-28927.7953351355
-28927.8442183207
-28927.693748833
-28927.8427166613
-28927.837831404
-28927.8387451618
-28927.8338030328
-28927.8121644154
-28927.8403159382
-28927.8181996252
-28927.8442113818
-28927.8376196996
-28927.8269559719
-28927.8666859325
-28927.7753131456
-28927.7835010468
-28927.8216286659
-28927.8333862907
-28927.8517078421
-28927.8307168553
-28927.820891646
-28927.8000256954
-28927.8028752701
-28927.8365195439
-28927.8178222035
-28927.8356554468
-28927.8463289706
-28927.8519546493
-28927.8345465835
-28927.8277016995
-28927.8541542803
-28927.8380583469
-28927.8095466816
-28927.8219243175
-28927.8459066502
-28927.83914272
-28927.8208255224
-28927.8280991215
-28927.8745564131
-28927.8423542058
-28927.8274776138
-28927.7867065462
-28927.8213766886
-28927.8402632842
-28927.8397310298
-28927.8434932738
-28927.8507301376
-28927.7792978426
-28927.7855276136
-28927.6230798169
-28927.8414876598
-28927.8367679837
-28927.8818034812
-28927.8131242965
-28927.8270350209
-28927.8239021759
-28927.865155293
-28927.8115931127
-28927.7117167727
-28927.8381368517
-28927.8502192441
-28927.8432702766
-28927.834557332
-28927.8193627752
-28927.7785265363
-28927.8182043871
-28927.8323487212
-28927.7860590516
-28927.8261732368
-28927.8399251829
-28927.8580267304
-28927.8452567066
-28927.777439442
-28927.80334902
-28927.8231076039
-28927.8310923722
-28927.6470107201
-28927.8624993272
-28927.821078316
-28927.8703708962
-28927.7850201215
-28927.8169737529
-28927.6998879902
-28927.871208054
-28927.8743030753
-28927.8658196586
-28927.8298622822
-28927.8112758281
-28927.8296489451
-28927.8052246998
-28927.7177816428
-28927.8259355455
-28927.8451430991
-28927.8469938805
-28927.8126569412
-28927.8521855377
-28927.6543700351
-28927.8258419384
-28927.8789975808
-28927.877602726
-28927.8309390362
-28927.8319963339
-28927.8484562195
-28927.8385772677
-28927.8774593221
-28927.824536609
-28927.8402600188
-28927.8058277037
-28927.8229461044
-28927.6149315082
-28927.8578135293
-28927.8152750832
-28927.7907977756
-28927.7832387292
-28927.8652645466
-28927.7805990903
-28927.843022245
-28927.6866541486
-28927.7835323399
-28927.8228699126
-28927.8519648535
-28927.8353687751
-28927.8443550579
-28927.7811573315
-28927.8545647639
-28927.830783115
-28927.849603859
-28927.8140017271
-28927.8557148524
-28927.7781038076
-28927.8500065873
-28927.8808208786
-28927.8342492993
-28927.8641360911
-28927.8384329114
-28927.8275252337
-28927.7413815197
-28927.8258375846
-28927.8259413959
-28927.7790473619
-28927.8064881237
-28927.8146088128
-28927.8021409713
-28927.8595677103
-28927.8127701405
-28927.8279193904
-28927.8363298806
-28927.8193591016
-28927.8225352127
-28927.8471815029
-28927.8273291758
-28927.82164785
-28927.8748800924
-28927.8107461588
-28927.8331375788
-28927.833181117
-28927.8420535202
-28927.8751811862
-28927.7790128035
-28927.8091930699
-28927.8381641991
-28927.8242243585
-28927.8712756743
-28927.8389261175
-28927.63072662
-28927.8352912227
-28927.6167422888
-28927.803360993
-28927.832018103
-28927.8458205262
-28927.7795661467
-28927.8083359117
-28927.8825871687
-28927.8547658559
-28927.8413898349
-28927.8143952035
-28927.8482631548
-28927.8373403749
-28927.8133441644
-28927.8086635366
-28927.8188124252
-28927.8308184898
-28927.8685567142
-28927.8098989328
-28927.847952401
-28927.8321634117
-28927.8327532182
-28927.8126987107
-28927.8026943145
-28927.8680814676
-28927.855649273
-28927.8620538771
-28927.7897313621
-28927.8059198142
-28927.8138915211
-28927.8362131439
-28927.8211342353
-28927.8428410172
-28927.8831524849
-28927.8756316704
-28927.8350905388
-28927.8174681835
-28927.8544299315
-28927.8084429885
-28927.8409827528
-28927.8226066426
-28927.8763474655
-28927.8567122852
-28927.8357233392
-28927.8206734108
-28927.8505059159
-28927.8215297526
-28927.821707715
-28927.8532571215
-28927.8506189792
-28927.8684182083
-28927.8243855859
-28927.8275441456
-28927.8246574275
-28927.8425472705
-28927.7222249874
-28927.8376704488
-28927.613059502
-28927.7817550293
-28927.8276523108
-28927.7714628728
-28927.8053991246
-28927.7935285727
-28927.6197100969
-28927.8403770277
-28927.8400628724
-28927.8349415566
-28927.8159473401
-28927.860481196
-28927.8826345164
-28927.8556985256
-28927.8079350883
-28927.8303855569
-28927.8420087575
-28927.8290947856
-28927.8317723844
-28927.8658985715
-28927.8166563323
-28927.7196193627
-28927.8796716064
-28927.8626238192
-28927.8240251713
-28927.869709796
-28927.828653009
-28927.8379073238
-28927.8207392623
-28927.8688451547
-28927.7824608922
-28927.8297975192
-28927.8398083101
-28927.7871888677
-28927.835390272
-28927.8774566009
-28927.8395961974
-28927.8491906544
-28927.8368330189
-28927.8139471683
-28927.8044299917
-28927.8227432436
-28927.854524355
-28927.8149597034
-28927.8083791778
-28927.7916512603
-28927.8373965663
-28927.8044229167
-28927.8120841419
-28927.8078632502
-28927.8244896694
-28927.8760999781
-28927.8094040941
-28927.8337418073
-28927.8068569738
-28927.8387391753
-28927.8572374646
-28927.8752683986
-28927.8089561949
-28927.8317087097
-28927.8349504002
-28927.857841421
-28927.8237448942
-28927.8215058066
-28927.8231233865
-28927.8354271435
-28927.8013971485
-28927.7634415052
-28927.8695725146
-28927.8075382104
-28927.8009514262
-28927.8085216293
-28927.8692101953
-28927.7775401241
-28927.8618420366
-28927.8659830628
-28927.8463476104
-28927.8431853771
-28927.8668199485
-28927.8505038751
-28927.8234462494
-28927.7932072064
-28927.8319662654
-28927.8575650895
-28927.8213179121
-28927.8508080982
-28927.867373836
-28927.8448181954
-28927.8733777526
-28927.6436480751
-28927.8457077351
-28927.8255437018
-28927.8494022228
-28927.878986016
-28927.8444156032
-28927.8262703814
-28927.6350781262
-28927.8195269958
-28927.8610099129
-28927.7903485159
-28927.8089859914
-28927.8645939224
-28927.838762305
-28927.8221586074
-28927.8034759611
-28927.8093362017
-28927.8384658371
-28927.8409669702
-28927.8433919114
-28927.7860439493
-28927.8462586292
-28927.8576970646
-28927.7766701766
-28927.6142845579
-28927.6232934261
-28927.8194830494
-28927.8725618197
-28927.8494741968
-28927.862096735
-28927.8010859864
-28927.6788421725
-28927.8330043791
-28927.8089907534
-28927.8474261331
-28927.8420947454
-28927.8607251459
-28927.8059268892
-28927.8204410257
-28927.8205147685
-28927.8422582858
-28927.8681791565
-28927.7770931774
-28927.8102322721
-28927.8072545319
-28927.8391857139
-28927.8316043541
-28927.8040418215
-28927.8593592712
-28927.878490633
-28927.8139683932
-28927.8394972841
-28927.831757146
-28927.8254095497
-28927.8496257642
-28927.7774593063
-28927.8390025814
-28927.8748307037
-28927.810480984
-28927.8182262923
-28927.7990494875
-28927.8350978859
-28927.8279807521
-28927.8135577736
-28927.7932168664
-28927.8483754017
-28927.8808351646
-28927.8041761096
-28927.8241480306
-28927.8210331451
-28927.8471908908
-28927.8567962322
-28927.8353848298
-28927.776714259
-28927.8164229948
-28927.7949182573
-28927.8561237032
-28927.7784672155
-28927.8800865798
-28927.6491910311
-28927.817163008
-28927.8347410088
-28927.8697270752
-28927.8265290255
-28927.8695718344
-28927.808886942
-28927.8468330613
-28927.8333026157
-28927.838341073
-28927.8591501518
-28927.8346382858
-28927.8578596526
-28927.8357291897
-28927.8182173125
-28927.8505249639
-28927.8034845326
-28927.7973837435
-28927.8549559273
-28927.8472174219
-28927.8117784221
-28927.8455428342
-28927.8306637931
-28927.8242200047
-28927.8456835169
-28927.8128278286
-28927.829892895
-28927.829969359
-28927.8194721649
-28927.8401050501
-28927.8047910866
-28927.8430275512
-28927.839982871
-28927.8485549968
-28927.8127743583
-28927.820748106
-28927.8334943198
-28927.833480306
-28927.6284658994
-28927.8606851452
-28927.820927565
-28927.8729924396
-28927.8382671941
-28927.8710485954
-28927.6623480006
-28927.800072499
-28927.6405254343
-28927.8357676937
-28927.8161149621
-28927.7847414771
-28927.8094600134
-28927.7934202714
-28927.8112774608
-28927.8785085925
-28927.8342091625
-28927.8392474837
-28927.7798068312
-28927.8038476684
-28927.8080161781
-28927.8283312345
-28927.8632587965
-28927.8494929727
-28927.8437525981
-28927.8135330113
-28927.820207144
-28927.8324643695
-28927.814214384
-28927.8331390754
-28927.8262713338
-28927.873847829
-28927.8202680974
-28927.8320291236
-28927.7829077029
-28927.8422853611
-28927.7885109321
-28927.8227006579
-28927.8067810541
-28927.7151954742
-28927.8681873199
-28927.8530354849
-28927.8417020853
-28927.7759751982
-28927.8005481537
-28927.7814797862
-28927.7891840054
-28927.80541205
-28927.8457007962
-28927.8354214291
-28927.8267812749
-28927.8219338415
-28927.8055569506
-28927.6488745629
-28927.8286749141
-28927.8539923727
-28927.8551834143
-28927.8835005183
-28927.8036435831
-28927.8203998005
-28927.8125182993
-28927.8351679552
-28927.6100450265
-28927.8669079773
-28927.7906270243
-28927.839714839
-28927.7304428211
-28927.8359517787
-28927.8385291036
-28927.8593440328
-28927.8244634104
-28927.8599346556
-28927.8516853927
-28927.8631710399
-28927.8165265341
-28927.8363361393
-28927.8533194355
-28927.8243144281
-28927.6219989813
-28927.8731566602
-28927.815770194
-28927.8346465853
-28927.8441849868
-28927.8519067572
-28927.8399001484
-28927.7971621069
-28927.64697208
-28927.8731517622
-28927.7049298488
-28927.8037790957
-28927.8693266599
-28927.8402476376
-28927.8227375293
-28927.8796846679
-28927.7987757411
-28927.8523734322
-28927.8153650168
-28927.8347524375
-28927.8409594871
-28927.8179558113
-28927.7974427922
-28927.8383252904
-28927.8166806865
-28927.8257268343
-28927.8392881647
-28927.8354618379
-28927.832400967
-28927.8377743962
-28927.8403311765
-28927.8134780443
-28927.6706233863
-28927.8222660923
-28927.8117746125
-28927.8740267438
-28927.7755890689
-28927.8149473222
-28927.8213877093
-28927.8253937671
-28927.8754132991
-28927.8301017423
-28927.8468176868
-28927.8083734634
-28927.7844939897
-28927.8111526967
-28927.8212909728
-28927.8114714779
-28927.7760722068
-28927.830086776
-28927.8339209941
-28927.8676883994
-28927.8388345512
-28927.8119382889
-28927.8158642093
-28927.8696914283
-28927.8407907766
-28927.8092787857
-28927.8513059302
-28927.8644264364
-28927.8616146856
-28927.8282453826
-28927.8720543276
-28927.8170133455
-28927.7930423055
-28927.8517836258
-28927.8012160568
-28927.8438042997
-28927.822334801
-28927.8703170177
-28927.8336001721
-28927.8795433048
-28927.8099853289
-28927.8475027331
-28927.8557827448
-28927.8294424108
-28927.8146663648
-28927.8393068045
-28927.8834916746
-28927.8495812736
-28927.7900045642
-28927.8134775001
-28927.7824501437
-28927.8229437914
-28927.8094096724
-28927.6182400026
-28927.6183503447
-28927.8646378688
-28927.8113740612
-28927.8643858915
-28927.7857621756
-28927.7881917428
-28927.8076662399
-28927.7881697015
-28927.8214071654
-28927.8383134535
-28927.8349712169
-28927.8369161496
-28927.864130921
-28927.8500147507
-28927.8149044643
-28927.7164218907
-28927.7088442044
-28927.8637087365
-28927.8200490459
-28927.8140504355
-28927.8264763715
-28927.8317540167
-28927.8672507045
-28927.8231401215
-28927.8211267522
-28927.8210589959
-28927.7555340171
-28927.8377543959
-28927.7258013778
-28927.8189752853
-28927.8231188966
-28927.8344976031
-28927.8200105418
-28927.8767595817
-28927.6250156337
-28927.8078636584
-28927.6339857258
-28927.8578679521
-28927.8690052936
-28927.8123370716
-28927.8458314107
-28927.8234145481
-28927.8430885046
-28927.8155418907
-28927.8476507629
-28927.8245450445
-28927.8265479374
-28927.7805116057
-28927.8140513879
-28927.8221375186
-28927.8150565759
-28927.8196859102
-28927.8325703578
-28927.8342981437
-28927.8344850858
-28927.8249355277
-28927.8280742231
-28927.8197373397
-28927.857037461
-28927.8132298766
-28927.8065732952
-28927.8456063727
-28927.8089112961
-28927.8397376966
-28927.8583914988
-28927.8059143719
-28927.8135964138
-28927.8268887598
-28927.8105370394
-28927.8000843359
-28927.838575635
-28927.8381844716
-28927.8342069856
-28927.8202810228
-28927.8256227508
-28927.8105877886
-28927.8380690954
-28927.8322778356
-28927.8580910853
-28927.8203226562
-28927.8159228498
-28927.8148884096
-28927.8460390335
-28927.823715778
-28927.8430577558
-28927.8150220174
-28927.8359523229
-28927.833705344
-28927.8223637811
-28927.827269855
-28927.851796143
-28927.8025857411
-28927.8373822804
-28927.8543900669
-28927.8003677423
-28927.8094654557
-28927.8245277653
-28927.7996885465
-28927.8255672396
-28927.8761239241
-28927.8728988325
-28927.8174793402
-28927.8263733765
-28927.8310005338
-28927.8148218778
-28927.8399238223
-28927.8183652063
-28927.8116883525
-28927.8111875272
-28927.8097951214
-28927.841488204
-28927.8489665687
-28927.8095532124
-28927.8342561021
-28927.8424976098
-28927.8113409994
-28927.841885626
-28927.8780053182
-28927.8246782442
-28927.8434294631
-28927.8126395259
-28927.7797807083
-28927.8076851518
-28927.8757017397
-28927.8253449227
-28927.8319035432
-28927.8090695303
-28927.8496664452
-28927.8111884796
-28927.8039460375
-28927.8298977931
-28927.8588806232
-28927.7755019925
-28927.8389723768
-28927.8642000378
-28927.8315258493
-28927.8799574619
-28927.8375772498
-28927.8357125907
-28927.6274209828
-28927.7775783561
-28927.7877653406
-28927.8087223132
-28927.8356515012
-28927.814795891
-28927.8391062567
-28927.7867981124
-28927.824376198
-28927.833085333
-28927.8419463074
-28927.8236365929
-28927.8756892224
-28927.8446576483
-28927.8010125157
-28927.8671449883
-28927.8193122981
-28927.8647405917
-28927.8151129034
-28927.7866562051
-28927.8163534698
-28927.7850678775
-28927.8067055425
-28927.8244231376
-28927.8713360835
-28927.8253257387
-28927.8086621761
-28927.8228387556
-28927.851310148
-28927.8356619776
-28927.8052173527
-28927.8356719097
-28927.8272705353
-28927.8558111807
-28927.8123837391
-28927.8735543544
-28927.8801797788
-28927.8267156955
-28927.8682992947
-28927.8134800852
-28927.8275961194
-28927.8397522546
-28927.8280617059
-28927.8445200948
-28927.8831777914
-28927.825201927
-28927.8311867957
-28927.6208770565
-28927.8425472705
-28927.8668794054
-28927.8836060984
-28927.8651476738
-28927.8267879417
-28927.8236888388
-28927.8397204173
-28927.8505663252
-28927.8517885238
-28927.8743852536
-28927.8073586154
-28927.824228032
-28927.8251138982
-28927.8386261121
-28927.8330002974
-28927.8078145419
-28927.8441664831
-28927.8408620704
-28927.7771256949
-28927.8668862082
-28927.6098334581
-28927.8488578593
-28927.7919534425
-28927.8249692698
-28927.8068305787
-28927.8276727194
-28927.8290376417
-28927.8582468704
-28927.8078982168
-28927.8421048136
-28927.8111735134
-28927.7137402101
-28927.8124347604
-28927.8423563827
-28927.8595747852
-28927.8794201734
-28927.8363180437
-28927.8328567574
-28927.8197180196
-28927.8401349826
-28927.7967897193
-28927.8711038345
-28927.8482868287
-28927.8154903251
-28927.8346437281
-28927.8341498417
-28927.8431672816
-28927.8061249879
-28927.7839104419
-28927.8424463163
-28927.8229420227
-28927.8056223939
-28927.8399342987
-28927.8449803751
-28927.8087372794
-28927.8070523514
-28927.8121661842
-28927.6391920772
-28927.8160227156
-28927.8261540528
-28927.8163042172
-28927.8398449094
-28927.609431138
-28927.8216185977
-28927.8067122093
-28927.7782529259
-28927.8289530143
-28927.7959570514
-28927.8089908894
-28927.8303665089
-28927.8627801485
-28927.8650942034
-28927.8261907882
-28927.810512141
-28927.8314778213
-28927.8100483232
-28927.8211776375
-28927.8461425728
-28927.8652806013
-28927.8658617001
-28927.8215413174
-28927.8347260425
-28927.7812558367
-28927.795271733
-28927.8211750524
-28927.8537575386
-28927.8378882758
-28927.8535605283
-28927.8370228182
-28927.8163508847
-28927.8060788647
-28927.8434150411
-28927.8232711442
-28927.810433092
-28927.8553413764
-28927.8477253221
-28927.8469406822
-28927.8561095533
-28927.8170790609
-28927.8156971315