-0.0547230742847921 -0.0506669040344297 0.053311796489138 -0.231287064851483 -0.0496657169809997 -0.0707153276806174 0.126918585290165 0.00179848573157232 -0.1404035001793 -0.101636940974867 -0.101800205941207 0.308351985616719 0.136035198166518 0.249217671918548 -0.0457969800541993 0.0355040880896483 0.517942293437438 0.468827306468879 0.0432611023171732 -0.0389671051473391 0.234392955864691 -0.11415486446494 0.133220355880706 0.197606145070995 0.0211689098246283 -0.132963502807677 -0.120042944770693 0.139370945683518 -0.0836767662367323 0.0513004235258656 -0.198779853057361 -0.167100536053183 0.163997730362173 -0.303874925996438 0.0946538283988121 -0.108892076124761 -0.0944360560736311 0.0751540778836002 -0.483751524163639 -0.0967788440630645 -0.0313103638912672 0.421073717920432 -0.0460484338133813 0.121840916281898 -0.152130552745811 -0.107614495624377 -0.206845142394558 -0.297440229441175 0.209113625541042 -0.0669224382578647 -0.118334190493061 -0.084912180667069 -0.323998425816123 -0.0587123958875192 0.31290180741885 0.11297035785088 0.152987500986459 0.231146939801632 -0.16802304739055 -0.0186109206118459 0.0118106133760552 0.122634358307293 -0.00322313325675348 0.0555818222967222 -0.119829800428809 -0.0964836815727364 0.190407059941041 0.0238531401373682 -0.0536236711413749 -0.100684347746064 0.0419369848736282 -0.102966200622076 0.0217106409806573 0.0465469704586306 -0.180722233559788
0.145206318401712 -0.208642342575214 0.0556615264535182 0.135646704679684 0.27776178734863 0.134820095440655 -0.208222738756211 -0.172900684676277 -0.167828929202225 0.167169441582284 0.0966168646476405 0.245676236254977 0.0855474999297874 -0.216535368089658 -0.31033841889222 -0.163095273619097 0.0647650267105276 -0.0961352972744833 -0.147034371804354 -0.573415615236844 0.193792943943769 -0.190670340768651 -0.136765391086842 0.117190307287948 0.00949919282897367 0.515591277922141 0.509142954527169 0.0887837458058847 0.095404590133793 -0.131732973470821 0.116099388780577 0.240784457909174 -0.306828607781184 0.0419981770972328 -0.0822878570270177 -0.0720530719638727 0.0234741597273127 -0.0738279035585894 -0.0277946392460177 -0.291476301631375 -0.0805595623754624 -0.101741070599068 -0.154526305432987 0.139876938524081 0.00542322509450392 -0.00289120401022598 0.130654396252244 0.0616115703134247 0.255158459811859 -0.118395125606483 -0.0467467450709868 0.217550953313348 -0.00831879997784451 0.206628655620292 -0.0503216050583751 -0.0584995086558191 0.212181207136952 -0.0060174067279083 -0.0492970209782728 -0.145529763012194 -0.0710781101491304 -0.194228745704314 -0.184328203879345 0.0300983464876028 0.230763845628645 -0.0914062696746535 0.0385120201230528 -0.0111866069613981 -0.12746725842114 -0.204667933363113 -0.0381019293808287 -0.00849543467371158 0.135256925641933 0.230743533924171 0.0762977039785299
0.245271544826601 -0.0562279401871356 -0.0568357486602502 -0.00377103505717958 0.0922693885596983 -0.1003943274594 -0.147704915162173 -0.262673533356981 0.339469516870577 -0.15615278445199 0.227872127398052 -0.252084707571552 -0.000228570952876024 0.0941030983863707 -0.0894190650686031 -0.513852184642891 0.210853747261026 0.165707255970354 0.185677775231028 -0.0756950377090795 0.317885888320426 0.149919919390549 -0.193749235212622 -0.0576667287723934 -0.363194616136705 0.0266499847103551 0.0526664499292743 -0.0133815565954843 -0.013669005780316 0.0336847764332358 -0.273078011141046 0.0755567124305111 0.0478806009789545 0.151955717821227 0.0178061657383904 -0.244567320034781 0.305589079587916 -0.0949803583314922 -0.428980113164403 0.053779737022585 -0.082999280903967 0.219902225938828 0.138555649292551 -0.0950808884131283 -0.073309826539416 0.0888076570529235 0.0619003050491725 -0.115171735239546 0.0978779900962985 -0.201206716076705 0.181221541535587 -0.0309228988451657 0.0550274927417158 -0.222312119686079 -0.0616138843050737 0.0101733357293572 0.0320847797631036 0.0234659322014499 -0.113752744138396 0.0933603070670694 -0.0105024367638693 -3.23958830847909e-05 0.0664187594089512 -0.00171158248964645 0.118884149174953 0.244725957017823 0.302675506991751 0.200022209462644 0.213917215094004 -0.120709117255396 -0.0658310055301271 -0.232362299637678 -0.0467531728255671 0.0647791677706043 -0.135821539604268
0.0665046342101442 -0.0436017733099299 -0.0631089800204551 -0.0591407414527514 -0.0868770166871799 -0.220798254927323 0.0421506434358779 0.141355322077554 -0.010781401312655 0.34748492683223 0.192850120901928 -0.0850566765900345 -0.126076806550326 -0.0898594948124463 0.153254638466817 0.0144182248541976 -0.0269248354962094 -0.196697774793705 0.093829018931066 0.104258950623269 0.219069703165585 -0.116279365908826 -0.0779735481527098 -0.440017081999172 -0.124469096574698 -0.248578753113265 -0.0547130469876468 0.0161604034556464 -0.10666395927704 0.0528479697186224 0.205231775994898 0.0757989102230974 -0.215249817173595 -0.253203651088893 -0.174014485989954 0.149100252126467 0.0558587299640422 0.235580804911133 -0.0610022191792108 0.0719054907187087 0.387575603480209 -0.196408011617224 -0.052506527395316 -0.0155921899507465 0.284065614820638 0.131693635612789 -0.147376842568393 0.183925826442618 -0.113299201775209 0.00209647643391575 -0.145272909939164 -0.1316720383574 -0.00560860153660022 0.133955691004694 -0.0154798328006826 -0.153464954596685 0.0700620107050741 -0.0623325072671529 0.0834489666144059 -0.0205734426403079 0.198825875780156 -0.315849832779566 0.22539898454573 -0.0969606209625958 0.0129475546062214 -0.0439748401857715 0.081706530902774 0.402309302529208 0.265507916016717 0.0801458720906733 -0.427019390907224 0.138003119508827 -0.254494858428987 0.281184180997374 -0.121538040486074
-0.167568219476447 0.163666315336012 -0.0725009579030291 -0.0177819973811684 0.138108791794128 0.345769744800019 0.350323680365081 -0.27722956926938 -0.0332710861484466 -0.323962687500657 -0.0774364449799786 -0.130122949503544 0.0827239158977463 -0.183936367960129 -0.189196585198476 -0.28832027413244 0.0169962686612706 -0.0354974032248848 -0.0470269951706885 -0.0298245241424814 0.194274768427109 -0.0152983130113344 0.217421369781009 0.355232170872793 0.0413826553186218 0.142050033792594 0.449280761900323 0.253598058109941 0.0309390967867081 -0.0970642363664305 0.0714174955909711 0.307241012515057 -0.188845115578025 0.0802718560804475 -0.128943585093147 0.0266535842529201 -0.0278077518653615 -0.170084556839549 -0.000958506763016669 0.151373106146067 -0.0356364998340028 -0.234903062468185 0.0334587765821919 0.128756923100135 -0.120014148430173 -0.0135792743263748 0.163529018498177 -0.0790099593012399 0.234820787209557 -0.0545374407325126 -0.024860240725012 -0.129087566795746 0.0625281681165778 -0.0994072814660472 -0.0255539239993197 -0.135294977949049 -0.0751008560756752 0.0697624773416314 0.167042686261961 -0.0388321223011525 -0.213438733043045 0.0353914738294012 -0.294039947268188 -0.134827294525785 -0.0643778187746094 0.0855012200968091 0.0378214221709437 -0.231255954519314 -0.141518844154077 -0.0650984986181544 0.13493090992962 0.325696895686426 0.0623975561435057 -0.32004458541868 0.0727344139493862
-0.0652314245828753 -0.0771880765429953 0.156702486023698 0.218871728324511 -0.110738898570777 0.256787767042877 -0.256027749341301 0.185510139391574 -0.0699776785649804 -0.0750987991942095 -0.305273091172748 0.402566155602238 0.32769721291182 0.330365759503384 -0.282224191688469 0.0501298008616985 -0.352164846387067 -0.0858981982196894 -0.0848661579442739 0.218182415923318 0.0576716138658745 0.0113169618242869 0.0782897936780614 -0.355873917890092 -0.156863179888206 0.158341820551862 -0.17828945700623 -0.0691238156465313 0.110480245726465 0.0432150795943782 0.173062149871335 0.0339822529152128 -0.0730917971040517 -0.308766447232058 0.0941871734162812 0.151810707677895 -0.391802494892224 -0.0790678090924628 0.240421675440661 0.198623787176151 0.0581457250437186 0.00623235084107405 0.0093346423117176 0.0282494671601208 -0.175045240714453 -0.0619033903713711 -0.163542388227704 -0.100605157809635 -0.0430284176013658 0.0642299804192621 0.0837377013501537 -0.0739004086302554 0.139245733024294 0.0216833873012368 0.243580274041428 -0.323953431534061 0.0986333798145772 0.107952081294936 0.0900916653078873 0.165291508804099 0.127515595135584 -0.0684833541801486 -0.0579428651091638 0.0714223806844521 -0.0705206952719254 -0.234873494797115 0.016157575243631 -0.0893990104743125 -0.163925225290507 0.0247725661525365 0.080673976406992 0.0670250252209666 0.00617527238040085 -0.029645061234599 0.0259681285044752
0.00321799105308923 -0.217656882708832 0.1295063992842 0.0689502662728627 0.0831355493010697 0.397033915790051 0.18816043116013 -0.0691094174762713 -0.215945814439552 0.179198084393704 0.107827639966261 -0.00500490682641698 -0.147715970900051 0.0890133451994936 0.161998441577512 0.000921482896634051 -0.356320004057966 0.0849466334316195 -0.155116630413643 -0.21333666030031 0.0017961717399234 -0.0718666670810435 -0.059575514772564 0.401813594095974 0.189678923902183 0.158891265013387 -0.233905732067503 0.15102523606818 0.0745534684956155 -0.131671009916667 -0.0963656679986418 0.0184191164151693 0.198456408446879 -0.0704492186409923 0.106512778489311 0.100360131805033 -0.207643726623616 -0.242713041393452 0.128498270255823 -0.242347687823107 -0.241953795022425 0.0322454736276115 -0.108644221908144 0.114670370382281 0.00488252237920777 -0.120087939052755 0.0905359517044787 0.0571028861406081 0.0851029564230127 0.173179392114879 -0.134237997985862 0.150441338842104 0.0784615432804474 -0.149387958421482 -0.040983877424459 0.252159526634867 -0.221155895192172 0.0649658297636167 -0.0158662694060511 -0.0757773129677076 0.0168731128835118 0.319015116245096 -0.0997739205873084 0.0108299951372822 -0.101716902241846 -0.361966915011865 -0.100876666163107 -0.238648643617226 -0.0808848067572264 0.117148141217902 0.237500646649182 -0.0617318978791683 0.135584484015346 -0.14697883600478 0.0728038336988536
-0.330543165529801 -0.0966767713203291 0.0869819176419306 -0.0776717007976182 0.043382972544016 0.149734028728087 0.110900363765835 -0.0620666553377111 0.122887097617391 -0.0131920663904566 -0.0547742392112514 0.315717163925028 0.0862231854912701 -0.0887431223969371 -0.181283505089741 0.365547688533467 -0.142456524992253 -0.38355491443513 0.151625845456165 0.159260989456847 -0.383494236431891 0.121145690346491 -0.0758359340894801 -0.13670445597342 0.0324689023768232 0.266526329452422 0.341728744050466 0.0137193993762257 -0.0140140476461874 0.0510931927181962 0.22877869790406 0.0102728373702605 -0.311635796876711 -0.194865350517948 0.0189595620202822 0.0605877575638721 -0.158800762228897 -0.205737254615094 0.11799711904287 0.055881355660165 -0.029980075803325 -0.207239035195239 -0.0372917751935257 0.0041135058212188 0.0322609002386042 0.0696583477174303 -0.0745138735274007 0.10127621538782 -0.2379246213413 -0.118446033422759 0.160329282268096 -0.0831856857867962 0.251998061439809 0.0150738558213898 -0.0551748168766967 0.0605450772734588 0.408673036673904 0.228091956604699 -0.126236729084285 -0.353661227653364 -0.100632668599239 0.153018868428811 -0.0727246437624241 0.258804539319997 0.165176837662386 -0.00458273190558184 -0.0120168157429917 -0.175724011598135 -0.0704121947746097 -0.425168711808459 0.183319817740785 0.00879573936770393 0.00362191115091626 -0.0513693290549666 0.132156948162939
0.285466093988597 -0.216536910750757 0.081207222926975 -0.172573126302864 0.100040029626933 0.0638090910493431 -0.285400788002061 -0.0398582490423541 0.110169142404778 -0.0804145522321305 0.173168079266818 -0.00981492413395878 -0.00797118701014104 -0.244757324460175 -0.149114907406911 -0.120223693229491 -0.15803354544219 -0.0346376267722217 0.0639990954747372 0.0686440480446565 0.578959682117458 -0.308914799807771 -0.139160372443467 0.176408953126213 0.490397822399686 0.0364574526490007 0.0251350915108663 -0.0624844593854316 -0.0879810478138949 -0.105094301608527 0.169824361334138 -0.106634134495788 -0.339794761252341 0.00282744068478925 0.0455956627807439 0.0911162493879896 -0.16020638360052 0.136496453835201 -0.166336918809042 -0.0481045439485327 0.133873929966433 0.130590118706441 -0.150747557070311 -0.060056825035538 -0.095570169091782 0.106814882954586 -0.145561130454546 -0.104188759543252 0.209101027142065 0.117871135053095 0.103698193313683 -0.14907248422668 -0.0917556824136394 -0.192155666297071 0.162113884049775 0.334340425825668 0.0892753404761872 -0.0560171098369012 0.0366993933314038 -0.139885937380493 0.16054808303401 -0.150669395574614 0.141593148997025 0.123217741313002 0.261842810355021 -0.0663454830067356 -0.0597673189692406 -0.148472903279429 0.0794390761970218 0.0976373349648115 0.0208799179786973 -0.039215987804689 -0.210050020828303 0.123568696713087 -0.229246124217141
-0.214456889368567 0.153045864998048 0.0920523875650668 0.026399559391906 -0.0229627675729028 0.0247044319539852 0.242625366820976 -0.161932364260426 -0.105596437796342 -0.215235161893152 -0.0168967670203673 0.322799521031803 0.0716131564403959 -0.110219021780321 -0.0983847542674106 0.204622939081051 -0.168170371525531 0.23943720054914 0.0294643127758005 0.246311812627879 0.356635478252768 0.10854626292834 -0.187203467058212 -0.528172450517285 -0.326396235384764 -0.482701229065216 -0.708501048386575 0.104548970909933 -0.020811783780146 0.132051532987821 -0.004170584281892 -0.12604183956541 -0.249422331624385 -0.214254543654379 0.179326125264944 0.190516331768907 -0.0238323142125279 0.0130257161019181 -0.128418566099027 0.112586749457526 0.143516076057272 0.226710246480115 0.107358413881898 0.121064443528596 0.119888164440399 0.0853392406813851 -0.17400291603171 -0.0266358436502784 -0.0901312602761021 0.158032002781091 0.0267664556233504 -0.0644940325774215 0.220994944217481 -0.146059667099795 -0.0913229659752926 -0.108358058274228 0.00325347225837257 -0.0140950373538994 0.0735049731684744 0.0384976219527929 0.121544725350837 -0.00019386107814232 0.254485859572575 0.223803615858896 0.052916361027357 -0.0538103331343873 -0.0264016162733717 0.230586953822595 0.139428795474741 0.115624763382367 -0.103505360676273 0.0170482049182796 -0.269287692820125 0.0906745340932303 -0.139274529364814
-0.204981864896816 -0.061697702224801 -0.0889881484015387 -0.093925692359954 -0.091640239941377 0.0257238738304232 -0.188672080424723 0.0141343752119309 -0.0737152892983423 0.373848490798486 -0.115087917319819 0.172038080011599 0.0269973405678754 0.30504040645694 0.149622957128939 0.235383601400609 -0.0146066866184925 0.06362397171743 0.0672404835544988 -0.0133969832064771 -0.558290851599178 0.13385130427031 0.0642610907514309 -0.0311501842471257 -0.306512362255833 0.136336017080877 0.0998549102950204 -0.164513750499881 0.0822130379637028 0.0583763528780603 0.0111169301017475 0.279666459585869 0.322558094569766 -0.158635183270908 0.122773712026594 -0.0808958624951045 0.118085050725528 -0.157385113560128 -0.0734121563923346 -0.0571720487798923 -0.0856716841482791 -0.0949675028223316 0.0282954898829159 0.0503640282386052 -0.0317495080841943 0.082464748833068 0.12782901244892 -0.0174400408374956 0.0235924304115905 0.0857585873902049 0.137477072073974 0.0433513479914808 -0.0842632345646403 -0.207265774654293 -0.174738508265881 -0.214571817620463 -0.0617421822864968 0.00820824259906308 0.0578495341126576 -0.0840272074164511 -0.0629297742227559 0.210520275353399 0.0508396820775486 -0.123454025571374 -0.294426383873557 0.249563228004786 0.120750769105077 -0.129809789300391 0.0647699118040086 0.204970552048754 -0.0567017942547964 -0.0913743880119351 0.0573782511468289 -0.217486932877728 0.100570705045084
0.0877200809779341 0.0487488620676635 0.101878110326721 0.0157135459572228 -0.0541846855611448 -0.0973056628284672 0.0236040003698351 0.060545334383642 -0.146274611212961 -0.164802742345812 -0.24472492857709 -0.195080294631114 -0.213279581839637 0.120693947754587 -0.0670612777567996 0.180072259016627 -0.0506411930161084 0.277198716047395 -0.241968707413051 0.277060390768826 0.178391272638783 0.139663279961831 -0.160372476778875 -0.137113261164728 0.258406532756384 -0.0347260726752469 0.0450937837031128 0.327433417863844 -0.0735160289063525 0.382624432682083 -0.0713935843439323 -0.201911197978707 0.261956710166184 0.0876707158227572 0.1651475271015 -0.201147323624382 0.316851276943179 -0.0288652460489151 -0.120471547446108 -0.064089598259228 -0.0147853781958253 -0.0475327309010678 0.00194041055270569 -0.0189883583608021 0.212752763074234 0.147181181718968 0.0923516638183263 -0.207349078353654 -0.283856070021319 -0.214874179195921 -0.235905535072531 0.26009806065174 0.198452808904314 -0.337827097020214 -0.0386066366704751 -0.0769001131377971 -0.0774714119648956 -0.209569996116245 0.325813623709604 0.0903816855945511 -0.168205338510448 -0.107753078013129 0.250708139650631 -0.229525088765926 0.163362668209638 0.0914800602972355 -0.236044117461283 -0.121968700042955 0.037619847787305 0.0277164777503211 0.190564411373168 0.0771898763142777 0.0472697071836413 -0.238530372932949 -0.136735566305589
-0.32672559352946 -0.0844311275142781 0.086146823766856 -0.106555201669541 0.064358021290502 0.12739681023094 0.134214600959189 -0.072711274032897 0.121636256576061 0.0132386033336181 -0.075382391726293 0.320087779929459 0.0977733462517309 -0.0566693983717117 -0.154942823929791 0.414759606041096 -0.0837176467558631 -0.373702709324605 0.113318227928766 0.0757873402648529 -0.344217313513781 0.120782136547429 -0.0609320280991938 -0.227984484548116 0.122200099207846 0.302943415802658 0.210840377531499 0.0667614872831736 -0.0177267186917777 0.0698326684216485 0.211835393940531 0.0556221885954866 -0.332344993693755 -0.218581708037847 0.0221256168163625 0.160239036593788 -0.130879367662555 -0.227836131972403 0.157591058816881 -0.104173847152626 -0.0586386052649372 -0.152266821142914 -0.0657381887539874 -0.00863247440136391 0.056937050072436 0.10226943202557 -0.0531804131855163 0.0881332570423567 -0.313882425657623 -0.101565207233751 0.119033787301583 -0.106942152495276 0.173613136993959 0.0514518614237778 -0.0761354674529228 0.0851497504763574 0.387402311216723 0.207297913427195 -0.15755737738288 -0.353800581372665 -0.0627251145169186 0.122858044166688 -0.0640795709620827 0.263867295937637 0.176585330711897 -0.0218592506665542 0.0109243545745213 -0.160502574531581 -0.0587321933716265 -0.389237049484129 0.193728923508149 -0.00115031095969329 0.0223336189545815 -0.0532883994624656 0.128352231671758
-0.0556450714017925 0.174709969035544 -0.0293702104487447 -0.39569565728643 -0.301135931214673 0.0952567517784458 -0.0404909972032404 0.234364673744538 0.142012238595662 0.291219962778712 -0.0729064206619554 -0.206482874146411 -0.188170972677641 0.194341359964561 0.287762602145052 0.151846445993361 -0.159874197243809 0.188576949656934 0.312005007099804 0.434633708983066 0.345673842701681 -0.144744548512662 -0.180387218991062 -0.258474924065119 -0.084021036772054 -0.514949788015026 -0.665358473863862 -0.0554805208845365 0.23365659229997 0.109642066529192 -0.0988758347173467 -0.239150522694858 -0.129723914499198 -0.150050274253438 -0.0159354320453353 0.236560394709174 0.159149660747516 0.174778103234096 0.0514657453736713 0.362761642588175 0.0736607819395012 0.139496672563109 0.0484303025506631 -0.12886696625855 -0.0417559793046465 0.15057220792536 -0.0508131997286777 -0.146661819148879 -0.115020040231451 -0.110469961319137 0.00142978972884541 0.115869789386968 0.111475519245681 -0.0452375082955287 -0.00307760889305513 -0.0222487725941214 -0.191190217559107 0.0211884501985525 0.101891480056248 -0.0201700367628473 -0.0666874395504084 0.126807256580833 0.215504356254976 -0.157725527442701 -0.0484956085371991 -0.00247288574213904 0.0159657710469544 -0.0415104390796784 0.197260588984757 0.0314088370914376 0.167449434571803 -0.177754410714965 -0.104733061801114 -0.141024164161576 -0.0959890015802353
-0.0565161607025169 0.170478192530048 -0.0246170144916929 -0.411078559548041 -0.297352297758516 0.0733108549801489 -0.0454367686875185 0.239315073212114 0.140929804724337 0.286290132125793 -0.0868255946505373 -0.208416856944536 -0.186623683595068 0.209116710863241 0.28912297212443 0.166247444465284 -0.151866757697835 0.209797795738571 0.323486519441347 0.394924069626609 0.291440306205725 -0.149699318853353 -0.22302842865651 -0.245951601261198 -0.0773806520702215 -0.526729805279279 -0.685330792895819 -0.0336454385752042 0.216586533016117 0.123084815348281 -0.115077118692124 -0.232096961928602 -0.061107634354328 -0.139923475467242 -0.00498202402011105 0.240342999724598 0.152757644482667 0.162354024960895 0.0559852281741829 0.326495994135851 0.0605119100598243 0.141755899742999 0.048934495619943 -0.128459189507975 -0.0532907134541145 0.155747321693063 -0.0397772593346421 -0.144600566810063 -0.160215896677299 -0.106426646577935 -0.00650565896582907 0.127131472521865 0.136785445681132 -0.0508713066300837 -0.0118198693426508 -0.00873557558483218 -0.200102942060173 0.0130362576194298 0.123104869942572 -0.020861406045506 -0.0506324512698792 0.0972406139521144 0.209677982393194 -0.140457236207592 -0.0431644288882853 -0.0192475254254804 0.0446633812564149 0.0249237469402655 0.214912745723403 0.0417917176201131 0.140234064568563 -0.170821177514453 -0.108075751293061 -0.126130542578618 -0.0986359509164093
-0.193585198915733 0.141221110561917 0.122773712026594 0.161084157766008 -0.0278411761891792 -0.0154219830094597 -0.0470611908250558 -0.122949575391911 -0.00761637495730761 -0.0647588560661305 -0.0457668981627635 0.442213574294357 0.216175670943344 -0.00596701313199862 -0.258092601222681 0.0975411757562899 -0.151531743129109 -0.127695058043467 -0.281817957598993 0.151142735421909 -0.524221438331856 0.16108750019839 0.180331426081305 0.165121816083179 0.190762900434608 0.0658091511645541 0.555381392765944 -0.275083727680288 0.0283582247676198 -0.0459219356032407 0.0995625760167076 -0.208785552947263 0.0885952840415898 -0.0873202746430384 0.210569640508576 -0.356975377914975 -0.241518764592429 -0.00312543138713268 -0.0460900856630617 -0.0474378572434623 -0.0328980192726051 0.0477242779875612 0.00123824264235201 0.02788205670831 -0.0296046949358346 -0.14000009430184 -0.0815715480565873 0.0129709516328938 0.296832163857877 0.128152971279768 0.2373916319315 0.0229355138934823 -0.0679125695734166 0.147953540709339 0.0285050346822342 0.022566303670389 0.117525321856674 -0.0131229037511724 -0.209351709570697 -0.00289017556949313 -0.0436503671345571 0.130802234607591 -0.173833737531156 0.201889343613134 -0.138135017032815 -0.0556720679710299 -0.296402532741729 -0.194167039260343 -0.41832932382482 0.0776704152467021 0.139732956821482 -0.0614480482369015 0.176475544663665 0.0634344815124023 0.186161142375468
-0.0302672678779735 -0.055779797137796 0.0959576341378834 0.239454941151781 0.0656970511246734 -0.185491113238016 -0.491310049329724 -0.146169196037844 0.40107697342107 -0.0608842056051162 0.0130144032538567 0.00370932861320855 0.403431845589114 0.205219434706104 -0.224253558679518 -0.451707367809483 -0.318987348345309 -0.00806374667609759 0.2004700954018 -0.178874639783222 -0.354581682109265 -0.0210457540468695 0.0492725955108676 0.10916332736805 -0.390111738327418 0.069994133616706 0.412657987403516 -0.118605698846534 0.0739106930375839 -0.163818010344108 0.0665020631083121 0.277229826379563 -0.120145017513428 0.143914082620886 -0.00638713117136805 -0.305442012563118 0.12688541807653 0.107506766457611 -0.00251170937980414 0.368521682022687 -0.138177697323229 -0.0325102971163205 0.0232137071117183 -0.151950575617563 0.0450683297949748 -0.160083999153311 0.0970462386536056 -0.0424640607492141 0.0953179440020504 -0.101119121065877 0.123953590657357 -0.0375776817172581 0.171716949392766 0.164748492097154 -0.0928926236438057 -0.0382150578614422 0.0125449200593104 0.0239955791788679 -0.396262585240414 0.158657294746664 0.0498143266668966 0.0690744504913544 0.0218155419354081 0.113313857055652 0.173303833443554 -0.0425409366939946 -0.0792596132891394 0.0702761834876902 -0.326667743738237 -0.103046933219605 0.0962098592276149 0.124751917776232 0.181957133769759 -0.00754926919948912 0.134383779459743
-0.215439821598989 0.152991100529024 0.0983839829368609 0.0492232303556908 -0.0421465296729465 0.0157567404680026 0.208605575819014 -0.139163457765666 -0.0925516955408657 -0.184678387948881 -0.0139965641537289 0.361157017934745 0.0980456259357531 -0.0994463622138955 -0.123910139036394 0.138402154513173 -0.242732838877559 0.191924781352546 -0.019231327483938 0.320958355009817 0.340057013639217 0.129205580369841 -0.17116184850721 -0.493280798884049 -0.311791091427371 -0.470152966573524 -0.525037506053373 0.0482122731152987 -0.0084815507238181 0.122745687016624 0.026513202092886 -0.161053818764389 -0.29348304661135 -0.221989960626514 0.190661341912239 0.11947370282506 -0.0483696245474249 0.0201463826259917 -0.149125706034605 0.149713717023613 0.13962317077325 0.203734623398051 0.10314977729289 0.107299792760125 0.11699516065889 0.068344771791397 -0.180525030049264 -0.0147331848286331 0.00294031205521959 0.164222701772484 0.0717715363132549 -0.032398454186623 0.241171922955275 -0.135119114583731 -0.0992674135263795 -0.152725762819949 0.0039749234324672 -0.0268986102575217 0.0513983825056696 0.0520000203343872 0.0955465149549264 0.0392625247478505 0.20399301913218 0.232724824996008 0.0391146863925032 -0.0550182367751202 -0.0725112423103576 0.187026061031795 0.0709151022929736 0.105604408212021 -0.0647866239659175 0.00963494700570994 -0.223656548834098 0.0924971881820246 -0.100259344613214
0.247411987101846 -0.0570267815263772 -0.0518745505649794 -0.0164475955302949 0.0884605583055864 -0.0945684678179856 -0.155044896672527 -0.270990533563543 0.344491650079269 -0.146548947778449 0.23310920471991 -0.234877608560047 -0.00363476666007689 0.0954709245610619 -0.0955598846844534 -0.525412115590314 0.181744503648242 0.169574707346238 0.161490648965667 -0.0589399383996623 0.238092000070571 0.157467903039122 -0.195659820984075 -0.0324938420645949 -0.297298818840408 0.0140636699115474 0.0775153778062249 -0.00549290195415454 -0.0111786365457185 0.00519156881942934 -0.267747859932865 0.0536488679393297 0.0720096203429098 0.136695714227191 0.0211537403238188 -0.2910333007857 0.287482866265717 -0.0844087589283386 -0.424853751834024 0.0409609946181531 -0.0783540712238645 0.228751958445006 0.120508057092124 -0.0990283010559918 -0.0702998376245458 0.0864607553005586 0.0457848958755884 -0.0982806246432094 0.127441033182453 -0.205683775696986 0.183822982369333 -0.00992033930907596 0.0974023362573551 -0.217061158414328 -0.0465796234518986 0.0301767650934827 0.0505530042232665 0.0328473685665122 -0.139991609665794 0.10314257820776 -0.0212457857694089 0.0282281270149142 0.0642693182772937 0.0169862413641253 0.147587930028811 0.244678648744112 0.264054215040832 0.160214096906016 0.174217088814326 -0.139619828340868 -0.0479135110824057 -0.220213072150332 -0.0448148191543271 0.0521298609769095 -0.125194918621907
0.159726101778279 -0.0968570055587611 -0.0566089774786567 0.359390413865891 -0.0436758210426952 -0.196884436786717 0.32827982458698 0.0274801934919487 0.0691932353959987 -0.33125458940675 -0.170254249560469 -0.237161004097158 -0.112409086320926 0.240973691004018 0.429568638373777 0.11351697410039 0.0999240729343046 -0.137610512259062 -0.0118424950387735 -0.167415753137802 0.0586959408357936 -0.0517218271161511 0.0993152360204571 -0.0262211249247564 -0.594744961815797 0.16615668457061 -0.565506391780857 0.20725908978953 -0.0114596579759699 0.00768965135952321 -0.181867659426001 -0.0847388884035837 -0.111716431487352 0.0646801803500674 -0.0099272812840227 0.117034241406738 0.284257419017314 -0.0839801562529232 0.0485205482249707 0.242201392128859 -0.0812573594127015 0.127769877106782 -0.0135155110009381 -0.0472226560201134 0.0542980711519416 -0.260821311597117 0.104794511134901 0.0860599205249301 -0.0373933337158947 -0.205642123847306 -0.114318643651647 -0.155672759739932 -0.0290362243207515 0.190348953039635 0.00619249876267609 0.189683037665115 -0.0421768686745656 0.146165082274912 -0.252850895917526 0.227401872872957 0.0244051557007257 0.18868390749315 0.0908977057322589 0.0623049964775492 0.192279336295196 -0.142348538715304 -0.0641456482791684 -0.24251686632366 -0.0393278307343865 -0.255539239993197 0.150491989548197 0.11549620829076 0.0725492946174731 0.0670520217902039 0.0469061533845786
-0.0794845846994504 -0.081792405703967 -0.10411651158177 -0.054004708432896 -0.169143019348624 0.0328160011241603 -0.0687610331780182 0.0529932369721375 -0.0691978633792965 0.227783424384844 -0.218921093479688 0.0412800683555199 0.109976823987735 0.428627872213402 0.138040400485393 0.265146676209303 -0.12427960636967 -0.179185485994726 0.0922657890171333 -0.273529496622767 0.0430885813842375 -0.2314981523119 -0.150359577803843 0.18365071854658 0.0114663428407335 0.0229054320020464 0.206621199424979 -0.113665326676103 0.145681972240656 0.0442057251302964 0.102236779032302 0.0506136822265047 -0.192481424899201 -0.0155811342128683 0.0805150823137666 0.187675264244407 -0.36003781730722 -0.140078770017903 0.184908244452673 0.152507219164218 0.124526689255738 -0.402802182750427 -0.0627410553482778 -0.0157960783260341 -0.0881692524680065 -0.178414412555272 -0.04613636549604 0.161687595366008 0.0336958321711139 -0.0576813840528365 0.192472426042788 0.0441090517014085 -0.1596093737551 -0.0543633771384776 0.113929378834263 0.184563716807168 0.109511711666303 0.157610856300989 -0.168006335228641 -0.0481685643841526 -0.0518768645566283 -0.192192690163453 0.131310541439803 0.240449186230264 0.203159210808021 -0.149146531959446 -0.160854558372399 0.253149143730052 -0.146900931619267 -0.0098622324076699 0.196002291748115 -0.0106860134346832 -0.16439522270542 0.0547881231611449 -0.212051109384247