2.43034659652924 -0.51741644712433 -0.375787857582998 -0.51741644712433 -1.08959594887131 -0.683593992186158 -0.375787857582998 -0.683593992186158 2.45300717085585
0.841505362452983 -0.34240563023949 -0.466213315749814 -0.34240563023949 -1.7932769448136 0.39076800739196 -0.466213315749814 0.39076800739196 -2.30398364754369
1.63508376541653 0.430285201425403 -0.868219917542814 0.430285201425403 0.502955590999471 -0.581363116592545 -0.868219917542814 -0.581363116592545 2.18202406589505
0.117258216704094 -0.997655974908606 1.29945171298308 -0.997655974908606 2.15678228101629 0.715082895310215 1.29945171298308 0.715082895310215 -1.6377705021621
-4.05406325624496 0.609819262068713 0.81689184638488 0.609819262068713 -0.174776860156765 0.315358247674163 0.81689184638488 0.315358247674163 0.319157744634093
1.04999573739879 -0.378531071997028 0.294835759595675 -0.378531071997028 -1.18314737076458 0.194020951475864 0.294835759595675 0.194020951475864 0.211140447194322
3.60921807085952 0.367659014151556 -1.02213055766742 0.367659014151556 -2.86235054472966 -0.36380918154264 -1.02213055766742 -0.36380918154264 -0.615973217426691
-1.71907974079957 0.727743756938486 -0.0210109746097726 0.727743756938486 0.110785138851528 -1.335151932021 -0.0210109746097726 -1.335151932021 0.343815948159915
2.56373136536533 -1.97520788614418 -0.265412549452675 -1.97520788614418 -1.9694380481126 -1.06934331518614 -0.265412549452675 -1.06934331518614 -0.167325302915817
-4.29125928573779 -0.24297366441761 0.633262070253772 -0.24297366441761 0.658133390233527 -0.118617064518833 0.633262070253772 -0.118617064518833 0.0573953537994355
0.772215511534694 1.03790352169143 -0.535198869380481 1.03790352169143 1.47561973986333 0.737809869931663 -0.535198869380481 0.737809869931663 -0.16629393441465
0.444075245489938 0.0538273024836289 0.259524494117497 0.0538273024836289 -1.57444859764615 -0.0326808622222033 0.259524494117497 -0.0326808622222033 -0.322963814901773
-1.38718352979727 0.729895466091674 0.0420358645393111 0.729895466091674 -0.0898038924248919 -1.32604045410372 0.0420358645393111 -1.32604045410372 -0.0305715378467717
0.0813413685533165 0.817197005000761 -0.351848710486439 0.817197005000761 1.58710251665657 -0.680997504167301 -0.351848710486439 -0.680997504167301 0.287532279537305
0.204341576920856 0.82871861751236 -0.353813656335186 0.82871861751236 1.67257364812997 -0.656541918440157 -0.353813656335186 -0.656541918440157 0.293268003914191
-4.42471566627918 -0.333868398062696 -0.602498143630383 -0.333868398062696 -1.22034655843606 0.0844264914641301 -0.602498143630383 0.0844264914641301 0.596741791939647
-2.41714365178184 0.633657578833646 -0.37364611031528 0.633657578833646 -0.192601087791382 0.911003145253235 -0.37364611031528 0.911003145253235 -0.362090045047798
-4.46738911483185 -0.208631282569268 0.472769970592745 -0.208631282569268 0.553160006078151 -0.0995305201247885 0.472769970592745 -0.0995305201247885 0.0803900354854061
1.61410965509453 0.432214196743321 -0.954313646791668 0.432214196743321 0.302167447280729 -0.665533364896795 -0.954313646791668 -0.665533364896795 2.19549512328023
1.13129995149658 -0.496016842140155 0.910000129618668 -0.496016842140155 -1.30490584624564 -0.101111125513185 0.910000129618668 -0.101111125513185 0.0438784129585521
0.464048744157034 0.0248256529795944 0.702756945883903 0.0248256529795944 0.647376643083269 0.395300782059695 0.702756945883903 0.395300782059695 -1.89247862329062
1.64551560157181 0.39415838828348 -1.24561704258517 0.39415838828348 -0.84763187383292 -1.0523646289122 -1.24561704258517 -1.0523646289122 1.59002728477462
3.51236715318571 -0.190213985239548 0.0734489645974492 -0.190213985239548 0.544275660734944 -0.597008250702344 0.0734489645974492 -0.597008250702344 0.308862312666197
-1.40391351789721 0.826621210674453 0.642501405048589 0.826621210674453 0.71538216144216 -0.790180832477667 0.642501405048589 -0.790180832477667 1.24280868797458
-1.46405916342029 0.00961931119198616 0.908062976523493 0.00961931119198616 -3.28788056542087 0.423249692447391 0.908062976523493 0.423249692447391 -2.05083714613145
0.905768834696505 -0.180004800129961 0.377244102400024 -0.180004800129961 -2.11409892918592 1.07428396673306 0.377244102400024 1.07428396673306 0.298731370428446
2.74534653551724 -0.418684464678465 -0.39956645259269 -0.418684464678465 0.149120494269042 -0.200739126900634 -0.39956645259269 -0.200739126900634 1.15855153239794
0.481935649275953 0.63182902050745 -0.605265638263894 0.63182902050745 1.1137646697834 -0.536959798209034 -0.605265638263894 -0.536959798209034 0.381374273639632
-0.857226328776548 0.255426355301364 1.37775428011039 0.255426355301364 0.406360110706716 0.191569766476023 1.37775428011039 0.191569766476023 -0.0793369739951207
-1.22593837489605 0.161916389137214 -0.321905202213271 0.161916389137214 -0.713203142628206 0.840423162664589 -0.321905202213271 0.840423162664589 0.798016489319128
0.851293328271739 0.132295584798986 0.153386185274187 0.132295584798986 -0.584784831357839 0.348953571498776 0.153386185274187 0.348953571498776 -1.0449433871804
1.81202334549757 0.22195850905778 0.256400346670194 0.22195850905778 0.0210477896520309 0.172209188062071 0.256400346670194 0.172209188062071 1.45995122768178
3.21716836744645 -0.741552591440735 0.854766727538557 -0.741552591440735 0.573618289562299 -0.162273595073545 0.854766727538557 -0.162273595073545 0.47738627387915
0.153432047883244 -0.212886966438001 0.157267849080325 -0.212886966438001 0.237819674219029 -0.017261105386865 0.157267849080325 -0.017261105386865 -1.24279958785428
-1.34339435843552 -0.456138199067647 0.423419425294862 -0.456138199067647 -1.66095892740666 0.336810906484549 0.423419425294862 0.336810906484549 -0.54659598538064
1.6385006096826 0.582149628381346 0.0616847288351095 0.582149628381346 0.16385006096826 0.726723211588633 0.0616847288351095 0.726723211588633 -0.148428878759482
2.72119921961103 -1.88213071908033 -0.509984295047329 -1.88213071908033 -1.84556580735996 -0.900651509743962 -0.509984295047329 -0.900651509743962 0.35025336490043
3.38590022683721 0.0307459725478975 -0.90892781344722 0.0307459725478975 -0.734060094581053 -0.411227382828129 -0.90892781344722 -0.411227382828129 0.724451978159835
1.22165714078556 -0.183635171478842 -0.552838516241567 -0.183635171478842 -1.11727504331338 0.523843489165961 -0.552838516241567 0.523843489165961 -1.43622034114505
-0.112745220941873 -0.345879406618289 0.538883937383191 -0.345879406618289 1.19242403165642 -0.166251427490559 0.538883937383191 -0.166251427490559 -2.55683229864791
0.553485408342316 -0.373505887447787 -0.327059559475005 -0.373505887447787 -2.24490585201779 0.292224813495419 -0.327059559475005 0.292224813495419 -2.78871494203244
0.547216595110611 -0.136804148777653 1.07923272924593 -0.136804148777653 1.13433440028137 -0.304009219505895 1.07923272924593 -0.304009219505895 -0.898727255164302
-2.04132935254475 -0.388085428240447 -0.331813041145582 -0.388085428240447 -1.95206970404945 0.242553392650279 -0.331813041145582 0.242553392650279 -1.32725216458233
3.89273195385026 -0.316696836923411 -0.508977059341197 -0.316696836923411 -0.548564163956623 -0.684291379780943 -0.508977059341197 -0.684291379780943 2.59766810285989
-0.522687543887546 1.21706077737319 -0.0476904693328053 1.21706077737319 -0.0953809386656106 -0.206022827517719 -0.0476904693328053 -0.206022827517719 -2.72026437074321
-0.219840601483829 -0.349833304969919 0.546734017603261 -0.349833304969919 1.11258460924859 -0.16440253676182 0.546734017603261 -0.16440253676182 -2.63617556040174
3.51290515273508 -0.726742871468569 0.853215007542319 -0.726742871468569 0.722967583824576 -0.100045122565803 0.853215007542319 -0.100045122565803 0.487012106075041
-1.378630366855 0.811071829178947 0.582897957613238 0.811071829178947 0.853255234006221 -0.761218714383078 0.582897957613238 -0.761218714383078 1.24632786989673
-0.495124111600069 0.82457207816473 -0.434185759403137 0.82457207816473 -0.243753408787726 -0.44942034745237 -0.434185759403137 -0.44942034745237 -1.61677065672484
-0.243326989882887 -0.295057924739879 0.344872899046612 -0.295057924739879 0.615023336633124 -0.0708905403595813 0.344872899046612 -0.0708905403595813 -2.09797680253356
3.6331356185896 0.404323518761959 -1.01851019726227 0.404323518761959 -3.08826154330563 -0.348488366171021 -1.01851019726227 -0.348488366171021 -0.81057238761326
-4.8092306166299 -0.241612064471837 -0.391181437716308 -0.241612064471837 -0.836054445315247 -0.0115053364034208 -0.391181437716308 -0.0115053364034208 0.569514151969331
2.55312909232036 -0.0191676358282309 -0.812707759116991 -0.0191676358282309 -1.39540388829521 -1.24972985600065 -0.812707759116991 -1.24972985600065 -1.18839342135032
1.31554626433605 -0.32745869387236 0.276055294252862 -0.32745869387236 -1.18798968009508 0.3655352861831 0.276055294252862 0.3655352861831 0.314131886563602
2.5815628156119 -0.710919781947177 0.848577989061617 -0.710919781947177 0.386574417239181 -0.299830889468438 0.848577989061617 -0.299830889468438 0.1923443441873
1.93367652153922 -0.717891882248092 -0.663857009390709 -0.717891882248092 -1.5091168062312 -0.0154385351021095 -0.663857009390709 -0.0154385351021095 0.764207487554421
3.46421331796031 0.476160650827043 -0.942682422082688 0.476160650827043 -3.21745800093253 -0.0501221737712677 -0.942682422082688 -0.0501221737712677 -1.13546001351064
1.0551973378914 0.405549432231485 0.832241251925276 0.405549432231485 -0.949485400579876 0.176827240593823 0.832241251925276 0.176827240593823 -0.734217455509135
-0.222761868926655 -0.618356222365369 0.768144375609154 -0.618356222365369 1.67647509976698 0.67212632865801 0.768144375609154 0.67212632865801 -0.704772464621399
-1.45901216641945 0.231283302470718 -0.327651345166851 0.231283302470718 -0.711196155097459 0.848038775725968 -0.327651345166851 0.848038775725968 0.697704629120001
-1.05660562975555 0.343831448074017 -0.339968173376557 0.343831448074017 3.33980097595492 -0.343831448074017 -0.339968173376557 -0.343831448074017 0.768791664794713
-0.539400017938397 0.6809447034967 0.135806387495128 0.6809447034967 0.170236175874175 -1.0921893980242 0.135806387495128 -1.0921893980242 -0.462889377096071
-0.711919004179742 -0.147293587071671 -0.207721725357484 -0.147293587071671 1.33130742160933 -0.0868654487858571 -0.207721725357484 -0.0868654487858571 2.0149007359676
-1.0752767501624 0.381674810418005 1.4666387385098 0.381674810418005 -0.988092148797881 0.286740466709973 1.4666387385098 0.286740466709973 -1.10240084836469
1.75313577375601 -0.211980469375727 0.219619405209086 -0.211980469375727 -1.48768275354677 0.886116556669705 0.219619405209086 0.886116556669705 0.729518372085835
2.03688155926935 -1.26969453129596 0.235910011101817 -1.26969453129596 -1.26969453129596 -0.899526790298799 0.235910011101817 -0.899526790298799 -0.201386594843015
-6.99099867928868 0.84130652669676 -0.702083224406516 0.84130652669676 -3.67350627614401 -0.298335647764809 -0.702083224406516 -0.298335647764809 0.00596671295529617
-0.883943064462422 0.705232836212411 -0.386244686862928 0.705232836212411 1.28556067418557 0.916610525540381 -0.386244686862928 0.916610525540381 -2.5192377337179
0.827622683283134 -0.295855772295139 -0.295855772295139 -0.295855772295139 -2.1077306653706 0.195303483671954 -0.295855772295139 0.195303483671954 -1.50635063148963
1.77334499268959 -0.221429514695363 0.217611764441994 -0.221429514695363 -1.41638534399965 0.826542929854241 0.217611764441994 0.826542929854241 0.704374921746455
-1.26682515045472 0.774277399067637 0.471465941016433 0.774277399067637 1.05217399031716 -0.724447665464275 0.471465941016433 -0.724447665464275 1.14800040109286
-1.73963114366773 -0.277109385716983 0.257865678375526 -0.277109385716983 -1.64341260696044 0.361781698019395 0.257865678375526 0.361781698019395 0.01347059513902
-4.03110838452699 -0.321112474443117 0.829540558978053 -0.321112474443117 0.451086571241522 -0.177758691209583 0.829540558978053 -0.177758691209583 0.202606680303395
-4.56503701785885 0.0837970916920273 0.697039444529136 0.0837970916920273 -1.47216254268039 -0.121886678824767 0.697039444529136 -0.121886678824767 1.1484010520521
-0.36368171669429 -0.0913964523629629 1.01297734702284 -0.0913964523629629 0.550282806935339 -0.356065345664043 1.01297734702284 -0.356065345664043 -0.68356929996466
-4.07603935272702 -0.302070458597969 0.797236590097171 -0.302070458597969 0.552521281865905 -0.162506259372325 0.797236590097171 -0.162506259372325 0.143387875916757
-2.02048105469397 0.122106503777539 -0.709744053206946 0.122106503777539 2.76265964796682 -0.736454850908283 -0.709744053206946 -0.736454850908283 2.38298473778354
-0.678837107832051 0.696047062678497 0.120469683925124 0.696047062678497 -0.032507692487732 -1.18366244999448 0.120469683925124 -1.18366244999448 -0.499088690546944
0.410863319595382 0.873323428163208 -0.227408069915584 0.873323428163208 1.11793042773627 0.68604619411508 -0.227408069915584 0.68604619411508 -0.257983944862217
0.99918270789687 1.29530760220665 0.338155524469877 1.29530760220665 1.03739237167878 0.35343938998264 0.338155524469877 0.35343938998264 -1.00873512384235
-4.27372526162629 -0.358862426548772 -0.621772332629958 -0.358862426548772 -1.23970656444121 0.115143024561103 -0.621772332629958 0.115143024561103 0.558443669121351
3.79118675184953 -0.668699606454774 0.861375764246828 -0.668699606454774 0.999271445803886 -0.0264457471479289 0.861375764246828 -0.0264457471479289 0.336238785166525
-0.319257280289482 -0.700431124029045 0.485658044561575 -0.700431124029045 1.26154998029541 1.24220105421726 0.485658044561575 1.24220105421726 0.777826828341646
-0.711500340474822 -0.606305397662684 -1.01369672164424 -0.606305397662684 1.43065122224507 -0.223778332891275 -1.01369672164424 -0.223778332891275 1.72710969744291
-3.67543278534401 0.685346712556399 0.85810724120635 0.685346712556399 0.38918580629934 0.430952087950977 0.85810724120635 0.430952087950977 0.0873294979988763
-4.43644392186352 0.437369096454612 0.751133883041617 0.437369096454612 -0.895655845348358 0.135013938470772 0.751133883041617 0.135013938470772 0.707396973396155
3.2736251018824 -0.14976114835591 -0.744965712334529 -0.14976114835591 0.288002208376751 -0.460803533402801 -0.744965712334529 -0.460803533402801 0.894726860690439
-0.752541823945706 0.222473803994232 1.35225381732146 0.222473803994232 0.646141308991943 0.158633495021974 1.35225381732146 0.158633495021974 0.0599711993375756
-1.23601236486099 -0.0672790556300695 0.853482877135739 -0.0672790556300695 -3.16211561461327 0.701624437285011 0.853482877135739 0.701624437285011 -1.69350994314546
-0.984161086130861 0.355129144323612 -0.527026762054722 0.355129144323612 0.459023308886371 -0.787706665866735 -0.527026762054722 -0.787706665866735 1.09561118993455
1.81024397419543 -0.181215150209237 0.492142197410349 -0.181215150209237 1.28758133043405 0.339539965655202 0.492142197410349 0.339539965655202 -1.33908458365142
0.098807890681212 0.608048558038227 -0.638450985940139 0.608048558038227 0.440835204577715 -0.53014233653958 -0.638450985940139 -0.53014233653958 -0.167213353460513
1.55405215684445 -0.59340051262593 -0.490956775918522 -0.59340051262593 -0.579870207777782 0.202954572722224 -0.490956775918522 0.202954572722224 -1.81692665103705
2.16369198963161 -0.46323468109865 -1.21792118238853 -0.46323468109865 -0.0521139016235981 0.111948381265507 -1.21792118238853 0.111948381265507 0.098437369733463
-0.894318457901692 0.704730604941805 0.29108438030205 0.704730604941805 1.08773636849713 -0.750691296568444 0.29108438030205 -0.750691296568444 0.624299394595185
-0.0287852973893551 -0.172711784336131 0.284014934241637 -0.172711784336131 0.0652466740825382 0.485512015967123 0.284014934241637 0.485512015967123 -0.692766157170479
-7.15589309265747 0.918904377636516 -0.916911092652489 0.918904377636516 -3.80119446453977 -0.32889202236448 -0.916911092652489 -0.32889202236448 -0.779374428754615
2.903245560828 -0.193677544018248 -0.548433441477415 -0.193677544018248 -0.383519889145046 -1.02783330290872 -0.548433441477415 -1.02783330290872 -1.0796084879433
-0.779626520936436 0.347147132456771 1.39246726873722 0.347147132456771 -2.19342685367938 0.383995152103021 1.39246726873722 0.383995152103021 -2.16045757294326
0.49417011596678 0.810363255301846 -0.399501511375443 0.810363255301846 1.77976976631714 -0.592625464741771 -0.399501511375443 -0.592625464741771 0.386247906732656
-0.23805237690309 -0.420431214046586 0.524099184633415 -0.420431214046586 0.982925943341789 0.591291387791545 0.524099184633415 0.591291387791545 -0.581692501626098
-0.385461383521893 -0.470689026109649 0.662451221932098 -0.470689026109649 0.278926830287199 1.14669919118071 0.662451221932098 1.14669919118071 0.195636179576438
-2.97942330591272 0.724468302265218 0.887568495968906 0.724468302265218 1.23652704993959 0.570850677962907 0.887568495968906 0.570850677962907 -0.125169916098179
-3.89881249938658 -0.171609452247975 -1.29767597036952 -0.171609452247975 -1.60618734519734 0.509043768465904 -1.29767597036952 0.509043768465904 0.827196123757094
-0.702976373127714 0.565026708508566 -0.447863979653947 0.565026708508566 0.810690494816637 -0.793683001918386 -0.447863979653947 -0.793683001918386 0.661402501598655
-1.99071291510135 -0.515608213648451 -1.06804558541465 -0.515608213648451 -0.564067632224433 0.872269534367681 -1.06804558541465 0.872269534367681 -2.05661772436469
2.13718836983793 -0.110577096744514 0.333637791901551 -0.110577096744514 1.42415674600262 0.358422313585666 0.333637791901551 0.358422313585666 -0.299320761877391
1.13382295866541 1.11661485305328 -0.764804693872113 1.11661485305328 1.77817091325266 0.751420611729351 -0.764804693872113 0.751420611729351 -0.315481936222247
-3.50264709823183 -0.256103388710739 -1.22274926188962 -0.256103388710739 -1.81005402547439 0.33312696426284 -1.22274926188962 0.33312696426284 1.18808865289117
-0.817545846628297 -0.171816794556986 -0.358738362261839 -0.171816794556986 0.966705481463483 -0.249228756939804 -0.358738362261839 -0.249228756939804 2.16187065678845
-3.41032876286245 -0.255339419567693 -1.32892561547731 -0.255339419567693 -0.584185641738207 0.911097474366541 -1.32892561547731 0.911097474366541 -0.831787503137182
-4.20624682229791 -0.261340505512387 0.782113921606414 -0.261340505512387 -0.967150629888907 -0.257525315650892 0.782113921606414 -0.257525315650892 0.970965819750402
-1.43345876115283 0.0269374800753552 0.902405582524401 0.0269374800753552 -3.27097972343599 0.357883663858291 0.902405582524401 0.357883663858291 -2.04917259144667
0.593849480792524 -0.0305517417771073 0.719875415623091 -0.0305517417771073 0.69887109315133 0.378077804491703 0.719875415623091 0.378077804491703 -1.9782252800677
3.64741844278196 0.497112497748413 -0.974957069227508 0.497112497748413 -3.59346824922787 -0.244702663620343 -0.974957069227508 -0.244702663620343 -1.32370653470217
0.554902293953134 0.791635354513344 -0.424225644523897 0.791635354513344 1.75940010608349 -0.575734803282432 -0.424225644523897 -0.575734803282432 0.424225644523897
3.03811253516451 -0.257012045272756 -0.491008086491234 -0.257012045272756 0.22824204020491 -0.855428150683947 -0.491008086491234 -0.855428150683947 -0.590744104059766
4.00206246256318 -0.163849145526116 -0.160082498502527 -0.163849145526116 0.359714790752737 -0.617730111868576 -0.160082498502527 -0.617730111868576 1.01887801988079
-1.09847878713972 0.348109474797799 -0.321034293424637 0.348109474797799 3.27416300462596 -0.350043416324453 -0.321034293424637 -0.350043416324453 0.661408002115818
0.769692953442452 -0.647857134178949 0.0715543700436451 -0.647857134178949 -0.0599509586852161 0.589840077386804 0.0715543700436451 0.589840077386804 -1.4040127743699
0.591902469982665 -0.54068014084955 0.212477809737367 -0.54068014084955 -1.24071863900213 -0.276980001979068 0.212477809737367 -0.276980001979068 0.457206715595584
-0.659201306952438 -0.0774419873497133 -0.0302212633559857 -0.0774419873497133 1.6961684058547 0.0793308163094624 -0.0302212633559857 0.0793308163094624 1.74905561672767
1.21211177456223 0.631067717549858 0.731115038624835 0.631067717549858 -0.465604840387395 0.404037258187409 0.731115038624835 0.404037258187409 -0.752278895006081
-4.68678511052706 0.0978043637422174 0.426427025916068 0.0978043637422174 -0.878283186405113 -0.461636596863266 0.426427025916068 -0.461636596863266 1.49445067798108
-0.358079715901444 -0.323612149664942 0.434674307538117 -0.323612149664942 0.764031051575809 -0.103402698709508 0.434674307538117 -0.103402698709508 -2.4261336900916
2.94213731033367 0.208224658922697 -1.0738993983328 0.208224658922697 -1.42865252094184 0.219792695529514 -1.0738993983328 0.219792695529514 0.333545055496543
0.563858555462452 0.0632902460212956 0.161102444417843 0.0632902460212956 -0.56961221419166 0.383577248613913 0.161102444417843 0.383577248613913 -0.995382960153103
1.69244269720154 0.420720218513377 -0.682714172769434 0.420720218513377 0.826141519989904 -0.414983124624558 -0.682714172769434 -0.414983124624558 2.02519414275303
3.44905899715398 0.132656115275153 -0.968966407227205 0.132656115275153 -1.37462496263383 -0.403736003011335 -0.968966407227205 -0.403736003011335 0.41719386977838
-2.02021715207892 0.70650316282533 -0.103111272412346 0.70650316282533 0.431539769725742 -1.31371398925359 -0.103111272412346 -1.31371398925359 0.775244011100227
1.05625527999216 0.414406724814443 1.27984216407809 0.414406724814443 -0.56860457590819 -1.13720915181638 1.27984216407809 -1.13720915181638 -1.35308614334762
-1.02017207302892 0.845340324167087 0.991353652886857 0.845340324167087 -0.347742269714188 -1.03938435312362 0.991353652886857 -1.03938435312362 0.511046650519194
1.60273191323801 0.43032778100066 -1.03469924231714 0.43032778100066 0.086065556200132 -0.749726622898928 -1.03469924231714 -0.749726622898928 2.16311431249665
-0.944545244983268 0.286460443150663 1.40133351919649 0.286460443150663 0.143230221575332 0.218716419432601 1.40133351919649 0.218716419432601 -0.247749572454628
2.13463168267447 -0.0514598709216167 0.30113554094872 -0.0514598709216167 1.32461519594532 0.358313175306072 0.30113554094872 0.358313175306072 0.529846078378127
2.07400356918253 -0.814166982507001 -0.706125866344935 -0.814166982507001 -1.47591881899966 -0.0675256976012916 -0.706125866344935 -0.0675256976012916 0.939571849480829
-0.890504402434481 0.232552105094355 0.446197534977787 0.232552105094355 2.37467840649195 0.451869537541064 0.446197534977787 0.451869537541064 0.828112374238435
-3.57926780359371 -0.222374823021759 -1.34391740869672 -0.222374823021759 -0.686461410197604 0.87789712740764 -1.34391740869672 0.87789712740764 -0.601378869215366
2.61463719493566 -0.333422754685599 0.46340111668168 -0.333422754685599 0.574542034910213 -0.557588335519419 0.46340111668168 -0.557588335519419 -0.446447417290887
-1.0627054000762 0.720575424152388 0.086010329142858 0.720575424152388 -0.158641273752383 -1.28824359649525 0.086010329142858 -1.28824359649525 -0.309637184914289
1.65434949729607 -0.585593338412044 -0.593323943539596 -0.585593338412044 -0.585593338412044 0.160410056396699 -0.593323943539596 0.160410056396699 -1.7297228972897
-3.96945965471924 -0.148661669948143 -1.34374704264815 -0.148661669948143 -1.22211476723603 0.687318889630374 -1.34374704264815 0.687318889630374 0.289600655743135
1.1920317749028 -0.60358434316507 -0.088929354635606 -0.60358434316507 -1.25636364846899 -0.578986862095648 -0.088929354635606 -0.578986862095648 1.53450439594631
-4.14054813737549 -0.293845351684712 0.80330450038483 -0.293845351684712 -0.788039806790819 -0.261407877797439 0.80330450038483 -0.261407877797439 0.877719881655634
3.32412361337585 -0.210935889347363 0.154435204700748 -0.210935889347363 0.576306983395473 -0.589490476479683 0.154435204700748 -0.589490476479683 0.103584588518794
2.50450191502382 -0.507022923973502 -0.231508580380354 -0.507022923973502 -0.00765317621092078 -0.340566341385975 -0.231508580380354 -0.340566341385975 1.17093596027088
-2.14631224507754 0.204138142420709 -0.65820242182378 0.204138142420709 2.62708618797491 -0.805105571042421 -0.65820242182378 -0.805105571042421 2.35426605371172
1.04338301458006 0.338186759790223 0.830094774030546 0.338186759790223 -1.04722604594131 0.126820034921333 0.830094774030546 0.126820034921333 -0.659079878454809
1.63544995613008 -0.180870484088891 -0.0209428981576611 -0.180870484088891 2.2618330010274 0.0247506978226904 -0.0209428981576611 0.0247506978226904 -0.573073849586908
-0.0491735282971868 0.796232900504449 -0.355562435379659 0.796232900504449 1.48277100711517 -0.705451002109642 -0.355562435379659 -0.705451002109642 0.296932459333013
3.25827197964815 0.391378231874896 -0.971697679137673 0.391378231874896 -2.54685046456521 0.0771188634236249 -0.971697679137673 0.0771188634236249 -0.601527134704274
1.31930129035621 -0.0402693707812217 0.577194314530844 -0.0402693707812217 -1.12370720370457 -0.0441045489508618 0.577194314530844 -0.0441045489508618 0.49282039479876
1.13085527243265 0.189753681306495 0.15141960427488 0.189753681306495 -0.467675739785704 0.314339431659244 0.15141960427488 0.314339431659244 -1.00051941052515
2.22549745621653 -0.768007297713278 0.0229827620263325 -0.768007297713278 -0.494129383566149 -0.56882336015173 0.0229827620263325 -0.56882336015173 0.676076249607948
-0.345164367786036 -0.0465390158812633 0.988954087476846 -0.0465390158812633 -1.60559604790358 0.729111248806459 0.988954087476846 0.729111248806459 -1.61141342488874
-0.241940226044771 -0.553006230959477 0.683577146602687 -0.553006230959477 1.45740183784112 0.647094096643555 0.683577146602687 0.647094096643555 -0.643253775595226
-1.97962887438483 0.825326323723123 -0.427091943744833 0.825326323723123 0.884965288840645 0.973461817724709 -0.427091943744833 0.973461817724709 -1.93153293477393
-3.98323777313228 -0.14859947118759 -1.33160565090178 -0.14859947118759 -1.36055359983443 0.629135423469537 -1.33160565090178 0.629135423469537 0.486325542068477
1.39667749070178 -0.203049580849308 1.05320109692865 -0.203049580849308 1.41755174667694 -0.214435538653942 1.05320109692865 -0.214435538653942 -0.888104708761457
0.506141523957007 1.42674610715428 0.317054690478729 1.42674610715428 0.832746054510397 0.242565937896377 0.317054690478729 0.242565937896377 -1.9099680149321
-0.38094138940515 -0.334998709275886 0.472826749663678 -0.334998709275886 0.834625355681635 -0.120599535339319 0.472826749663678 -0.120599535339319 -2.54407591215801
2.10320761197816 0.18771798358275 -1.13396986001008 0.18771798358275 -1.78140535440773 -1.31211039545085 -1.13396986001008 -1.31211039545085 -0.294985402772893
-1.36019930693524 0.26009476832331 -0.235048605447732 0.26009476832331 2.83792291659434 -0.341013140690562 -0.235048605447732 -0.341013140690562 1.0596453524283
2.37622186129456 0.0632381624376777 -0.948572436565166 0.0632381624376777 -1.65569007109556 -1.29734048394872 -0.948572436565166 -1.29734048394872 -0.938990896801882
0.065239796313972 -0.118966687396067 0.245608644946718 -0.118966687396067 -0.120885504934713 0.462435026813743 0.245608644946718 0.462435026813743 -0.752176475149325
-0.763495581772504 0.0366323637719131 -0.310411082488316 0.0366323637719131 -0.653598490456765 0.827120213586879 -0.310411082488316 0.827120213586879 0.929305228319058
-1.760470263629 -0.134533753770775 0.382460242862633 -0.134533753770775 1.35879091308483 0.776451950334189 0.382460242862633 0.776451950334189 -0.0980174491758506
-1.40620544093012 0.840270099764521 0.702143508022408 0.840270099764521 0.558261641624374 -0.823004275796757 0.702143508022408 -0.823004275796757 1.20093397820226
-1.27796145170164 0.281421375487843 -0.267928569813768 0.281421375487843 2.99540285964457 -0.341175229187316 -0.267928569813768 -0.341175229187316 1.01581551289105
0.483810626704159 -0.338667438692911 -0.251581525886163 -0.338667438692911 -2.36486634332993 0.24771104087253 -0.251581525886163 0.24771104087253 -2.72675669210464
-7.58941499984469 0.854133478815022 -0.97387181696666 0.854133478815022 -4.11101627653959 -0.397132154869601 -0.97387181696666 -0.397132154869601 -1.16944443594767
-0.992814335416871 0.0963897413026088 -0.316158351472557 0.0963897413026088 -0.695933932204836 0.83280736485454 -0.316158351472557 0.83280736485454 0.875218851027688
2.80312548241872 -0.473875337177807 -0.37069280408264 -0.473875337177807 -0.0726099306965995 -0.158595374942573 -0.37069280408264 -0.158595374942573 0.66877567746868
0.185281179456841 0.233034060760151 0.56157388412692 0.233034060760151 0.578764921396112 0.467978236772434 0.56157388412692 0.467978236772434 -1.47269885939407
1.02851013128452 0.156302665354683 1.21954672227358 0.156302665354683 0.607843698601547 -0.737131088462828 1.21954672227358 -0.737131088462828 -0.806598939731576
1.44211219050638 -0.603135393348514 -0.386625252146483 -0.603135393348514 -0.549007858048006 0.253239540155946 -0.386625252146483 0.253239540155946 -1.85773433656385
-0.208540493764768 -0.158336300821398 -0.191162119284371 -0.158336300821398 0.388117030062208 0.756924755146196 -0.191162119284371 0.756924755146196 0.712513353696292
0.613957937988656 0.739023443875234 -0.486997500194705 0.739023443875234 1.633431304155 -0.553320116952739 -0.486997500194705 -0.553320116952739 0.481312704472588
0.817213452001459 -0.435213675600777 0.290775949200519 -0.435213675600777 -1.19351173920213 0.0247064532000441 0.290775949200519 0.0247064532000441 0.190049640000339
-3.23516155004925 0.161758077502463 0.214378175003264 0.161758077502463 0.746425827511364 -0.428756350006527 0.214378175003264 -0.428756350006527 0.925723937514093
-2.276753123372 0.816012953769847 -0.419553830004308 0.816012953769847 0.596613244501539 0.964203985468616 -0.419553830004308 0.964203985468616 -1.52425061175877
-1.8568357336999 -0.0730432276196649 0.363293947897807 -0.0730432276196649 1.11871469670118 0.747731988001307 0.363293947897807 0.747731988001307 0.0999538904269099