-0.0954071939 -0.6447155742 4.0705450135 3.107982274 4.7875580303 4.2425520343 2.2645572142 1.8833966811 2.3839662672 7.2772577049 1.432942627 0.5937251046 8.1452878467 4.1435595576 2.3222712069 1.0035067494 4.3586863561 1.5311858523 4.0914270853 1.5643511207 4.5517598475 9.4524223159 2.0118543717 3.3969676284 6.3246983704 4.6621683693 0.1717823745 1.6703696796 4.5218620012 2.9198888076 3.6584689123 1.5409071616 1.0788605323 8.620611401 2.0586153841 2.0578543249 6.8065942838 4.66016692 3.6597140436 4.7979513969 4.7795279202 0.2823114641 0.4854789908 1.4729200786 3.2313248531 5.6200096588 1.4696133126 4.4260200883 9.9102776056 4.8028507487 1.5976324533 1.7174041928 5.3312997415 0.5431981958 3.3741687753 0.4502767976 3.6860121026 9.3224127314 3.4680877084 3.9042822981 6.8355737312 3.3802193554 0.9535505479 8.7263129327 1.0101145141 4.3451864418 7.0524418495 5.7515740593 1.0556478285 1.2154775921 2.9040726807 1.0524811377 3.4910338991 2.8228580765 3.7790824011