-0.0337436546651914 -0.0815995730665575 0.259708281613989 -0.0234402211831287 -0.0135175678824038 0.0211750804690254 0.0130228878899027 -0.0799124160443162 -0.0118023858501924 0.00145164409441849 0.0137808487100135 -0.0177678563210917 0.0422267480501088 -0.0676456892032419 -0.0535470523067775 0.0720024212577798 0.00209827620519824 0.041728725625226 -0.0277259908270999 0.0058464284560719 -0.0173143139579046 0.0513952971834711 -0.0871194715899494 -0.0230018483207511 -0.00230165036011943 0.0330335163391582 -0.00429296872910121 -0.0266636115500654 0.0736422700063099 0.123023366014493 -0.00792027919386494 -0.00342419342002575 -0.054032476332683 -0.0262432364005127 0.0628986638905872 -0.0439180188352815 0.0525777469160659 0.00568342059991509 -0.0472409108431215 0.00846432434154286 -0.0209984457731584 -0.0416698473932703 -0.0490260268451667 -0.0760300522778056 -0.0107757448886244 -0.00692037769135104 0.0266237594716674 -0.00939197788257401 -0.0556558700294875 0.0984932547647263 0.00960589355500691 0.0593086344023893 0.0555239725054994 0.082820332216451 0.0162190245774189 -0.0478407489005565 -0.0410756657598659 0.00828049056054583 -0.00454827914103135 -0.0822469765078869 0.0357521994164485 0.0198339937533884 -0.0164666216838526 -0.0117149683879001 -0.0122865243251818 -0.0320814373307218 -0.0112660540080108 -0.0247214012260772 -0.0169810991604611 -0.0411137180669814 0.106988689438438 0.0316425502479779 -0.0369652452608456 0.0151975258195151 -0.0460970276380085