-4.75549413573295 1.75633585937364 0.723314654258542 1.75633585937364 6.80355358494567 -3.2309386628068 0.723314654258542 -3.2309386628068 5.99831655271862