10.849842 0.000000 0.000000 0.000000 6.557360 0.000000 0.000000 0.000000 5.199009
10.406300 0.000000 0.000000 0.000000 6.218700 0.000000 0.000000 0.000000 4.946900
10.699977 0.000000 0.000000 0.000000 6.255515 0.000000 0.000000 0.000000 4.825317
10.245963 0.000000 0.000000 0.000000 6.303726 0.000000 0.000000 0.000000 5.107489
10.406300 0.000000 0.000000 0.000000 6.218700 0.000000 0.000000 0.000000 4.946900
10.151672 0.000000 0.000000 0.000000 6.882715 0.000000 0.000000 0.000000 5.059808
10.406300 0.000000 0.000000 0.000000 6.218700 0.000000 0.000000 0.000000 4.946900
10.896946 0.000000 0.000000 0.000000 6.577626 0.000000 0.000000 0.000000 5.202564
10.406300 0.000000 0.000000 0.000000 6.218700 0.000000 0.000000 0.000000 4.946900
10.876303 0.000000 0.000000 0.000000 6.568586 0.000000 0.000000 0.000000 5.227088
10.938800 0.000000 0.000000 0.000000 6.316082 0.000000 0.000000 0.000000 4.843425
10.406300 0.000000 0.000000 0.000000 6.218700 0.000000 0.000000 0.000000 4.946900
10.831926 0.000000 0.000000 0.000000 6.536760 0.000000 0.000000 0.000000 5.202277
10.406300 0.000000 0.000000 0.000000 6.218700 0.000000 0.000000 0.000000 4.946900
10.893630 0.000000 0.000000 0.000000 6.549551 0.000000 0.000000 0.000000 5.199798
10.406300 0.000000 0.000000 0.000000 6.218700 0.000000 0.000000 0.000000 4.946900
10.920860 0.000000 0.000000 0.000000 6.545518 0.000000 0.000000 0.000000 5.233721
10.119884 0.000000 0.000000 0.000000 6.382065 0.000000 0.000000 0.000000 5.175053
10.812858 0.000000 0.000000 0.000000 6.475762 0.000000 0.000000 0.000000 5.230484
10.924342 0.000000 0.000000 0.000000 6.566745 0.000000 0.000000 0.000000 5.228244
10.882269 0.000000 0.000000 0.000000 6.522646 0.000000 0.000000 0.000000 5.225698
10.406300 0.000000 0.000000 0.000000 6.218700 0.000000 0.000000 0.000000 4.946900
10.354655 0.000000 0.000000 0.000000 6.169440 0.000000 0.000000 0.000000 5.270225
10.406300 0.000000 0.000000 0.000000 6.218700 0.000000 0.000000 0.000000 4.946900
11.070032 0.000000 0.000000 0.000000 7.376728 0.000000 0.000000 0.000000 5.558954
10.925895 0.000000 0.000000 0.000000 6.529270 0.000000 0.000000 0.000000 5.204449
10.380050 0.000000 0.000000 0.000000 6.340077 0.000000 0.000000 0.000000 5.176991
10.406300 0.000000 0.000000 0.000000 6.218700 0.000000 0.000000 0.000000 4.946900
11.190894 0.000000 0.000000 0.000000 7.062010 0.000000 0.000000 0.000000 5.607328
10.873521 0.000000 0.000000 0.000000 6.525993 0.000000 0.000000 0.000000 5.215653
10.406300 0.000000 0.000000 0.000000 6.218700 0.000000 0.000000 0.000000 4.946900
10.891690 0.000000 0.000000 0.000000 6.528590 0.000000 0.000000 0.000000 5.233645
10.406300 0.000000 0.000000 0.000000 6.218700 0.000000 0.000000 0.000000 4.946900
10.354400 0.000000 0.000000 0.000000 6.254329 0.000000 0.000000 0.000000 4.987253
10.406300 0.000000 0.000000 0.000000 6.218700 0.000000 0.000000 0.000000 4.946900
10.882442 0.000000 0.000000 0.000000 6.509443 0.000000 0.000000 0.000000 5.199421
10.964737 0.000000 0.000000 0.000000 6.560433 0.000000 0.000000 0.000000 5.255569
10.406300 0.000000 0.000000 0.000000 6.218700 0.000000 0.000000 0.000000 4.946900
10.902098 0.000000 0.000000 0.000000 6.514319 0.000000 0.000000 0.000000 5.175972
10.406300 0.000000 0.000000 0.000000 6.218700 0.000000 0.000000 0.000000 4.946900
10.474797 0.000000 0.000000 0.000000 6.336781 0.000000 0.000000 0.000000 5.005491
10.785390 0.000000 0.000000 0.000000 6.520464 0.000000 0.000000 0.000000 5.174657
10.406300 0.000000 0.000000 0.000000 6.218700 0.000000 0.000000 0.000000 4.946900
11.579838 0.000000 0.000000 0.000000 6.956539 0.000000 0.000000 0.000000 5.808022
10.406300 0.000000 0.000000 0.000000 6.218700 0.000000 0.000000 0.000000 4.946900
10.406300 0.000000 0.000000 0.000000 6.218700 0.000000 0.000000 0.000000 4.946900
10.406300 0.000000 0.000000 0.000000 6.218700 0.000000 0.000000 0.000000 4.946900
10.406300 0.000000 0.000000 0.000000 6.218700 0.000000 0.000000 0.000000 4.946900
10.406300 0.000000 0.000000 0.000000 6.218700 0.000000 0.000000 0.000000 4.946900
10.406300 0.000000 0.000000 0.000000 6.218700 0.000000 0.000000 0.000000 4.946900
10.406300 0.000000 0.000000 0.000000 6.218700 0.000000 0.000000 0.000000 4.946900
10.406300 0.000000 0.000000 0.000000 6.218700 0.000000 0.000000 0.000000 4.946900