0.13712 -0.106279 0.147025 4.83706 5.94005 2.22425 -0.234594 3.21129 -0.0702303 5.89513 2.8525 2.47012 3.05753 4.58011 -0.125354 1.99609 1.7232 2.38242 7.40668 1.28167 -0.046202 8.54636 4.71662 2.50192 1.17044 5.17637 2.50579 3.89269 1.34582 4.73537 9.24382 1.40786 2.5339 6.38859 4.67565 -0.0508582 1.36256 4.97045 4.02342 3.89978 1.46375 1.03131 9.52626 1.28876 1.09689 6.34403 4.87703 3.65136 4.83277 4.49882 0.446189 -0.094176 1.51018 3.36027 5.21113 1.54804 3.99422 10.4973 5.11017 2.10849 1.77347 6.35451 1.79356 3.13641 -0.0638968 4.36896 8.51012 2.82579 2.94423 7.28263 3.53842 0.357736 8.37567 0.313102 3.30564 6.84763 5.87177 0.849344 1.79092 3.95558 1.61483 2.75368 2.357 4.31662
10.374 0.0481284 4.92041 5.24794 0.00691397 2.43594 0.0217816 3.11342 4.9044 5.21003 3.10751 2.50794 2.93924 4.61696 4.8322 2.1872 1.51942 2.35288 7.4564 1.58587 0.139555 8.20099 4.66577 2.53836 1.12255 4.62118 2.17583 4.09675 1.53227 4.6122 9.32111 1.5229 2.72951 6.34026 4.66811 0.271858 1.21002 4.69379 3.70682 4.01654 1.57425 1.2265 9.21394 1.56571 1.24503 6.38672 4.62759 3.69497 4.90371 4.68823 0.765769 0.321841 1.51179 3.27711 5.55933 1.58053 4.16309 10.0865 4.65106 1.71143 1.87636 5.92475 1.53094 3.35791 0.296216 4.03605 8.55234 2.83012 3.41249 7.0476 3.41719 0.925685 8.59185 0.304451 3.39759 7.09017 5.86712 0.897738 1.86168 3.43956 1.56162 3.29061 2.80636 3.99025
-0.211338 6.12723 4.84826 5.21545 0.050066 2.49484 0.307272 2.89557 4.67468 5.024 3.39584 2.3114 2.78929 4.68684 4.82265 2.10079 1.60062 2.37995 7.40698 1.38293 4.88617 8.18345 4.62533 2.64833 1.06857 4.72584 2.19497 3.97068 1.55668 4.68022 9.38249 1.38563 2.61798 6.4145 4.72825 0.453159 1.10017 4.70178 3.68633 4.02314 1.65264 1.4533 9.41771 1.42258 1.05907 6.51661 4.69 3.69952 4.87443 4.84787 0.897884 0.183029 1.54667 3.11238 5.4089 1.55331 4.2297 10.3909 4.31987 1.54557 1.52322 6.0722 1.50358 3.1329 0.270721 4.03028 8.41299 2.66423 3.27411 7.36029 3.68591 0.968697 8.77247 0.135114 3.31212 7.12425 6.06204 1.01863 2.12851 3.69729 1.80052 3.31187 2.86708 4.21881
10.0172 6.01671 -0.0387368 5.21082 0.182099 2.53578 0.288516 2.95567 0.161889 5.06693 3.40338 2.40282 3.04596 4.72716 4.7739 2.34156 1.23198 2.59885 7.38277 1.81538 0.000659266 8.00539 4.5802 2.59517 1.14601 4.39428 2.3433 4.10882 1.5171 4.53843 9.25591 1.49815 2.86192 6.30387 4.94671 0.0388168 1.21732 4.50235 3.91206 4.14265 1.63259 0.966253 9.19365 1.79142 1.28986 6.30161 4.66107 3.57394 4.81933 5.1422 0.559915 0.352017 1.39733 3.67043 5.54404 1.63193 3.98445 9.97865 4.5247 1.86571 1.94511 5.74034 1.79536 3.38799 0.153812 4.04865 8.59162 2.66578 3.57573 7.25405 3.81067 0.675404 8.3543 0.164778 3.01299 7.15938 6.25205 0.356793 1.87493 3.18766 1.77588 3.24103 2.67365 3.90059
10.384 0.00607469 4.92445 5.20943 0.0446116 2.5195 0.0391888 3.07678 0.0194943 5.18147 3.12749 2.48377 3.00499 4.64693 4.88513 2.20295 1.5701 2.41946 7.43537 1.60028 0.120263 8.2125 4.66214 2.60556 1.16588 4.64397 2.21181 4.04049 1.57599 4.70331 9.32681 1.57359 2.71971 6.30897 4.63565 0.324137 1.14207 4.62497 3.70601 4.0007 1.60392 1.28867 9.25953 1.51508 1.22945 6.35422 4.66732 3.64723 4.90253 4.68421 0.787051 0.319823 1.59577 3.28769 5.49607 1.55255 4.11596 10.0797 4.69696 1.66949 1.82431 5.94203 1.57031 3.29682 0.323378 4.04602 8.5888 2.83257 3.43646 7.10674 3.38695 0.973303 8.52301 0.288856 3.39951 7.02974 5.90872 0.882317 1.85905 3.47809 1.57721 3.31519 2.75911 4.0432
9.70373 6.32664 0.271937 5.58355 -0.383391 2.2066 0.65323 2.90661 0.0412564 5.07903 2.92394 2.34555 2.8599 4.9283 0.175211 2.34817 0.880437 2.51483 7.54269 2.0472 0.00855459 8.20117 4.4443 2.54225 1.21949 4.70441 2.39072 3.98131 1.69056 4.86293 9.09784 1.30993 2.47502 6.36029 5.09653 0.0646921 1.2746 4.906 3.92309 4.08361 1.27881 1.35826 9.13919 1.44075 0.921981 6.2917 4.6469 3.60555 4.78422 5.05074 0.667164 0.252935 1.4625 3.20714 5.49216 1.90656 4.23853 9.96379 4.41337 1.7989 1.67404 6.08784 1.75637 3.36777 0.30317 4.07635 8.21723 2.42609 3.13671 7.31938 3.88338 0.663042 8.4847 -0.0784794 2.69486 7.00731 6.39733 0.40869 2.17807 3.63031 2.03748 3.29009 3.04713 4.59228
10.3736 0.0419479 4.94492 5.24108 0.0128735 2.49835 10.4061 3.15127 4.9341 5.23684 3.05942 2.44894 2.99587 4.69862 4.81999 2.18612 1.57661 2.37461 7.39913 1.50853 0.0876554 8.21868 4.66014 2.54083 1.13789 4.64559 2.1763 4.10161 1.57874 4.65041 9.24985 1.51646 2.73431 6.36302 4.62456 0.248301 1.18146 4.62831 3.75355 4.06943 1.51935 1.28771 9.25846 1.57228 1.2542 6.35941 4.66269 3.73777 4.90413 4.69358 0.787477 0.386742 1.59862 3.26995 5.55913 1.55809 4.11972 10.0525 4.67141 1.67031 1.90156 5.86295 1.50053 3.33368 0.359472 3.98068 8.53878 2.7847 3.44818 7.09764 3.45598 0.891459 8.55977 0.342194 3.44743 7.08857 5.88201 0.903125 1.81852 3.42405 1.59364 3.33533 2.74375 3.99789
10.5979 5.93741 4.93805 5.67539 0.303873 2.6399 0.250217 2.69879 -0.06631 4.79239 3.40211 2.88678 2.95075 4.69388 -0.0422226 2.03587 1.41812 2.1803 7.49101 1.65156 -0.109179 8.22137 4.81961 2.30576 0.874721 4.84706 2.14621 4.08689 1.42416 4.95371 9.43276 1.07094 2.60541 6.48554 4.94026 0.0724836 1.24464 4.98389 3.65791 3.96991 1.45666 1.41205 9.40336 1.2308 1.10566 6.47774 4.91679 3.73562 4.955 4.71777 0.76853 -0.0895742 1.55985 2.94524 5.54518 1.46291 4.48419 10.2317 4.74258 1.72974 1.6147 5.97965 1.30534 3.27017 0.175256 4.40559 8.18393 2.12058 3.15682 7.40599 3.8608 0.938715 8.96721 6.24455 3.30386 7.06882 6.37253 0.719571 1.60224 3.54141 1.70939 3.23847 2.84721 4.55968
0.0408338 0.0474294 0.0254712 5.22224 0.0400673 2.44477 10.3728 3.14063 4.92511 5.20027 3.08696 2.51027 2.96269 4.62881 4.83301 2.26613 1.53931 2.35188 7.46662 1.59745 0.0774149 8.17202 4.70235 2.55899 1.16062 4.64839 2.23284 4.06672 1.52317 4.70476 9.26493 1.51935 2.71445 6.31337 4.67166 0.283865 1.17102 4.64426 3.73159 4.04055 1.54013 1.30025 9.28012 1.51214 1.1813 6.33831 4.62686 3.73384 4.84693 4.6229 0.834447 0.333543 1.57964 3.28683 5.54007 1.53538 4.17695 10.0991 4.7118 1.63828 1.8796 5.8862 1.49689 3.2977 0.335786 3.98638 8.52573 2.82663 3.35455 7.10104 3.4593 0.900557 8.54539 0.298303 3.36829 7.04962 5.91734 0.972158 1.84208 3.4705 1.51729 3.32743 2.80019 3.97585
10.566 6.23914 -0.318057 5.51887 0.0585365 2.74991 0.11556 2.8527 -0.120971 4.69886 3.54257 2.38247 2.648 4.76528 5.01171 2.00585 1.27221 2.29102 7.55887 1.56284 -0.0717619 8.36682 4.44224 2.5688 1.10352 4.65508 2.21985 3.75824 1.54978 4.76422 9.50583 1.3303 2.72702 6.58093 5.0764 0.146272 0.868905 4.71651 3.80594 3.78552 1.44708 1.01094 9.61847 1.56243 1.13072 6.67616 4.96643 3.81922 4.9463 5.02859 0.697247 0.0875206 1.2095 3.30385 5.28613 1.6945 4.00588 10.4761 4.6194 1.72244 1.7021 5.95071 1.61294 3.15295 0.204222 3.95305 8.78686 2.54767 3.74306 7.35962 3.83501 0.777814 8.74131 0.0392255 3.08358 7.36662 6.45996 0.742025 1.98951 3.31628 1.889 3.02012 2.95046 4.34821
10.4224 3.57734 4.40447 5.04835 0.261962 2.42124 -0.113922 0.472694 0.105893 4.87547 3.39395 2.69566 2.8377 4.77752 4.83175 1.94378 1.98844 2.59498 7.45076 1.66637 4.71207 8.80713 4.50273 2.17862 1.06346 5.16118 2.33693 3.99192 1.69458 4.64992 9.5587 1.47626 2.68858 6.33116 4.96992 0.600641 1.22098 5.2257 3.90162 4.04093 1.73349 1.39803 9.37722 1.6289 1.14937 6.16715 5.09721 3.86857 4.823 4.705 1.17374 -0.0267165 2.10968 2.93874 5.44026 1.69316 4.021 10.5528 5.04543 1.73392 1.53244 0.126501 1.83393 3.14352 0.301443 4.1751 8.56237 2.55435 3.318 7.11867 3.59051 1.08107 9.17184 0.192928 3.47773 7.08843 -0.0583447 1.28269 2.09486 4.02134 1.69409 3.03405 2.69921 4.04555
10.368 6.21473 0.0306331 5.24602 6.20333 2.47555 10.3871 3.14264 0.00784961 5.17671 3.12035 2.51596 2.9922 4.68291 4.84049 2.24374 1.54597 2.36156 7.46644 1.56964 0.137625 8.21005 4.70405 2.52927 1.13432 4.69984 2.14905 4.05421 1.55377 4.65511 9.25115 1.57279 2.71983 6.36098 4.6995 0.283296 1.16623 4.63573 3.71155 4.01952 1.5537 1.26473 9.2252 1.55726 1.22335 6.37962 4.61824 3.71879 4.89321 4.69415 0.837569 0.320165 1.53307 3.29389 5.54931 1.52608 4.17515 10.0742 4.68488 1.63758 1.84988 5.94341 1.55947 3.30297 0.344644 4.05645 8.56681 2.811 3.36868 7.04396 3.38373 0.918325 8.57844 0.345728 3.44549 7.05157 5.90407 0.966358 1.8848 3.38029 1.52741 3.33644 2.78776 4.05611
0.514565 0.753047 0.0509113 4.97442 5.75261 2.55539 9.79075 3.51794 -0.0264835 5.73259 2.49649 2.47711 3.0106 4.77656 0.019954 2.10609 1.47359 2.59878 7.41161 1.27904 5.04405 8.50544 4.90298 2.24838 0.970255 4.88021 2.13776 3.94064 1.49105 5.00359 9.27255 1.61195 2.57792 6.451 4.53921 0.00570257 1.26379 4.99211 3.75789 3.94192 1.64865 1.41977 9.26792 1.55744 1.02477 6.60411 4.71456 3.71264 4.8654 4.51658 0.525648 -0.087835 1.23214 3.15991 5.39304 1.58188 4.54988 10.3096 5.09387 1.78437 1.95534 5.9235 1.59959 3.43147 -0.0790022 4.40191 8.86618 3.13883 2.91989 7.06934 3.28177 0.562344 8.22906 0.603976 3.28183 7.28041 5.59538 0.977901 1.60681 3.69008 1.53558 2.80872 2.4014 4.15597
0.0311085 6.21258 4.9266 5.18824 0.0199395 2.45599 10.3707 3.06937 4.91315 5.25239 3.07654 2.44157 3.01785 4.70735 4.89876 2.25106 1.50643 2.37282 7.38306 1.55396 0.124178 8.20654 4.62956 2.61254 1.16683 4.66369 2.19499 4.03107 1.54295 4.70489 9.30545 1.57082 2.7129 6.31516 4.64739 0.237544 1.18452 4.6393 3.73043 4.03859 1.59743 1.23986 9.20071 1.59385 1.23747 6.33721 4.65383 3.67074 4.82674 4.68628 0.78929 0.367254 1.56123 3.24318 5.49606 1.54315 4.14875 10.0718 4.6497 1.71597 1.87603 5.88937 1.53343 3.37894 0.35291 3.97836 8.52797 2.83566 3.39638 7.01822 3.44347 0.924736 8.57045 0.360904 3.40537 7.03771 5.88023 0.943852 1.88005 3.46632 1.54898 3.3015 2.76697 3.98738
0.00726469 0.058755 4.64237 5.0843 6.22092 2.31901 10.259 3.30126 0.0799552 5.34459 3.06583 2.73933 2.92736 4.79992 -0.0417846 1.99934 1.3815 2.72808 7.5767 1.2515 -0.0435067 8.30685 4.90624 2.32956 1.14032 4.7641 2.20377 4.01473 1.50885 4.90839 9.21288 1.65694 2.60839 6.51151 4.48708 -0.0322015 1.24867 4.81906 3.79264 3.89503 1.39063 1.336 9.45192 1.28675 1.15163 6.69023 4.70351 3.68149 5.00752 4.55978 0.401909 10.5837 1.96352 3.32487 5.55129 1.22271 4.66827 10.5363 5.00377 1.76796 1.95428 6.00928 1.46234 3.07141 0.264171 4.12075 8.42471 2.9951 2.96246 7.16288 3.1213 0.475439 8.37764 0.395965 3.39862 7.24155 5.62154 0.726396 1.73775 3.50272 1.58263 3.3383 2.88921 4.40085
10.3907 0.0393756 4.91313 5.16856 6.21424 2.51573 10.4055 3.11315 4.92313 5.23896 3.132 2.50314 2.98081 4.65471 4.83572 2.17089 1.53192 2.3518 7.42958 1.55119 0.0834355 8.1485 4.61774 2.60208 1.14756 4.67761 2.1846 4.03847 1.54919 4.63596 9.23303 1.56304 2.71904 6.33163 4.64058 0.288602 1.16342 4.63911 3.73866 4.05001 1.57989 1.22148 9.24335 1.57651 1.24286 6.37273 4.61871 3.68779 4.85945 4.64258 0.788075 0.308052 1.55857 3.2592 5.57379 1.52814 4.09335 10.053 4.64497 1.65922 1.83083 5.88091 1.53992 3.31529 0.329006 4.02476 8.5413 2.83592 3.42952 7.01922 3.43774 0.897253 8.52269 0.292704 3.37589 7.06981 5.85263 0.897572 1.87329 3.3867 1.56357 3.354 2.81937 3.98307
10.613 6.24772 5.06641 5.44251 6.15845 1.95758 0.0272041 2.61952 0.291442 4.93244 2.8078 2.49671 3.01498 4.73699 4.60593 1.77301 1.203 2.55125 7.23933 1.80441 -0.0390509 8.47788 4.70276 2.50356 1.03892 4.55221 2.25233 3.94814 1.56731 5.06754 9.43401 1.78053 2.73462 6.47869 4.72894 -0.0467631 1.03146 4.5086 3.84954 3.69879 1.29015 1.3238 9.23419 1.87518 1.16138 6.50433 4.69541 3.51292 5.03593 4.61866 0.423497 0.00691755 1.75452 3.22016 5.3578 1.74448 4.61926 10.4888 4.56535 1.6924 1.72462 6.03358 1.73125 3.35892 0.272288 4.22771 8.6058 2.72914 3.6429 7.25728 3.93152 1.0939 9.00844 0.289609 3.003 7.07446 6.1994 0.310726 1.67373 3.24497 1.78117 3.24486 2.8886 4.45603
9.38154 5.74312 4.78784 5.96627 0.425896 2.31476 0.844069 2.98501 0.0896544 4.94768 3.39464 2.27288 2.78212 4.78855 4.95796 2.12946 1.02753 2.59758 7.35938 1.77298 4.89661 8.09328 4.91758 2.48608 0.987192 4.5913 2.35564 3.98972 1.49722 4.8638 9.40435 1.40822 2.78366 6.54693 4.90905 0.155378 1.04258 4.86418 3.81088 3.99316 1.45037 1.30819 9.78688 1.30525 1.13648 6.383 4.76893 3.76646 5.26258 5.25375 0.812087 0.5784 1.47274 3.47639 5.54044 1.71669 4.03706 9.76086 4.76135 1.55706 2.0667 5.56855 1.559 3.49414 0.100977 4.34578 8.3987 2.58426 3.34754 7.1158 3.45582 0.84466 8.3167 0.374996 3.284 7.51018 6.0324 0.52794 1.51066 3.23076 1.9362 3.23666 2.72456 4.27535
9.52441 5.91223 4.96381 5.88205 0.235232 2.84565 0.339226 2.75292 4.63513 4.5264 3.40457 2.48368 3.17195 5.02578 -0.104188 2.08737 1.05311 2.32132 7.46455 2.06659 -0.11754 8.64111 4.30397 2.46151 0.966451 4.39571 2.19241 3.9656 1.66326 4.99528 9.27921 1.2152 2.51482 6.53941 5.03843 0.102526 0.792159 4.6333 3.62968 4.01612 1.59303 1.3254 9.09595 1.7488 1.09359 6.57846 4.49061 3.88943 5.10483 4.87502 0.920933 0.0406758 1.0604 2.8661 5.35017 1.69418 4.3946 10.4603 4.59209 1.41817 1.73607 5.68979 1.49281 2.87162 0.652945 4.52022 8.65837 2.45227 3.51909 7.58437 3.829 0.8265 8.53945 0.110967 3.25768 7.21099 0.0318358 0.337029 1.45985 2.95372 2.02299 3.36787 3.12182 4.78295
0.171558 -0.069054 4.95323 3.99414 6.34622 2.32572 10.3934 3.31071 -0.0565158 5.69982 2.80687 2.58795 3.09018 4.5311 -0.0612266 2.00271 1.51536 2.13195 7.45908 1.34045 -0.0814279 8.45053 5.00595 2.42695 1.09723 4.88754 2.45518 3.99133 1.43176 4.83664 9.29917 1.41181 2.75971 6.32089 4.64758 -0.0201789 1.13184 4.8246 3.98812 3.92184 1.57356 1.18961 9.16832 1.19466 1.22048 6.58461 4.67951 3.71915 5.0081 5.03935 0.433876 -0.208155 1.66706 3.12034 5.52141 1.23663 4.25619 10.7708 4.96615 1.56222 1.85347 6.35026 2.17413 3.1345 0.127752 4.65852 8.34188 2.5464 3.21064 6.81343 3.23226 0.835732 8.68165 0.0305465 3.45913 7.15575 5.74867 0.826475 2.03003 3.9227 1.53408 3.38635 2.61199 4.11651
10.5995 6.23683 5.16959 4.61099 6.43426 2.63984 -0.149848 2.65567 0.0631978 5.10958 3.19964 2.61195 3.03286 4.65453 0.341338 1.85717 1.3901 2.21564 7.57189 1.52488 4.8707 7.98306 4.83746 2.36262 1.18218 4.60754 2.35445 4.21964 1.50926 4.84288 9.36284 1.42476 2.4634 6.44703 4.93684 0.0502698 0.8654 4.64854 3.94857 3.86698 1.29614 1.27781 9.15939 1.62298 0.841611 6.40303 5.16626 3.70384 5.11322 4.87337 0.915296 -0.0132684 1.60247 2.97938 5.54435 1.49278 4.247 10.7048 4.7141 1.66421 1.96116 5.88127 1.54457 3.23588 0.501882 4.22918 8.6145 2.57302 3.25362 7.28134 3.66038 0.389948 8.90123 0.00592827 3.18165 7.43031 6.1043 0.813191 1.69793 3.21225 1.80712 3.69097 3.11857 4.53807
10.3601 0.0415789 4.94317 5.17338 0.0167899 2.52096 10.377 3.06343 0.0284851 5.15372 3.07516 2.49359 2.99167 4.6622 4.82597 2.21551 1.55408 2.37503 7.46803 1.56088 0.129974 8.16224 4.69979 2.51995 1.12877 4.65481 2.18934 4.05675 1.514 4.6561 9.24496 1.50582 2.77056 6.29338 4.7008 0.238035 1.19057 4.64533 3.71747 4.05159 1.53713 1.2926 9.19687 1.58999 1.25867 6.39277 4.63378 3.73337 4.85294 4.63112 0.830359 0.385004 1.58411 3.25508 5.53424 1.51224 4.19028 10.108 4.62515 1.66821 1.8486 5.8799 1.5107 3.30947 0.292885 4.03876 8.57988 2.76215 3.43979 7.03274 3.45982 0.971348 8.53371 0.27287 3.42397 7.03678 5.89427 0.889655 1.87153 3.46746 1.52461 3.32113 2.78095 4.01028
9.99004 3.30671 4.98543 4.83437 5.66563 2.67301 0.331354 6.1228 0.233375 5.36215 2.64103 1.90383 3.02856 4.31885 -0.12263 2.16386 1.1576 2.82236 7.15088 1.36119 4.80636 8.13781 4.70021 2.86976 1.44943 4.22555 2.07092 4.13242 1.0614 4.80991 9.0805 1.65822 2.68854 6.42534 4.63686 0.229054 1.67354 4.36147 3.53345 4.25352 0.915079 1.02976 9.28283 1.97214 1.22396 6.57597 4.67291 3.88873 4.98857 4.46435 0.622512 0.2997 1.48359 3.13354 5.38756 1.11469 3.7703 10.2763 4.18257 1.80608 2.02016 5.54467 1.12649 3.02366 0.0422388 4.05882 8.43214 2.72839 3.67392 7.05609 3.36908 0.808252 8.22557 0.435967 3.23452 6.89503 5.98432 0.804447 2.23319 3.0006 1.38903 3.36419 2.46732 4.20617
10.3958 0.0127144 4.91753 5.25064 6.17691 2.47052 10.3801 3.12652 4.89853 5.15604 3.09159 2.43561 2.94082 4.63581 4.90524 2.19254 1.55834 2.33597 7.43665 1.51269 0.101295 8.20747 4.66739 2.55973 1.13399 4.61505 2.18328 4.09732 1.5527 4.67805 9.3296 1.50775 2.76195 6.28161 4.67568 0.290736 1.13482 4.67412 3.7409 4.06587 1.5182 1.30081 9.19921 1.59018 1.24789 6.3614 4.66386 3.72203 4.91106 4.65649 0.782793 0.388388 1.56169 3.29123 5.57586 1.59186 4.09576 10.0381 4.64507 1.68226 1.8911 5.9214 1.58582 3.38523 0.360179 4.05912 8.56014 2.83267 3.41773 7.11403 3.39445 0.97453 8.51611 0.343922 3.39594 7.10373 5.92539 0.912545 1.81782 3.38967 1.5316 3.34842 2.81957 4.03301
9.44486 -0.624164 1.1432 6.84468 5.85286 3.01501 0.948521 3.51845 5.11018 4.71511 2.38152 1.79762 2.04396 6.25783 0.162643 1.03347 1.37622 2.46679 6.3906 0.848338 4.73583 9.83955 3.6752 0.817355 1.05697 5.22326 2.61968 3.28016 1.52591 4.84879 9.1388 1.08063 3.75911 7.70621 4.85544 -0.300306 1.45103 5.32399 4.02906 2.8312 2.19312 0.668522 10.5215 2.03022 1.57735 7.19424 3.74459 4.13914 7.49121 4.34516 1.26546 10.4762 0.387144 4.05511 4.73455 1.97221 4.59771 10.7258 4.59771 2.38324 0.886037 6.69112 1.93757 3.45268 0.0728888 5.05414 8.99823 2.39578 4.34036 9.4102 5.00823 4.95796 7.78684 0.210222 3.4179 6.90049 6.30719 -0.221274 2.18324 4.56271 1.68934 2.22274 1.93965 3.63935
-0.186874 -0.136756 4.98158 5.27039 0.0511837 2.55093 10.5248 3.07576 5.01571 5.68154 3.19046 2.54012 2.90991 4.64375 4.78192 2.17239 1.54399 2.42197 7.52796 1.45502 -0.0859182 8.58745 4.50816 2.51958 0.941013 4.73122 2.04404 3.9125 1.38259 4.94119 9.14335 1.42741 2.61467 6.44883 4.98571 0.351978 0.97294 4.67107 3.81 3.98783 1.51871 1.39399 9.10929 1.63441 1.10433 6.61512 5.03016 4.00912 4.88096 4.71791 0.959792 -0.348254 1.41023 2.83095 5.48766 1.75185 4.58585 10.2191 4.7124 1.83308 1.60408 5.87376 1.4247 3.42784 0.159176 4.18579 8.37725 2.50385 3.44551 7.37844 3.77605 1.13243 8.40809 0.235832 3.22616 6.66785 6.5003 1.00355 1.44841 3.36903 1.59193 2.94199 2.5309 4.4387
0.974076 0.286344 4.66995 4.65935 0.124618 2.43623 10.1194 3.2549 0.102692 4.49574 3.39917 2.49575 3.28619 4.74306 -0.0124271 1.88129 1.67724 2.15117 7.19807 1.11824 4.79796 8.45681 4.93079 2.95945 1.3512 4.86736 2.47473 3.8717 1.50044 4.61625 9.30302 1.541 2.84524 6.55441 4.26113 0.11875 1.47462 4.78761 3.90217 3.99693 1.71335 1.10773 9.55348 0.69636 1.45084 6.6461 4.28379 3.78157 5.14417 4.56481 0.569786 0.196312 2.3062 3.13643 5.31327 1.78234 4.27893 10.1955 4.5002 2.08921 1.88254 6.15715 1.89031 3.39554 0.0647837 4.55588 8.29044 2.59539 2.94584 6.944 2.88821 0.588247 8.857 0.350767 3.88787 7.52518 5.23524 0.812462 1.89355 3.91314 1.33698 2.72193 2.33664 3.87611
10.3833 6.17812 4.94333 5.20069 6.17476 2.4656 0.0145328 3.08372 0.0311018 5.15449 3.15281 2.48526 2.98057 4.61836 4.85033 2.22235 1.54637 2.39127 7.40374 1.51643 0.0750292 8.20085 4.66109 2.57149 1.08154 4.65908 2.168 4.12142 1.57135 4.70412 9.24315 1.50795 2.71851 6.30986 4.70936 0.276694 1.12677 4.67318 3.77574 4.04838 1.53665 1.26814 9.23083 1.55181 1.24942 6.40659 4.69342 3.68532 4.8751 4.69454 0.802302 0.371145 1.55698 3.28718 5.51298 1.52104 4.12435 10.038 4.64787 1.67898 1.85159 5.91497 1.58847 3.3295 0.298588 4.0016 8.57555 2.77687 3.43177 7.03191 3.38431 0.924047 8.57583 0.279694 3.40734 7.0287 5.91835 0.910078 1.87798 3.44363 1.55673 3.30073 2.81026 4.05057
9.01646 5.70218 -0.290029 6.41865 6.57248 2.91856 1.09857 2.23787 4.75324 3.64744 3.6071 2.13012 3.36626 5.46635 5.28391 2.95517 6.53935 3.09144 6.51823 2.01922 0.0544228 9.76929 3.6415 2.95173 0.869913 4.87715 1.74634 3.99163 2.13022 4.74085 9.61639 0.619433 1.91349 5.80111 5.67659 0.0820509 1.24617 5.27209 3.2563 4.29243 1.95593 0.754505 9.82784 0.535685 0.308451 4.90333 6.22861 4.39598 4.88439 5.44701 1.3797 10.7669 1.55226 2.62152 5.21741 1.95585 3.93843 10.2682 5.03257 1.9951 1.60115 5.82788 0.790006 2.73605 0.972349 4.55958 8.58676 3.12867 4.77072 6.0119 4.16825 5.23761 8.68354 0.00182953 2.93549 6.79912 -0.213653 0.442199 0.814346 3.40589 1.50389 3.16885 3.60347 4.54058
10.1793 6.30963 4.97125 6.53698 0.513603 2.70358 0.697974 2.39737 0.00679168 4.41459 3.6499 2.37056 2.65946 4.89462 0.0519284 2.30923 1.02355 2.49787 7.33948 1.80205 4.9327 8.22501 4.17722 2.39081 0.851547 4.37295 2.52805 3.88401 1.60631 4.87067 9.6195 1.44202 2.54735 6.44667 5.14458 -0.0945192 0.98097 4.61926 4.15441 3.70434 1.35618 1.23894 9.92928 1.6328 0.989815 6.5995 5.27817 3.55225 5.08203 5.3649 0.657805 0.0247293 1.73428 3.34189 5.30553 1.56444 4.23912 10.0737 4.22923 2.33454 1.45916 5.57066 1.66918 2.97171 0.386224 4.0656 8.28729 2.22875 3.24747 7.07446 3.79939 0.874843 8.94802 0.0902631 2.67971 7.33794 6.35478 0.250816 1.96514 3.45861 1.9477 3.08759 2.97664 4.3323
0.0276454 6.20837 0.0493151 5.21985 6.18313 2.5175 10.3571 3.13211 0.00125407 5.16617 3.06084 2.4794 3.01434 4.66539 4.85307 2.19308 1.5943 2.43127 7.44709 1.5484 0.0669549 8.18421 4.70692 2.5357 1.16595 4.69565 2.20812 4.04619 1.53795 4.63645 9.27161 1.52031 2.72878 6.31106 4.62809 0.247718 1.12912 4.64693 3.71573 4.06063 1.60374 1.28249 9.25179 1.58155 1.1913 6.33106 4.67865 3.73072 4.84507 4.6721 0.841313 0.388054 1.54548 3.25084 5.55675 1.59956 4.14197 10.0639 4.64725 1.69046 1.86973 5.87937 1.5162 3.37377 0.313211 4.06128 8.58453 2.8191 3.44088 7.09269 3.44181 0.886898 8.57304 0.332499 3.40778 7.05412 5.93322 0.922862 1.87651 3.40415 1.57067 3.30994 2.7986 4.06746
0.311368 0.456288 0.945456 4.90812 0.00413354 2.39884 -0.0772664 3.52395 4.8027 4.88916 3.01465 1.81009 2.83988 4.64377 5.09627 2.21967 1.27577 2.80305 7.4055 1.57905 4.89681 8.33873 4.67991 2.27485 1.18769 4.78381 2.1734 3.8376 1.24456 4.99336 9.43311 1.45929 2.94111 6.35971 4.89133 5.04558 0.97295 4.81422 3.63655 3.53358 1.44689 1.26124 9.35823 1.08475 1.3922 6.82204 4.7874 3.57692 4.82088 4.96239 0.380254 -0.0465785 1.49883 3.71289 5.37834 1.31489 4.59943 10.598 5.00154 1.65143 2.00404 5.85496 1.35262 3.233 0.249158 4.15286 8.77529 2.78531 3.17996 7.00418 3.35744 0.32087 8.52115 0.497801 3.69307 7.24654 5.70419 0.886482 1.74296 3.34797 1.61915 3.2591 2.71071 4.34585
10.3591 0.0243984 0.0446577 5.18976 0.0376599 2.48347 10.371 3.07823 0.0400424 5.21246 3.08054 2.50222 2.93826 4.63111 4.89782 2.25533 1.52853 2.38833 7.43123 1.58722 0.0925261 8.15739 4.67097 2.56522 1.09327 4.67947 2.19216 4.03858 1.53786 4.66875 9.27542 1.55166 2.75087 6.30171 4.66477 0.237188 1.12422 4.62631 3.77029 4.01021 1.56923 1.22356 9.21686 1.50488 1.23531 6.38797 4.6636 3.72092 4.87788 4.63572 0.758977 0.38686 1.57743 3.32646 5.55391 1.51368 4.12149 10.1087 4.64789 1.62817 1.85132 5.90433 1.56494 3.30018 0.316259 3.99481 8.53557 2.7777 3.37382 7.06386 3.39851 0.963428 8.52151 0.337231 3.4283 7.11462 5.86645 0.969957 1.87889 3.40562 1.55379 3.32913 2.79316 3.97829
9.8356 5.93281 4.97777 5.39549 0.265064 2.50188 0.20696 2.95499 0.291528 4.53357 3.3789 2.70449 3.02287 5.25534 0.092218 2.34967 1.23114 2.26441 7.56669 2.06903 0.0821115 8.15891 4.22502 2.696 1.16872 4.60906 2.41282 3.9967 1.42986 4.52764 9.35042 1.13489 2.56314 6.24472 4.88892 0.0952832 1.31301 5.00437 4.0208 3.91463 0.866255 0.945431 9.29369 1.35616 0.912581 6.49976 4.49251 3.38205 4.8456 4.40733 0.488171 0.372831 1.45976 3.2404 5.36824 1.81148 3.99764 10.1747 4.7546 2.02792 1.94104 5.58868 1.50245 3.53355 0.220746 3.58321 8.29523 2.41284 3.10097 7.6435 4.07847 0.664128 8.6275 0.0536684 3.4404 6.46987 6.4248 0.725522 1.71646 3.18403 2.26249 3.13569 2.74036 4.52468
0.00175571 6.18085 0.0385691 5.23351 6.19639 2.48652 10.3611 3.10853 4.91947 5.24832 3.14222 2.52233 2.98559 4.63559 4.81215 2.20431 1.55372 2.35505 7.45179 1.53356 0.0752336 8.21333 4.64065 2.56607 1.12741 4.71101 2.21801 4.08808 1.51584 4.64098 9.31116 1.60301 2.76742 6.32075 4.66848 0.302718 1.17969 4.67297 3.69084 4.04381 1.5059 1.25873 9.23734 1.5633 1.22061 6.40856 4.66254 3.658 4.90786 4.67812 0.776676 0.386243 1.50606 3.30414 5.57631 1.59233 4.09557 10.0295 4.62086 1.71334 1.8447 5.87246 1.5616 3.34153 0.270064 3.99647 8.50383 2.83965 3.4356 7.10066 3.40941 0.908067 8.52512 0.295155 3.36019 7.06763 5.89579 0.920067 1.84718 3.38023 1.51375 3.29862 2.81215 4.00029
0.31944 0.838851 0.378324 4.8852 6.01867 2.09158 -0.0669473 3.39017 4.66355 4.84019 2.99908 2.60964 2.67725 4.64509 0.171236 2.05044 1.30048 2.55569 7.38348 1.3082 -0.188952 8.61738 4.8473 2.34283 1.07406 4.99833 2.18016 4.10874 1.30729 4.8157 9.35283 1.69508 2.5874 6.41736 4.37003 0.177957 0.909506 5.32175 3.60948 4.17312 1.55185 1.11383 9.51392 1.77481 1.0544 6.07368 4.51683 3.77447 5.07001 4.11 1.01772 0.0390318 1.50326 3.09027 5.53002 1.40998 4.12461 10.571 5.05887 1.28242 1.92893 6.13675 1.37348 3.44068 -0.025657 4.42954 8.80748 2.9303 3.29848 7.0714 3.10321 0.756101 8.37783 0.528696 3.48449 7.04073 5.53338 0.817176 1.78134 3.53302 1.7235 3.19861 2.53308 4.14752
0.0800577 0.400357 5.05931 5.18588 6.10594 2.83204 -0.0465666 3.22393 5.00792 5.98556 2.76144 2.95686 3.00842 4.42785 4.8541 1.86957 1.86258 2.34768 7.59067 1.80797 0.224171 8.38278 5.05128 2.17664 0.833689 4.68661 2.02508 3.83705 0.926574 -0.0434647 9.41807 1.22531 2.70867 6.2957 4.74666 0.197851 1.12492 4.5764 3.57479 3.4997 1.01435 1.41551 9.22806 1.29418 1.16765 6.62553 4.80716 3.97621 4.79033 4.70493 0.756279 -0.0677598 1.91769 3.15231 5.11852 1.32362 4.36755 10.3643 4.27626 1.45953 0.758287 6.31967 1.84419 2.8371 0.0617552 4.17696 8.37608 2.04476 3.62988 6.75195 3.33468 0.991815 9.39716 -0.149956 3.48567 7.08556 5.92397 0.973137 2.0229 3.92073 1.15785 3.94396 3.93071 3.56422
10.38 6.19389 4.9067 5.23336 6.17605 2.4753 10.3729 3.11188 0.0253146 5.23344 3.13411 2.4494 2.95241 4.66009 4.8525 2.18409 1.51196 2.34013 7.4374 1.59867 0.0456932 8.18437 4.61583 2.52362 1.14012 4.7014 2.20285 4.06439 1.55366 4.68883 9.28936 1.57838 2.76881 6.3069 4.64215 0.302065 1.11926 4.67998 3.76825 4.03025 1.59281 1.26118 9.21098 1.52697 1.22326 6.34183 4.6526 3.64417 4.90962 4.69002 0.759505 0.370323 1.54365 3.25578 5.50133 1.59677 4.14397 10.0979 4.6194 1.61759 1.8295 5.85629 1.5777 3.35825 0.365418 4.00041 8.58153 2.77646 3.40521 7.0845 3.38921 0.963321 8.5624 0.320314 3.40179 7.09628 5.9297 0.966998 1.81826 3.3911 1.54399 3.30975 2.82209 4.00669
10.7506 0.447912 0.459531 4.78419 6.13607 2.61249 9.64098 4.07644 4.5397 5.40021 2.95845 2.22991 2.72293 4.26604 4.98608 1.96225 1.16193 2.32167 7.70185 1.14619 4.96289 8.32108 5.07955 2.29437 0.920227 4.66618 2.2422 4.13549 1.48188 -0.125583 9.33299 1.4591 2.73046 6.51295 4.76952 0.195901 0.7138 4.89794 3.80866 3.80664 1.68287 1.39077 9.05194 1.32296 1.15906 6.65089 5.17335 3.65837 5.0737 4.84208 0.873433 0.177626 1.35811 2.94692 5.74194 1.45818 4.66864 10.353 4.58387 1.79402 1.63682 5.96702 1.35547 3.27762 0.38689 4.20836 8.85811 2.73954 3.39062 7.36147 3.43141 0.42268 8.89717 0.122727 3.40037 7.2262 6.00621 1.06323 2.10898 3.69651 1.83356 3.89192 3.06967 4.37331
10.3621 6.20512 4.93049 5.19262 6.18264 2.4532 0.0333922 3.15358 4.90887 5.17272 3.08471 2.43306 2.99371 4.69348 4.84466 2.25491 1.58853 2.42253 7.4133 1.56797 0.0908888 8.17158 4.61727 2.5238 1.14261 4.6537 2.22865 4.08575 1.52517 4.64387 9.26707 1.57191 2.78041 6.37215 4.62176 0.29926 1.20133 4.67982 3.69029 4.07069 1.50522 1.22854 9.24849 1.54153 1.23969 6.35212 4.61581 3.68086 4.85618 4.66695 0.818291 0.341148 1.60125 3.3199 5.54943 1.50822 4.12206 10.0969 4.66148 1.69705 1.86247 5.8919 1.51431 3.37513 0.327349 3.97586 8.54599 2.82097 3.41687 7.09534 3.42442 0.895609 8.56836 0.319654 3.40993 7.09859 5.86646 0.899026 1.81525 3.43713 1.50389 3.38443 2.78851 4.02254
9.74101 5.90869 4.97351 5.20671 0.31866 2.68449 0.415524 2.71821 4.59923 5.36584 2.82101 1.98755 2.70746 4.75723 0.290453 2.4605 1.82531 2.91201 7.46628 1.43604 4.83207 8.32163 5.08753 2.42015 0.960181 4.70661 2.40075 3.89635 1.33053 4.70993 9.76253 1.58118 2.58826 6.15412 4.67737 4.85434 1.13993 4.86126 4.03461 3.89961 1.27338 1.29498 9.59329 0.939555 1.24598 6.47913 4.71452 3.31015 4.76706 4.67118 0.679159 0.499189 0.888622 3.25118 5.29541 1.24237 4.27261 10.0324 4.79488 1.62388 2.06673 5.75656 1.9432 3.04398 0.201385 4.20428 9.21102 2.95139 2.91493 7.05919 3.36678 0.285626 8.43405 0.797141 3.32725 7.02285 5.84094 0.687883 1.5718 3.40072 1.7376 3.14942 2.79255 4.17724
10.4067 6.24882 0.424888 4.61032 -0.0544035 2.2397 0.185687 2.73237 4.85605 4.64035 3.18116 2.73824 2.96533 4.91389 5.22965 1.94891 1.59538 2.20843 7.29142 1.96422 4.969 8.43526 4.2855 2.46507 1.2133 4.89913 2.08277 4.06387 1.44151 4.86906 9.268 1.03349 2.75222 6.51613 4.91786 0.304374 1.13913 5.10889 3.55946 4.18377 1.78099 1.14083 9.26684 1.22462 1.18391 6.69654 4.69705 3.83042 4.94445 4.71247 0.645841 0.0680375 1.2891 3.2019 5.46887 1.97599 4.28091 10.4028 4.5227 1.45381 1.72998 6.19201 1.46107 3.77156 0.0684846 4.40635 8.50364 2.46909 3.44036 7.67431 3.68917 0.964927 8.63278 -0.154667 3.51912 7.38355 6.06536 0.842358 2.12238 3.56302 1.3753 2.6956 2.31391 4.1282
0.0200694 6.17895 0.0435897 5.16881 0.0494944 2.4857 0.03969 3.10068 4.92789 5.179 3.13559 2.45204 3.03347 4.70084 4.89957 2.16898 1.59246 2.40098 7.41954 1.50637 0.109476 8.19813 4.67188 2.59783 1.11828 4.62741 2.22933 4.05516 1.60441 4.67039 9.3117 1.52398 2.75771 6.29631 4.64437 0.297708 1.19837 4.69343 3.74808 4.07417 1.55727 1.20822 9.28242 1.51504 1.22745 6.37995 4.69364 3.72384 4.87554 4.65851 0.822231 0.347615 1.59419 3.28837 5.49808 1.52789 4.17941 10.1128 4.66021 1.68297 1.9039 5.89725 1.50592 3.33272 0.337108 4.0005 8.56262 2.76183 3.43811 7.02475 3.4045 0.965144 8.58933 0.363161 3.43549 7.10378 5.90673 0.959097 1.90981 3.46394 1.57421 3.38187 2.76193 4.0201
9.69925 6.43829 5.07412 6.25825 6.50363 1.95422 -0.398454 2.24908 -0.0379317 4.31987 3.34043 2.98539 3.49843 5.59291 0.394218 1.44419 6.07319 4.01788 7.44027 2.60975 4.60058 8.04658 4.1023 2.01051 0.0488976 4.15866 2.21916 4.68181 2.22599 0.0291997 8.6288 1.70131 1.84534 6.8148 5.51967 4.93632 0.0353355 4.77312 3.65099 5.17043 1.78741 1.42298 8.54098 2.61468 0.485164 6.81773 4.35817 3.68833 5.48076 5.05237 0.0247765 0.766899 -0.0488559 5.26607 5.80341 2.01152 4.58582 -0.0396673 4.81079 0.61161 2.97429 5.57307 2.08976 3.49329 0.198325 5.13349 9.2256 2.79308 2.80622 7.91743 5.35126 0.215294 8.66697 0.242349 2.04654 6.89163 -0.0124239 4.15109 0.601041 2.87197 2.29654 3.56748 3.08873 5.39308