-32407.4513639127
-32411.1516798736
-32408.5351488301
-32408.6572054299
-32410.8724850957
-32408.1550889871
-32411.008895421
-32407.2108194843
-32411.2480776482
-32407.1727522744
-32406.3434223737
-32411.3022950782
-32406.7356871965
-32411.2210555334
-32407.932782163
-32411.2634566981
-32406.3107449198
-32405.4031039619
-32406.8761173214
-32406.107598982
-32405.8456778456
-32411.1302122797
-32405.2651250372
-32410.8539538807
-32399.9879093731
-32406.0373672525
-32403.3167450999
-32411.0290167324
-32398.2667194763
-32404.4670049451
-32411.0311681994
-32403.8986579326
-32411.1108786014
-32403.7832859419
-32410.764113366
-32404.4234738281
-32402.3914917188
-32410.9030501309
-32404.4203175813
-32411.3509170343
-32402.2976150777
-32403.8897418552
-32411.0187350524
-32394.1354943295
-32408.0964007289
-32408.5505775408
-32406.2965945993
-32405.4490684555
-32411.0904906185
-32402.017238646
-32411.0021924443
-32401.5037433607