0.0287487751359198 0.321276914526818 -0.674169896952742 -0.139867425447302 0.741540992480313 0.409087241179059 0.190709678626683 -0.190506304471762 -0.158135361074742 -0.00916854913336224 0.222659989763966 -0.518821867374208 -0.756548513874434 0.166863223354078 -0.104411674072098 0.12287424210823 0.41193242246649 0.595479011388869 -0.243528080674236 -0.165012030034947 -0.544718776357933 -0.206463333772487 0.904448832775848 0.261857465635464 -0.971236288187526 -3.68042608618307 -1.1267169866206 -3.01504138708052 -2.1057876792008 -0.904560161485179 2.01049467488652 2.11640812953876 7.24674127374253 -2.543179152009 1.39251055205086 0.672041024635742 -1.20051506539794 -0.756566254477076 -0.484476831990482 1.04945614789575 0.235712959545305 3.17684493913916 -0.616871092852526 -0.231344143312156 -3.67014656394805 0.40226225136568 0.0364240283251831 -1.47328120188674 1.75103810414189 -0.703388669503575 0.115486438103798 -2.12086410612402 -0.0991717685382244 -1.56407272111334 0.994483162512879 -0.453835468795934 0.486565338008718 -0.724722901176009 -0.083670338482152 0.287671070919828 0.870938119936647 2.59161151144113 -0.0854670244424418 2.29700026534584 1.35006706011631 -0.124527974806654 0.418268902931765 -1.56454734651155 -0.559359658630793 0.935016148237631 -3.19402324181014 0.996600979092001 0.597371085227131 0.464232233274503 -0.885491841857398 0.853862918449131 1.51738099762156 -0.522480545281324 0.280193278351272 -0.483251959077657 0.78889760290588 -0.254711602313435 1.23846195733829 -1.63643252552578
0.196185611308745 -0.460237769468112 0.285999083398397 -0.0932019271942104 0.0377900547285918 0.0761987165579931 -0.093889439824121 0.0798365685402685 0.0557458585936119 -0.0595032668110812 0.113423128883517 -0.332754055995246 0.604446757469142 0.350016433696142 0.27471657433866 0.588899561800458 0.0386020086871772 -0.00203039911683011 -0.353068588681059 -0.0130815090116752 -0.484934488116601 -0.277666656580842 -0.247322769868271 0.202993374739849 1.40155748806757 2.95747287439812 0.492999006123248 -1.47546818110515 1.3385865762155 1.69592345104807 -2.86017801019734 1.64720184265983 2.88098825131639 0.437421297589457 -0.991817701243514 -0.234472660021487 -0.429214083431127 -0.226977383960473 0.432370625150428 0.129187582657016 -0.0265268289325962 -0.435454918908247 0.455700803175142 -0.0213596855805721 -2.25953802610085 0.165451688448241 0.305370535932185 -0.866591158069071 -1.61643629524679 -0.0469238939872203 0.561149659726319 1.93360741725788 0.36610098964774 0.290229574352977 0.525535528478256 -0.165661490357742 -0.617204564760153 -1.27023923332227 -0.026839732025566 -0.898988069594595 -0.774477835390583 -1.42415875872287 0.190642315758681 -0.0654561388830031 -0.193093861355613 -0.620442610407533 0.945844857823997 -1.69259541683656 -0.626904560642216 0.240104144364393 0.00578343646118481 0.208576522368311 -0.365303690969598 -0.0391553098014508 -0.0916942330798516 0.69670329051968 1.04430494537509 0.451292649083961 0.587254056627897 -1.33725783078865 -0.777616893617426 0.8262032620493 -1.37147893906407 0.148800718763025
0.0966346052502822 -0.406702801339945 -0.132151034628725 0.0519480840773782 0.360770324219193 0.486913722306972 -0.479809767944807 0.393733906588517 1.16864317286653 -0.117861364866133 -1.27895809674519 1.76967910664518 0.769195249566297 0.518995416747877 0.376231130866318 0.177200852490508 -0.0860221253279979 -0.155218703156378 0.863185990802604 1.86081515351727 -0.718010268512694 1.14200167279222 -1.05161253100236 -0.489014055393636 -1.97846645936372 0.427194225831809 -2.708855040537 -1.3724019646218 -1.11412732938941 2.33821657037593 -0.152782069950072 3.5681447836232 -0.214875464746837 -1.49717933630617 3.18214629400682 -2.72012006610428 -0.894460359268221 0.681377980939108 2.52891827858693 -0.965659311203461 -1.19737883538311 -1.29807475308742 -0.87122479779093 0.105737848397108 1.32545853026066 -1.51582162436037 0.353914995404195 0.96946068526226 2.16672793482585 -0.245857756044325 -1.29033727923382 -1.18456035008886 -0.453783018318559 -0.349488586490006 1.79459411183921 -0.257046934107556 -1.11576332148519 0.455051085742164 0.769064380483041 1.08237987818668 0.429834233193036 -0.220334428156808 0.422840064879103 1.58135283941687 2.49951387248382 0.743723086605239 1.92383800162635 -2.86510398419751 -0.6487710103939 -0.029902685638178 -2.62215131611331 1.12680491830326 0.00539288609288483 0.129719800736266 0.0136026713530472 -0.916535325378491 -1.19779792498174 0.322568378977095 1.38738274655687 -1.77429937663751 -1.47890960090745 -0.867674877491313 -0.079953296563447 -1.35585126790804
-0.106620250545894 -0.0226300669958257 0.381038577072028 0.432064921142588 -0.861302401600388 -1.49935654533762 0.0815468654789989 0.0546328286104844 -0.633110429134419 -0.69114353991789 -0.70031028927997 -0.620774282543877 -0.779464230283809 -1.18580630603671 0.544439811809148 -1.40675111376846 0.382861745381188 -1.27423575401012 0.3151723474468 0.412959577648425 -0.0963792948383521 1.32148617793003 -0.0286091643064353 -0.429342124302367 2.41607261917491 3.31054969060504 1.40319759392628 -0.352175645014761 0.685199923812564 2.34474176971568 -0.520802387115495 -2.33552874052062 -2.51826646080661 1.57647777323298 1.15613476245324 -0.662487324447927 -0.129085509914281 -0.0387804431543268 -0.185268198709171 -0.183981619352375 -0.181862260112153 0.396907674690094 0.498232998122907 -1.03956074827445 1.83116495007901 -0.729325173455515 0.541248045994746 1.67325173220256 2.20614909655675 -1.54933413697086 0.506399845982473 0.368436578552044 -0.861283889667196 -1.73158643323094 0.260901272864096 0.508015269263598 -0.106436930985264 -1.84768402224024 0.00583562982837697 -1.08431617497645 -0.413345500033427 -1.1917074989618 -0.224693731313178 0.699482137379842 2.27711227845398 -0.440955277057715 -2.26942082732317 1.95416620461775 1.0398003749652 -1.69932964675527 0.223990534962091 0.437917263132874 1.21279644751945 1.45108359421908 0.696748799022109 -1.25679519895226 -1.66628224646622 0.458842689614 0.372663212853876 -0.890793453835242 -0.724754525728544 0.624441959307405 -0.409998182558182 0.51751189099074
0.0927766669511768 -0.295152720141132 0.0361003266045184 0.0200458525443556 -0.149014634435458 -0.213618967281477 -0.0870073715500687 0.253061469157577 0.0851906309954882 0.0232887832852164 -0.0435097278643398 0.126066007922632 -0.292855440654128 0.36965990880377 -0.206844885284374 0.0809300581494718 -0.324111554296737 0.0157407996366434 -0.268452341834868 -0.60879783309965 -0.600764168314988 -0.00824860889782746 0.137802830676105 -0.125805555307037 -2.77689307987983 3.24524216140793 -1.21919566286943 0.8063219600222 -1.71018561002106 -0.800534409798084 -3.27855824183844 -0.683388839682014 3.20580300196421 3.7067364283414 0.331141203815953 -3.3581911791136 0.420339154126994 0.0786281506791692 2.28012098181793 0.20169291143316 -0.127196007177851 0.111317396483006 0.0356856078789964 0.34298472729546 -1.77838588588949 0.0763283000903322 -0.507774871242294 2.34535574883319 -3.09565365704354 -0.453666033185197 1.19946399896896 1.84405799732639 -0.253888849727155 0.35428112030509 0.0132717705472525 0.257979729852251 0.864850007908356 0.343236695275008 -0.43198418854506 0.114407603775038 0.350094595191838 -0.394440959592352 0.155487126187652 0.210192202759619 0.161441026700307 0.47470561658767 0.290245515184336 -1.22076094966483 -0.723211093298719 -0.929829207401499 1.27669835534494 -0.471170094458313 1.03273395868979 1.88828840503427 -0.595240156028665 0.362902796078759 -0.142195815266476 0.422675514361847 1.60654809471061 -2.45692537040593 -1.31252743070616 -0.779931399486706 1.46006573846962 -0.386076136891713
-0.0016352207652323 -0.480041167109698 -0.534700478069053 -0.1563792985234 0.640541684759813 1.00254279542605 -0.00713866423689856 -0.272199465645008 -0.239644688466992 0.197820574963794 1.22027295453709 0.151726889758168 0.713221848460542 0.412870617525033 -0.136494396953736 -0.532597830990741 0.4272831859552 0.0102077884939077 -1.53585385006502 -0.375465970961077 -1.2465347028708 -1.32850142927898 0.356811084507902 0.376879048528014 -0.360473619067766 2.05727124473876 1.5827263220156 2.88293766072551 -1.74364644348471 -0.742426994171664 -1.49834044589356 -1.66335196170814 0.872355568376699 -2.24410473024333 -3.04192662760852 -1.43716879110361 -1.06652389318796 0.213048439784929 1.18764747205869 -0.926621243645555 0.279763904345307 -1.54914567520656 0.822839232412146 1.37227083842837 -0.408757625924181 0.590474875893002 1.16941218942452 0.0866810987275718 3.08650439117392 -0.201326529422082 -0.473584616188863 3.36504702214897 0.00780869337435066 0.0652350241254403 -1.58509764923537 -1.17060338090334 1.76002641903682 0.18458068607926 0.0189438782991063 -0.179918507127066 0.0477438183614853 -0.356035640195333 -1.1473701334177 0.492291953119413 2.7072362748235 1.40611579450574 -1.06306987498668 0.602958089508341 -0.0606322376255679 -1.11568284599785 1.46966211894784 0.928785340057656 -0.175353258713942 -0.768702626455261 0.822566438507757 0.339536622628395 0.898390802638992 -0.00269528605061796 1.6149075180974 -1.88233116208924 -1.92062052479363 -0.74053157790102 -1.89891502601664 -0.173801341648071
0.278486580955107 -0.182524061723742 -0.0101669079747769 -0.0270371926462733 -0.281922087223194 -0.212418005615691 -0.140844187033327 -0.227228323499288 -0.0328085449288471 0.0520645549903735 0.358808573521281 -0.0740479898754195 0.266390575275686 0.0838685704334089 0.0895393926343466 0.3066889969517 -0.470251439773694 0.135428932354502 0.160861757457529 0.257954275944113 -0.00809228590643419 -0.205957340931924 -0.194085792442448 0.0938051076840273 -0.791494415756328 1.62175513360691 1.57709535189306 -0.561590089470163 -1.57498164907686 1.47004444179028 2.13483341659833 2.66097546799878 3.54229004070952 -0.930526747328555 1.98659139826342 3.532051913214 -0.100742968867837 0.528645790364579 -1.21346519110599 -0.132768613288801 0.37925886038383 -1.70725403971207 -0.385078292270664 -0.196790848680028 -2.50848856053904 0.345880559288983 -0.0784720847979591 -4.56424516918849 -0.616957738984269 -0.434193279239223 0.172395977386631 -1.85446350355119 -0.546701867201052 -0.397576161166447 0.247861415702101 0.141337838585095 0.192419975565413 0.515098397700923 0.209053461758171 0.1795611239724 -0.463715956026612 -0.156200864056251 0.39340120601144 0.339581874020641 -0.312558822434444 0.300834083859582 0.279887574343432 -0.718211585786149 -0.760886476885597 0.737264735913121 -1.8028265227955 0.827943383769282 -0.436197196007182 -1.23929062345878 -0.0611019779302973 0.217888281873723 0.0787731608225011 0.193891674254122 0.971651778243598 -1.5367745616311 -1.15284375210812 -0.207066000041937 1.64599162502744 0.00269245783860262
-0.301401783144115 0.530885477170544 0.190275933747603 -0.0288125384613565 -0.490027069515493 -0.729539089127948 -0.140616901631367 -0.0466806677539011 -0.0954246447280836 0.139633969400945 0.19179391226929 -0.680148994263352 0.12055176582327 0.934951613581645 0.201504192558682 -0.27210999130125 0.0769890732611887 -0.255953187388169 1.25997616613897 -0.223583015321699 -0.159689592132263 0.808020429892502 -0.14963504130755 0.723319850906218 0.25186205015289 -0.626459502915075 0.965207568611557 -3.95674471407333 0.8655354636568 2.86750976418184 -4.44647070756428 1.09528989470615 1.43620154259437 -1.97905627012401 1.34363313489159 4.20903690956273 -1.20114241424497 0.0208035562542832 -0.0232522736392002 0.118469430449431 -0.125173835586884 -1.67914366916106 -0.966044462257914 -0.454922016430191 -2.76054524310062 0.050408508300301 -0.519438931813918 0.642359967975493 2.5970367934171 0.433343015863339 -1.60638200153226 2.83353882411468 0.052835371319645 2.37259323031219 -0.437653210974715 0.836583057255776 -0.336300890972664 2.2540572083253 -0.229765229677047 -0.0989118301429964 -0.472895818008036 0.21887404231616 0.290339874621575 1.37623110658039 1.48695714964201 0.000602409159267182 1.7939724194162 -1.51562622062113 0.686760582624665 -1.53301226832015 -0.122961916680705 -3.13819716483937 0.836956381241801 2.59323876179068 -0.286190887595073 -0.735462136418617 -2.35495804284563 -0.92269285715625 0.592850316875703 -1.290723458729 -1.27718326515047 1.43785784639462 -2.5317583176707 -0.536156235926403
0.168515413391402 -0.20956562524313 -0.19740328513644 0.0754376704156837 -0.291694845287106 0.236274745295624 -0.0477918979657461 0.0172153265373678 0.096951107885817 0.10915612828292 0.138364359316241 -0.0660611191441025 0.291986408234869 0.170028249709426 0.341865783778118 -0.766229740713122 0.054054330698256 0.325079059916166 -0.29536380760155 -0.0780095435783596 0.00385099632415871 0.260908986169592 -0.447613659472372 -0.383402448096484 -1.46811817229765 1.68706112014291 -3.20205356416242 -0.364243882794396 1.11240032028877 -1.78021908149579 0.939274407091998 1.82299501689724 1.19330286764864 0.105237254870393 0.189665554172656 2.17882522605619 0.0506992999175145 0.156804044546067 1.37723949271895 -0.0460337785329382 0.0770749480623817 -0.671253753254745 -0.327987233198484 0.215113548776492 -0.0252793303236486 0.0487493762880299 0.502230547251497 -1.93184929782507 0.171911324691275 0.220639875054465 -0.153686069354248 -0.55770592593237 -0.2424687867194 -0.550096235839825 -0.317665802003596 -0.120029832151349 0.229957033873724 0.0194799530311046 -0.235064270553059 0.848027545730937 0.10194932984747 -0.0685784849479373 0.905836970655013 0.428288486771562 0.0480816611422267 0.70743147002441 0.408163444290776 -1.5119891399694 -0.465413911676549 0.0199376091572231 -0.247620760570614 0.326904285106792 -0.223913916127494 0.211100830147093 0.258828707677219 -0.373894770631465 -0.316913240497333 -0.602687352485418 0.883418505339971 -1.65837790810371 -0.0682146740386914 0.705835330007026 -1.19490312142895 1.06724508725187
-0.402155550639647 -0.125845921605801 0.617106091559983 -0.0740405336801063 -0.514170229939525 -1.00515966287078 -0.180209041634096 0.272030287144455 -0.182511720434948 -0.0397245517470835 -0.517323172116262 0.280395109845094 0.51668039665823 0.404537933597295 -0.260633364053188 0.0509728651524527 0.0938950962481517 0.649126593777283 0.494490502296064 1.24286265523415 -0.647807618537402 0.557772517469822 0.40194292051813 -0.0099864166261616 -3.03716906077835 -2.01242557236244 1.98150190218673 2.7633850250742 0.632298732286017 -5.47113603448449 0.393698425383234 0.530910673968499 -0.501440190548302 -2.2429626468095 0.406923401877142 1.24784519347463 1.73587708796839 0.0678014979742687 -0.470221100772075 0.0263219121165758 -0.647388014718399 2.85410712455133 -0.919915295847004 0.0885808858713299 2.413390959964 -0.211486238311729 -0.0696292942667273 0.509003086587501 3.75529528598367 0.428370504920006 -1.15784557361233 0.354976860460863 0.76014317134593 -0.217553781525363 -2.37288350770903 0.499651217893508 2.51755040894637 0.716021778355727 -0.659813635652699 -0.758024583436258 1.2708820087803 -0.261936912682076 -0.947671882785906 -0.107371012280875 2.31898370023089 1.34514725676053 0.343177045712503 -1.12711936405733 -2.54688976617313 -0.0953012318401415 0.582731488505187 0.674086079033015 -0.234435379044921 -0.138543308003757 0.48943057389044 -2.21870378680302 -2.98380584225257 -0.97773911894134 -1.29495857766688 2.34912986921257 -0.589510969816138 0.451764446270157 -2.02279276916994 0.165441146930729
-0.154158894981176 0.598699830653974 1.22474872860646 0.423424219215362 -1.0482485013652 0.655894762240172 0.815659944766299 -0.42633239249768 0.0745066744422708 0.692113873749335 -0.0718949492011969 0.459431986153924 2.01923462134446 0.34131608220641 0.997706809989999 0.395934512646634 -0.805542659056882 -1.21429411433667 -0.224466445911218 -0.133477723174102 1.28750932432866 -2.37597885720473 -0.0368783420189198 0.223530564844324 1.0114724891992 -3.19620919258782 0.47285210927689 0.718171733707751 -5.49525734054295 3.3740597625113 -3.38089683650329 0.606784403254912 -1.6110709199435 -1.23011847478285 -1.03990347614867 -1.76408670305012 -2.71255408474288 -1.93445330976065 -1.45444299587294 -0.996958105136484 0.896510041648792 -2.79000004279964 -0.439370964108759 -0.389811433633426 0.242813571475088 0.953828900343299 -0.397933287210929 2.34766434116826 1.3891604063636 1.76356245538655 -1.75186831292349 2.58461631468646 -0.10142431085335 1.20399299484625 -1.09968853572055 0.559669990621931 1.09090539475183 0.702790374107239 -1.45312350641269 0.0888251405453819 1.57593887028897 4.44025172645273 -2.07776832565465 2.52938647623056 2.54794057549192 0.504663838025422 -0.145678629808274 0.894849881195788 0.266287731202401 0.369610543648593 1.93908720659269 -0.397565619648935 0.328766791273985 -0.0876604314154287 -0.993958400628942 -0.919854360733582 -1.73138511595749 -1.56676183651956 -2.24819226793604 0.56498882898205 1.45195365507907 -0.582193614001906 3.19587417801909 -0.345529860999081
0.151482377973932 0.150985641099966 -0.419937805130999 -0.129571705270736 0.221058193322551 0.131512372933625 0.0570154686783158 -0.258144794589873 -0.253777263907641 0.0595400335672806 -0.058314389323906 -0.20564649472042 0.0867083524069924 -0.246902651828901 0.126369912159189 -0.396827456312932 0.367638765653535 0.385752949391414 -0.641255422628412 0.0686427624937404 -0.562699262800542 -0.0941912871792126 -0.228269105520933 0.277837120632312 0.472375426997214 -2.16213903227587 1.29154801108656 1.41771480620101 0.213197049470825 1.47717307873003 1.72455858348301 -0.233637823256596 3.15597479134742 -1.11213806790189 -2.21657902824895 1.24250552918967 0.0425939013917365 0.346658574703385 -0.765830705708776 0.150518729007251 -0.0620805392876046 -0.244656280158173 0.0900091329390761 -0.107352757457867 -1.75331172949204 0.264812175860943 0.569366644071612 -1.06354244350342 -0.134711594943339 0.000866718427609762 -0.364267794041434 -0.0897129420080151 0.229944949695113 -0.66423387392249 -0.485099809964407 -0.0252299651684718 -0.0894923414708187 -0.0570897735212643 -0.0181404089765668 -0.0458301472678338 0.270044625199503 -0.27390821992264 -0.463360372643229 -0.377447519143097 -0.862238025557099 -0.666538095384442 -0.436737384502112 0.519737693846811 0.0517220842263343 0.0106407620424377 1.26819340759444 0.00678770883681332 -0.737306644872984 -0.365086432864783 -0.40439986542891 0.88692214580661 0.503964498327083 0.103694079550751 -0.793268733130678 2.02680111692623 0.281544906584421 -0.199578180176236 0.630967415757341 -0.56489832619756
0.00792876382991096 -0.611179444726748 -0.0292429409080544 -0.381247350540796 0.411456511517364 -0.0246568665700908 0.271139914579989 0.296183731975815 -0.356152368218511 0.27185545221987 0.484919832836158 -0.140641841319138 -1.66825865244457 -0.256467150644411 -0.308688028626178 -0.480101588002753 -0.485143261585369 -0.669332111745414 0.361162160138409 0.00517717064916943 0.306528045977009 -0.671147566749078 -0.0875125930600815 1.13399834700918 0.705979825929992 1.61210193177819 6.31999173211556 -2.76456644636606 -2.76762245800373 -0.043025075168984 1.59002233768462 0.61794298520634 1.27486053175533 -1.63826649246264 1.03073235591348 2.68420125928911 -1.57705318582301 -0.871725391317644 -1.58359509732467 -0.925529810917818 -0.56957618887093 -2.4227672541254 -0.21190249969835 -0.864834838407546 -0.178408241910875 -0.312150788573686 0.345164250318553 -0.495085969480385 2.62281028951288 0.17665835000393 -0.466319453741823 -1.58907205844747 1.15667829338055 -1.12022238339265 0.475722487362276 0.323851358791326 -0.903968550953607 1.01060962742434 0.438946475196274 -0.813267277401323 0.618035544872296 3.82742754788397 -1.58203880938568 1.07394306463474 3.80651240581018 0.712407323400124 0.366733737808627 -2.29334261587946 0.923087778397664 0.984829446463795 -2.76956055456479 0.276928750355022 0.540656435463174 1.13606037067855 -0.616815814163135 -2.07356431704894 1.18126522598081 -2.47199871200695 0.703637037940558 -4.79910220893388 -1.88012824203947 2.68779463120969 -0.475011834815876 2.47435127018335
-0.154563843519736 -0.0239958362890512 0.0628007049107831 0.100986195101156 -0.0850551339289352 0.0641608177799779 0.204521380558682 0.365815597344374 0.189485577044407 -0.166986122021654 0.0456347435285922 0.218327683176833 -0.297044793979394 -0.51201616082457 -0.380452622964486 -0.201051421526044 0.606823741112943 0.315665484778202 -0.239716422208109 -0.148543351469629 -0.428078427751877 0.0387475330508756 0.595985004229432 -0.353054961841349 -1.5545560447919 -0.132808979587566 0.407555378707479 0.991516625218972 1.86092931043862 -3.72715431932087 -0.889799980087309 0.587911230256189 3.70663204160702 -0.598020802660109 1.13706181484216 1.93229718376423 0.314699778930056 0.342636857217573 0.397461747134917 -0.283893350997885 -0.313840259587576 2.52127644972148 0.158082139266817 -0.149494659147516 -2.80775015851809 0.133612706020288 0.0704445906576945 -0.804622204600981 0.675784291793134 -0.14736218728795 -0.299548790053702 -0.187611243808787 0.0916793206892253 -0.195519438824041 0.668110838375154 0.163015312352118 0.333857572901595 0.459279776925462 0.207336222844494 -0.252723883487018 0.172350983104568 0.631467752173873 -0.170629373317777 -1.11169712393768 -1.61485763872186 0.0544006581150434 0.849399228558376 -1.30723507469492 -0.25390684743998 0.293423139938661 -0.736881127519767 -0.0402662829031125 -0.0681974476564162 -0.173332629784074 -0.0469431772509612 -0.0526998742530919 -0.123989586083006 -0.507747360452691 0.551430123470333 -1.17841824492209 -0.562221037859767 0.193893988245771 -0.0589108849489593 0.626698101165096
-0.0841495918636603 -0.21567919117956 0.616610640236932 0.034109522455903 0.0865620567127444 0.0800579404080146 0.277963618842452 0.0681072019821085 -0.208616631556893 -0.0554828348761854 -0.349228648094778 -0.511169496991251 -0.0510659390387757 0.0445677362682598 -0.199067559352376 0.597250757661387 0.238469437819527 -1.05318553110325 -0.410770027328186 -0.206527354208107 -0.240724808346668 0.383811253287793 0.101992781468433 0.355149895614165 -0.895867523300944 2.30613487593502 0.689865702307323 -1.30569344203637 -0.860492761633451 2.75519220908613 -0.307937266891197 0.514311126319926 3.2970740316825 -0.689641502227562 -1.51544521505215 1.13784728645187 -0.152201515156378 -0.00993293770805337 -1.07079269355984 -0.24315064292528 0.423565886926312 -2.03278355666922 -0.753596888971153 0.0558178494449114 -1.45032229096659 -0.876200908276827 0.300997605936105 -1.60083716332109 0.11808916448846 0.194229517034864 0.357970908544374 0.761018117299402 -1.43235388870259 -0.104970117390036 -1.61444266288616 0.334328084536874 -1.44378937832134 -0.135453100711724 -0.462782903171734 0.136691857574443 -0.687010750832931 -1.30994758712781 1.11316290909218 1.75449649321629 2.47796263981675 1.02871969739929 0.330004776806153 -1.35720623857357 -0.807011786643759 -0.301639352953404 1.33718841103919 -0.19544487687091 1.56602007364099 1.73660496689707 -1.15762471596495 1.23922968834536 1.23135131811136 1.22266459346134 0.402439400281914 -1.24625959497476 -0.221687599051056 1.09987134106082 -2.48633466160252 -0.492979208639141
0.00099090264610146 -0.284378003693241 0.118783104872951 0.109432007509507 -0.159013392350413 -0.353784897651489 0.0221397578764392 0.0358187909539005 0.0833335241421434 -0.2234742577142 -0.243984451249438 -0.214007717878495 0.177096208645941 -0.17946187944168 0.163181662640657 0.187857812474488 0.325135881266656 0.108778433423781 -0.483331663234453 -0.133785484063407 -0.17526584125165 0.31578452679303 0.456491674098704 -0.410411358622604 -1.87508271180411 -2.48709133687172 0.443129400766961 2.39340321432105 1.23406948696828 -0.179963758519311 0.613704009615713 -0.0754543825775925 3.92925397906387 -1.30005861526108 0.965661882305293 -1.37023324022641 0.141764384379045 0.38817518442746 -0.492823656978297 -0.2581949310756 -0.202130770075171 0.356510779813909 -0.425961382503304 0.0767214215604644 -2.99953532904115 -0.134817524338823 0.306730391691197 0.0606872592047754 -0.376861822145738 0.267969488910794 0.0701699969820234 -0.32555317109401 -0.0423661017694101 -0.0744609088296589 -1.65796961713277 0.0305102370011095 0.650662312901612 0.83042012616417 0.147012774548964 0.324882884846375 0.899993370410957 1.12978945330999 -0.565772500820482 -0.492081894099729 -0.551435265673997 -0.481923984981364 0.218020693618077 -1.44632859849075 -0.469378293591504 1.29646961421362 -2.14944061743719 1.10080233703423 0.127825412906356 1.04228483066559 -0.200189331081732 0.48017255041332 1.08469772648834 0.472456416704926 -0.355534275338068 1.11393192565017 0.0016943561073712 0.0938477879744406 -0.650130609042728 0.103424885188928
-0.298008700056258 -0.332230322552042 -0.0704944700332377 -0.366227230747698 0.428240407167301 0.942190550789996 0.739979048117296 1.04649758101753 -1.11461918116989 0.207922176952035 0.756240495874945 0.108023300815685 0.113155220072609 1.26708603403535 0.249365510273895 0.808426149761612 0.695904192070255 0.10099853638995 1.25717880734562 -0.990992891775768 0.371665111122645 0.0666195624620403 0.873835751701454 0.217707790525108 -0.852697437988628 1.94249237385916 1.28455152878098 -4.3379373001451 -1.20913159896794 -1.54156503856472 -0.762381058380612 -4.22391459031433 -1.16968652599001 1.45922190284831 3.98395828430529 -1.60954188568394 0.547551873466753 1.28484206328801 -0.48620615508277 0.751451304492244 0.595065835324447 0.204868736416202 -0.51007703582278 0.446886294764064 1.17274022363602 0.669438041140897 -0.949770416101287 3.05918823397886 -2.08054768673518 -0.341264403059584 -0.177319637395152 0.270895145685571 0.479301718222779 0.28405378775221 3.49894692024391 0.226378060123404 -0.402542758575565 -0.0751815886732039 0.449205171506458 0.124526689255738 -1.22972046821924 -3.43344141620573 0.296815194585785 -0.107911972106354 1.23483901774664 0.468274262464789 -0.133170990725529 1.03133759328476 -0.391284417873051 0.152975673918031 -1.78465423215621 -2.06246204222764 -0.68227683813962 -0.957662927395365 0.885922501414279 -0.31729633467032 -0.173792599901842 -0.279556930647821 1.21672509111894 0.0919906811210958 -0.820376373967152 -0.00705227521533911 -2.4372466712032 0.354763459008797
1.40451888315781 0.093731059951262 1.13645554903014 -0.478052162732365 -0.0509252997685584 0.0929556156386928 -1.27056884857715 -1.20302446078609 -1.66877981478595 0.0202355998595665 0.0904835012271033 0.384615236830698 0.940117728492936 -0.0974380745728217 0.708628317927265 2.29308190615368 -0.312738799562693 -1.87027346582712 -0.0256613960559025 0.206615800111132 -0.186292268568907 -1.25551324757876 -1.70320301166537 0.283242348013991 2.0223937341656 -0.387777177863847 -5.4849168831945 3.21657360464917 -0.222132142557831 0.850971971549088 -4.90258288703256 2.30336322815999 -5.62545022401633 -0.113847874906184 -3.44347539821578 -1.49422102653813 -0.377175753679441 0.497435956554948 2.74674639667778 0.172396234496814 0.68657057819927 -2.41653850282689 -1.94571782110756 0.318565687644841 4.01884633639596 1.03315639072081 0.0174094447256933 0.228677396491874 -2.7174839153958 -0.651713122220402 1.12001463836461 1.40364162321269 -0.495817705061808 3.65808346837208 -2.40696809047717 -0.554315671056528 2.67127992992158 0.717749815897099 0.0398117120991926 1.16070155352746 -0.858872453258845 0.310338933112586 1.28867043391605 -0.575305889303823 1.71512315397947 -1.22567663925767 2.05750264390365 1.24871294034297 -0.854917584420669 -0.525994727265474 2.07420889227826 -1.1744345797434 0.599885365708767 -1.6665750949649 -1.0054872212442 0.829974554216662 1.50921980618602 0.792765311391948 1.49561096418858 -0.674385869506641 1.36211061531835 -0.753093981452789 0.351931390340709 0.502222576835818
1.03574137650283 -0.178057800731156 0.851270476471798 0.263270286092217 -0.38488186009069 -0.790785048760844 -0.102689035844573 -0.40221340043087 0.48814528008456 0.172033966248667 0.0751255386532636 0.437243634452857 -0.560543393914304 0.151283631802309 0.603296446509449 -0.657856512938084 -0.12736235746639 -0.223533650166523 -0.168830373365838 -0.320092922133124 -0.396254614824734 0.310091850226519 -0.296978973772492 0.0530978808167051 -0.0881018896000048 1.80228530585983 -2.48304082304538 -1.78013346380478 2.79934342685759 2.64632892930189 3.35728332305668 2.53323053057977 2.98356210179888 0.372112225731252 -0.823294317436432 2.52619805284854 -0.109754937899623 1.18832470028127 3.83371003521078 0.107138070454884 -1.42035095690949 0.802826547081424 0.230393092744452 -1.16940216212738 -0.192915683998647 -0.774435669320537 1.12544634809516 -0.180898096925106 2.3682755790055 1.16840894548962 -1.89417957066223 -2.65441838699631 0.018502163004347 -0.0136384096685137 1.22429595757382 -0.615741093597307 -1.054966019122 -2.45247247914287 -0.657675507369103 -0.4194369544941 1.87144331716073 -1.6025906547706 0.254719058508748 0.711682529793648 -0.928192443975168 -1.36613207569398 0.677083212438725 0.534599176656868 -1.35755025199871 -1.76475030443299 2.55306221034151 -0.381147334679527 -1.22246559017953 -2.23514726857038 -2.23259904954456 -1.50382152077929 -3.04938950778645 0.130133748131238 1.60728214428368 0.027715192199405 -1.32445837164796 -0.46785337309487 0.234044057346072 -1.29899597887387