8.826506 0.000000 0.000000 0.000000 9.011652 0.000000 0.000000 0.000000 5.232336
9.035574 0.000000 0.000000 0.000000 8.673657 0.000000 0.000000 0.000000 5.171349
8.412788 0.000000 0.000000 0.000000 9.193335 0.000000 0.000000 0.000000 5.290352
8.361064 0.000000 0.000000 0.000000 8.849419 0.000000 0.000000 0.000000 5.258701
8.725987 0.000000 0.000000 0.000000 9.253348 0.000000 0.000000 0.000000 5.124121
8.871718 0.000000 0.000000 0.000000 8.193575 0.000000 0.000000 0.000000 5.094857
9.261643 0.000000 0.000000 0.000000 8.225529 0.000000 0.000000 0.000000 5.046420
9.844794 0.000000 0.000000 0.000000 5.675237 0.000000 0.000000 0.000000 4.665629
9.773174 0.000000 0.000000 0.000000 5.896330 0.000000 0.000000 0.000000 4.729489
9.929474 0.000000 0.000000 0.000000 5.915477 0.000000 0.000000 0.000000 4.671956
9.928143 0.000000 0.000000 0.000000 5.767169 0.000000 0.000000 0.000000 4.603015
9.594156 0.000000 0.000000 0.000000 5.806999 0.000000 0.000000 0.000000 4.738358
10.237875 0.000000 0.000000 0.000000 5.682370 0.000000 0.000000 0.000000 4.670800
9.593373 0.000000 0.000000 0.000000 5.712040 0.000000 0.000000 0.000000 4.651940
9.659541 0.000000 0.000000 0.000000 5.770084 0.000000 0.000000 0.000000 4.667879
9.626517 0.000000 0.000000 0.000000 5.956220 0.000000 0.000000 0.000000 4.787106