5.46955 7.6312 1.47903 3.47637 4.66806 0.130171 2.29846 0.482918 2.93201 6.7045 1.46191 0.473769 8.21839 5.87414 3.00895 2.51657 6.22079 2.54553 3.43046 1.57517 0.33965 8.09929 0.0285172 3.09668 6.79604 4.56211 0.15609 2.82863 5.30954 3.78394 2.28125 0.801159 1.17939 7.3505 0.254051 1.7543 7.85199 4.66042 4.20685 5.32809 4.50915 4.88757 9.34652 0.991061 3.1711 4.76538 1.04082 0.712831 1.12528 6.04815 2.12901 2.80776 -1.42429 3.1172 3.28782 1.60005 4.07379 7.14254 0.520605 4.21328 7.25148 3.16112 0.675869 8.34694 -1.35111 3.6661 6.95558 5.59316 1.37432 3.43515 5.90316 1.41513 3.10705 3.02387 1.01632
4.94847 -0.860525 1.47521 4.27118 4.60572 4.95455 2.04394 0.478673 2.3322 6.32706 1.48092 4.79997 8.40359 5.79309 3.13478 2.69736 5.89559 2.31124 3.42516 1.45206 4.72778 7.78624 0.318294 2.41062 6.84598 4.66698 0.510436 3.68814 5.6501 3.50945 3.4666 1.30772 1.11798 6.74226 0.666334 1.33953 7.97813 4.93229 4.72147 5.76079 5.7073 0.342362 9.22196 0.534917 1.96119 4.64426 0.572874 4.27393 1.21134 5.72218 2.71115 2.85911 7.45856 2.04855 2.07439 0.944922 4.27195 7.5227 1.30495 3.54174 6.12774 3.38079 0.106301 7.587 -1.06112 3.03312 7.30756 4.6695 1.98512 2.99697 4.94913 1.18495 3.72657 2.96071 4.18739
5.54986 -1.31635 0.728591 3.41932 4.31876 -0.0917811 2.62334 -0.116866 1.89023 7.03633 1.8897 4.62911 7.65092 6.3565 2.91377 2.4185 6.07282 2.45022 3.96574 1.22936 4.5528 8.00399 0.160285 2.05374 6.41276 4.86235 0.258234 3.27415 5.32975 3.56513 3.93357 0.267518 0.554543 7.24795 0.928353 0.800941 6.42842 6.11495 4.59442 5.023 4.41232 0.656651 9.32971 -0.393343 1.45582 5.37695 1.31374 4.11785 1.05541 6.3335 3.21905 3.21764 7.42575 2.38267 3.11143 0.987251 3.28147 8.29585 1.28647 3.16195 7.03658 3.74624 4.70129 7.02008 -0.986696 2.50004 7.19826 5.15603 1.49886 2.32712 5.25364 1.18546 3.18814 2.50991 5.14427
8.95249 -1.20804 -0.0526211 3.88532 4.90985 0.00501734 2.21207 0.656735 2.3386 6.19232 1.42998 4.97296 7.92782 5.66777 2.2713 2.7585 6.40644 2.51735 3.20878 1.53243 4.94939 7.18269 -0.106264 2.31889 6.93481 4.37143 4.72066 2.93357 5.44095 3.76024 2.11534 0.602873 0.267129 6.74387 -0.233683 0.842775 7.78918 4.18751 3.47921 5.5745 5.29345 4.48341 8.61573 0.599765 2.4169 4.51261 0.932673 0.434107 1.43791 6.29522 1.67478 2.98699 -0.933277 3.10935 3.39944 1.57542 3.45285 6.26542 0.760864 3.26628 6.74867 3.08784 0.309432 7.43011 7.23345 3.08984 7.80791 5.36678 0.466569 3.88388 5.97755 1.56227 3.10478 3.06848 0.0942212
5.21449 7.21536 0.699803 3.7423 4.45291 4.51441 2.46801 -0.057243 2.70503 6.62573 1.75128 0.517749 8.09359 6.40605 2.41901 2.52306 5.95463 2.01681 3.57309 1.27008 0.326116 7.8244 0.233485 2.86612 6.76237 4.94698 4.9723 2.45802 5.23819 3.33198 2.65961 1.53767 1.46433 7.53679 1.49631 1.93698 7.83381 5.71256 4.2005 5.39847 5.54471 4.41333 9.31045 -0.153439 2.93963 5.00714 0.758976 0.959203 1.01396 6.11611 1.52383 3.20737 7.47889 2.18926 3.03882 0.217612 4.47595 7.21806 0.681341 4.21693 6.96857 3.42068 4.88551 7.17843 -1.07858 2.29613 6.67668 5.47987 1.28137 3.51084 5.22586 1.10689 4.06067 2.48075 4.55413
5.06588 -0.888034 2.01385 3.9449 4.73974 4.52035 1.94047 0.5183 1.81488 6.46202 1.60016 0.928806 8.24156 5.58393 3.50109 2.34219 5.43996 1.90903 3.72226 1.44115 4.47331 8.20827 0.622878 3.39852 6.77322 4.83305 0.929849 3.59849 5.6647 2.81027 2.52558 1.47872 0.427426 6.81698 0.564447 2.46233 8.02691 4.57128 0.0740464 5.63075 5.53471 5.24491 9.2355 1.39518 2.43676 5.00452 0.859151 -0.0296239 1.02087 5.02939 2.55582 2.17025 6.91858 1.30333 3.35523 0.627396 3.2094 7.72076 1.281 4.74041 6.28492 3.48812 1.52909 8.783 -0.786987 3.78996 6.94139 5.88919 2.1645 2.58101 4.36438 0.866549 4.08143 2.90602 4.25434
5.46764 6.838 2.69837 3.75745 4.52704 4.18257 2.09377 0.586563 2.80912 6.58635 1.76794 1.08196 8.372 5.40533 2.48255 2.43623 5.71479 1.55712 3.36365 1.57809 0.491307 8.15312 0.421011 3.61492 6.75065 4.87622 0.10468 3.71954 4.93922 2.04142 2.40318 2.03867 1.5684 7.19864 1.19802 2.67096 7.80624 4.56199 4.11113 5.60149 5.26818 4.28617 9.40721 0.888266 2.83116 4.72881 1.12754 1.18736 1.03973 5.10872 2.0334 2.52869 7.18652 1.91856 2.66991 0.398333 4.72865 7.95802 0.890318 0.0450521 6.40817 3.64376 0.930141 7.74473 7.14065 3.43845 7.28435 5.99904 1.0248 2.57814 5.68774 0.00861468 4.01604 2.68066 4.53891
5.19769 5.94799 2.45094 2.86575 4.44428 4.52522 2.39874 1.84076 2.22373 7.53287 1.69869 0.442765 8.02912 4.49028 2.68916 1.10762 4.63614 1.9598 4.32391 1.69509 4.24016 9.27374 1.71992 3.09458 6.04889 4.281 0.585726 1.20794 4.4854 3.44986 4.15924 1.8407 1.06631 9.14341 2.06627 1.59315 6.38196 4.24943 3.76092 4.59774 4.47085 0.866881 0.923344 1.66874 3.51577 5.85544 1.4356 3.96835 9.47021 4.86093 1.48758 1.9474 5.77738 1.33895 3.43498 0.439495 3.63346 8.59443 2.92369 3.87768 6.77054 3.26587 1.50097 8.4606 0.491081 3.6568 6.95492 5.49301 1.29374 1.79012 3.4242 1.19476 3.63174 2.93201 3.47422
5.24593 0.0673486 2.48655 2.92695 4.48641 4.58003 2.41291 1.5957 2.32009 7.52864 1.67643 0.242396 7.88424 4.60382 2.61383 1.21104 4.53044 2.0888 4.27688 1.62926 4.41311 9.24161 1.71988 2.964 6.15884 4.58657 0.49286 1.29898 4.60651 3.59356 4.12363 1.57174 1.2235 9.21503 1.65871 1.42891 6.28818 4.6779 3.69638 4.71232 4.58472 0.892007 0.891856 1.56584 3.49034 5.77004 1.6977 4.04869 9.49531 4.69803 1.77343 2.00918 5.74012 1.32647 3.47254 0.375441 3.74475 8.49672 2.89548 3.59959 6.9001 3.47812 1.25401 8.3255 0.557988 3.5402 6.87877 5.88256 1.12498 1.91691 3.32513 1.38591 3.4572 2.77526 3.78825
5.02627 0.172177 2.33027 2.94318 4.49665 4.74556 2.44214 1.56447 2.4538 7.53861 1.70748 0.147268 7.95518 4.62414 2.53628 1.17444 4.59663 2.10143 4.21696 1.77957 4.45214 9.21325 1.60676 2.86957 6.20463 4.52661 0.488919 1.26537 4.5688 3.55823 4.0903 1.8675 1.32884 9.02855 1.53141 1.36279 6.41108 4.49993 3.66036 4.71033 4.68836 0.873522 0.764609 1.69146 3.45893 5.70903 1.58251 4.20606 9.64247 4.53999 1.60879 2.07371 5.76295 1.47127 3.47254 0.538358 3.86169 8.43078 2.88957 3.40227 6.84977 3.264 1.28147 8.27837 0.495112 3.54688 7.04161 5.65092 1.13794 1.97641 3.29989 1.36427 3.53501 2.86601 3.66083
5.30287 0.297653 2.55495 3.01216 4.60923 4.44597 2.1962 1.72338 2.17254 7.46055 1.58914 0.374029 8.09812 4.41186 2.71465 1.07287 4.61157 1.89567 4.1682 1.79373 4.34432 9.43598 1.60962 3.05927 6.1075 4.4824 0.722565 1.37099 4.46169 3.39511 3.96614 1.76349 1.22095 9.14611 1.66906 1.57578 6.42646 4.62025 3.80141 4.59912 4.4795 1.05118 0.916379 1.67898 3.62257 5.66524 1.76602 4.06442 9.58736 4.71759 1.48327 1.87023 5.71845 1.12077 3.43753 0.615369 3.62366 8.65673 2.75064 3.77463 6.85413 3.24266 1.36548 8.56502 0.403732 3.64923 6.90931 5.64297 1.30921 1.852 3.37364 1.19492 3.4988 2.9891 3.60958
5.23303 0.241355 2.65023 2.88278 4.68118 4.59385 2.46086 1.79449 2.21143 7.40377 1.47464 0.354078 8.0288 4.41788 2.67228 1.26867 4.66249 1.92963 4.23338 1.85862 4.47737 9.12416 1.61253 2.97421 6.21734 4.41041 0.478139 1.17897 4.60441 3.48404 4.06714 1.82013 1.26993 9.02924 1.53738 1.42546 6.35317 4.44655 3.71277 4.73832 4.46409 0.832357 0.971132 1.7602 3.40377 5.71302 1.69678 4.14633 9.45504 4.52485 1.34281 2.00956 5.89897 1.3069 3.41081 0.599801 3.75763 8.30819 2.7488 3.67826 6.88705 3.21456 1.1348 8.49706 0.360893 3.61641 6.90045 5.50897 1.24534 2.29479 3.56167 1.42361 3.46174 2.98616 3.82496
5.25444 5.86598 2.52605 2.81019 4.61011 4.75032 2.29677 1.73347 2.37245 7.59389 1.62262 0.263857 8.13866 4.40287 2.46789 1.0032 4.56988 2.06607 4.17464 1.83916 4.47605 9.4091 1.63572 2.8577 6.21594 4.4719 0.471689 1.22026 4.56218 3.54946 4.01591 1.8142 1.32426 9.20696 1.52129 1.36173 6.43729 4.38408 3.55865 4.74443 4.73065 0.665727 0.587279 1.94743 3.28416 5.69944 1.62232 4.11562 9.78853 4.33173 1.64161 1.64387 5.83866 1.37994 3.29003 0.675153 3.864 8.57138 2.83394 3.55973 6.91136 3.22891 1.25796 8.72058 0.402168 3.56744 6.95223 5.56883 1.29332 1.94525 3.46149 1.46212 3.3679 3.03365 3.79473
5.02717 5.69792 2.51254 2.86557 4.56734 4.5217 2.37443 1.6371 2.26045 7.48581 1.76246 0.434844 8.07072 4.62027 2.69113 1.2122 4.49957 1.87367 4.32176 1.77872 4.26058 9.20067 1.69061 3.05742 6.1036 4.45383 0.617399 1.22442 4.53208 3.40221 4.10408 1.7005 1.19843 9.22101 1.65 1.54699 6.46184 4.46824 3.80568 4.62531 4.57469 0.87096 1.03809 1.64575 3.62007 5.80544 1.5556 3.94222 9.38832 4.49189 1.39698 2.03916 5.70457 1.20486 3.43362 0.621653 3.75636 8.39325 2.91546 3.67642 6.7156 3.24289 1.33526 8.51146 0.537972 3.77536 6.85882 5.67033 1.35124 2.02206 3.30693 1.24497 3.66835 3.02149 3.50559
5.15091 0.366864 2.36169 2.98416 4.44202 4.59616 2.39677 1.6545 2.13387 7.5486 1.66725 0.439018 7.88458 4.4891 2.70502 1.14015 4.61322 2.04633 4.36327 1.62965 4.30229 9.20255 1.67407 3.05067 6.0738 4.54117 0.610335 1.25324 4.4981 3.55599 4.18103 1.74635 1.14095 9.09767 1.88982 1.48278 6.22886 4.72617 3.7429 4.58031 4.71047 0.942519 1.01213 1.7304 3.49431 5.83771 1.70995 3.89734 9.31921 4.71697 1.58352 1.97411 5.67788 1.25772 3.58793 0.419548 3.71637 8.40302 2.81543 3.72604 6.73925 3.25192 1.26512 8.56314 0.375077 3.67747 6.98691 5.6469 1.25785 2.00144 3.43274 1.31998 3.61891 2.80156 3.52014
5.069 6.22223 2.31415 2.93206 4.55108 4.69122 2.39897 1.73585 2.30129 7.55291 1.39669 0.276685 7.96944 4.38016 2.72837 1.21929 4.73901 2.08731 4.28113 1.73284 4.42082 9.17382 1.58494 2.94005 6.20388 4.57344 0.42812 1.35595 4.81272 3.61263 4.04079 1.6561 1.1371 9.00975 1.54796 1.4479 6.41169 4.76746 3.72211 4.71199 4.67574 0.738894 0.981747 1.80942 3.47313 5.76256 1.62145 4.02848 9.42044 4.6794 1.60323 1.92466 5.92029 1.35841 3.41853 0.49058 3.74506 8.27494 2.68182 3.62811 6.83999 3.35837 1.04079 8.56787 0.302209 3.5844 6.91232 5.73804 1.24113 1.96184 3.51424 1.48291 3.57997 2.9115 3.63211