-28925.6397561268
-28926.9499509347
-28926.4116296281
-28925.1982704258
-28926.5568735805
-28926.8957369061
-28925.4552691614
-28924.4047589873
-28925.8077195322
-28925.1733535186
-28924.8483607806
-28924.9516277934
-28925.5661625687
-28924.2676027984
-28924.4180748712
-28925.8501198806