-0.0908221153383944 -0.123682853634434 -0.0754027034307668 0.232819698653613 -1.90850137919772 -1.33688759212483 -0.110160400658549 -1.09727478532055 0.920023282123953 -0.538108473547537 -0.247379848328944 -0.214668748159535 0.894917758284156 1.26144735060731 -2.82921423083305 0.822090270448447 -0.499692869743189 4.35201691088801 -3.97368776092668 2.59426565986243 3.43375740462089 0.101541553096895 3.23928697534436 1.32719813776028 0.709609193276221 -0.306048535485317 1.43116295433395 -0.306249338538406 -0.62542669130911 -0.619125434938934 1.43023581501329 -0.202936553389359 -3.28579640771624 0.364918797025329 -1.70512079652195 0.6784497530625 -1.41463873996906 -0.442389437659675 1.99038145947416 1.19147609979691 0.436234734093931 -0.123054219236479 -1.02462496062144 -1.12331001958285 -0.0485573149811701 2.89592918117306 -1.23466135461004 0.998634720641213 -3.93382771211304 -0.830487231921988 -1.38481935803024 0.695117434909625 3.16343355776242 0.207189670040062 -0.271065095516674 0.00952541806766136 -1.19990674270445 -1.22964744892721 0.839909805916364 -0.169065886293661 -0.253856710954253 0.485051730360146 0.856310350283131 0.443009587421584 -1.8443932690053 -0.925357032874699 -0.088285980491185 -0.325024552557325 -1.39850224776045 2.37656943929557 1.23445078136999 -0.858382915470008 1.07673990920773 -0.747275320896504 -1.72638406578382
0.462581585898278 0.0998096589027749 -0.147287625334818 -1.03905938341718 -0.469115784094444 -0.511016773542422 0.156057139463835 0.41674064000275 -0.404212174995165 -1.4413272912069 0.365984518734745 1.6935061011055 -0.0084712663164896 0.226240249065202 -0.826850922600812 -0.727771456618361 1.52003206072066 2.64275535486542 1.61181936768684 2.20977435014004 1.18651593014237 0.611842531889254 0.0761537222759309 -0.057103914581341 1.44499316819914 0.0977607478527535 1.75892855855451 -0.445524382123586 0.339369501009307 -0.778002816002428 -0.882754389736733 0.348609012553236 0.615071064459855 -0.372698179838793 -0.560030716208978 -0.942237601953524 1.72325272086247 0.289159224660263 -0.431533988614254 -1.70824211414615 2.18115284454481 -0.0251235215526217 1.05472176444795 0.0630292758636592 -0.884378554764087 0.512852540250561 0.0394982947858564 -0.367722069352896 -0.543681850989037 -0.164759033614666 0.322830374253788 0.0828900090761017 -1.27912059038098 -0.513316881241443 -0.930648360445215 -0.566139911272293 -1.79928431580138 1.09127511919529 1.31482496730335 0.144927096742743 -0.629923034193132 -1.73954527895229 -0.0555463410914389 -0.109912803552115 -1.94289783661809 -0.185946455372486 0.478258365099302 -0.0459265635865385 -0.0233700301031116 0.525033649400625 -0.463021758531938 -1.33494718157212 -0.915563448885947 -2.35758133804495 0.923346945462343
-0.0573006038714986 -0.0225364788891363 -0.194399981086334 -2.14564181448022 0.968065348297965 -1.60554613632663 1.50344716835253 1.29177118272559 -0.0395193778208799 1.76405225028557 0.779244658187345 -1.7033174256969 -0.983963499366735 -0.524932090878256 0.773439624470771 0.893058080328979 -0.520655062980514 4.15278942900167 -4.45610514034963 0.977057519845643 2.23097128497464 -1.24885075140118 3.03872329183587 -0.267811109037935 1.05511360036716 0.903803229105801 -2.51019294394355 -0.182513777316414 -0.61911386498069 -0.229045578274235 0.00100375815526209 0.146726353804865 -2.16326517487835 1.12830258512047 -2.34759852096136 3.29311299219992 0.0459018810089501 0.296454983219104 -0.0376704984933979 0.252389126028476 0.227778539291363 1.28416997726909 -2.16608001716416 -0.172945421848156 -0.236712089717269 1.39275609227583 0.15598797682455 -1.15265760433547 0.657118349602081 0.0527649231294447 -1.04156980724607 0.163225114261619 -1.35537381429782 -0.701709482897013 0.109078738117773 -0.533837616294192 0.867238304400218 -0.905303467024847 -1.88263918008873 -0.976055047241297 0.810696946899746 -0.725636670767147 -0.362324812386897 0.952580887513985 0.484596131115493 -0.252867093859068 1.06849875650521 0.590440166018268 1.98891310321783 -0.570957898995515 0.141133693099624 -0.645450175267526 0.919493378036352 -1.34927901740476 -0.470520119915151
-0.073920463224546 -0.0520565845746939 -0.333205284366784 -0.469165406359804 -0.950529148251948 -0.288487909971895 -0.718348368403618 -0.684175339732462 -0.989313705169206 -0.412229127617918 -1.80227167902012 0.831387374673416 0.91023921121198 -0.191414674749052 -0.462145784137733 0.656619555846649 1.07468868416606 1.55965711082684 2.24020925385747 1.48671340918832 3.21069272342855 1.87405581373236 -0.372240523712675 2.22185287232701 -0.634210346498202 4.13870184784309 3.07614850721448 -1.60128402081952 0.990662762300523 -0.950073549007295 -0.828773849661059 0.501603455514642 0.360333494017915 0.735256191161864 0.135114743710617 0.82153028446941 -0.11751452322898 -0.345158079674156 -0.846248857483472 2.35185626559536 -2.73421098969525 0.218286288437336 -0.393194746534321 -0.664189393860795 -0.0515055974520693 -1.13830725656964 1.13576803640023 -1.0973444621802 0.282702416629244 -0.0276120910159367 1.50530813185862 -0.890266377959657 -2.56092361130342 -1.36211832862385 -0.432964806783833 0.10551467675808 -1.80391332753994 0.46979892585124 -1.10331790306678 -1.67006510859183 -0.247190872344283 0.508996915943104 -0.486366591837095 -0.866674461768432 3.07788117273915 -1.29670461292108 -1.45350145838201 -1.37296657858414 -1.92363077081868 0.707407301667188 0.0391378263089923 -0.741400096099913 0.0494011506024739 -0.333716676521194 0.497327198947449
-0.246911393575131 0.951030255999029 0.600231693125555 0.552928818728279 -0.52410085365593 -0.258731520027965 -0.187547994703717 0.0134797726854715 -0.214693687847306 -2.46160400440985 -0.155466043152629 -2.96423847175917 -0.744587491041199 -0.288890030298439 -0.10393010669894 -0.815303075832 3.52112498753764 -0.709188303906302 4.85083406334718 0.259609037083269 -1.85224849932281 -0.708401289635488 0.180811707903546 0.0655816086524109 -0.871643630279383 0.575900070937228 -0.568090092011961 0.206448678492044 -1.04019298221497 2.20314502117609 -1.84652316976303 -0.0345388964618681 2.20864357955427 2.51733340795173 -1.41816937700493 3.03672528860213 1.30772024161064 0.362441797520258 -1.14648413172635 -0.484712859138671 -1.87656315223905 -1.12172082154041 0.616811700400204 0.415910945441522 0.144893158198559 -1.5677673944461 0.257423600525962 -0.687081199023131 1.48788017519974 0.00297245082812117 0.132941905552287 -1.22994209719717 -1.71784235127713 -0.317406120718552 -0.233701072361666 -0.851937420287051 -0.167404440289741 0.527609636326232 -1.04912190465758 -0.455395613387669 -0.274837930345136 0.987206172997412 -0.154333987015944 -0.276530486681225 0.0953094593660043 0.107928170047897 1.31361603522189 0.284561323253872 2.01369415400642 -0.451969363086177 -0.188231393570696 -0.398469876163294 -0.979199761892171 1.23727230852056 0.605632549634119
-0.129638039698004 -0.0863237155729063 0.100226434509763 -0.133556141779982 -0.0390102996581189 0.300159940959198 -0.160776653986886 -0.689680068755044 1.22877790228758 0.0720918956015378 1.35373345132892 0.548010558033605 1.42605314655278 -0.165998304697751 -0.0512490014892231 -1.08538035402477 1.96639256516006 -0.0894918272504523 -1.43711839750771 0.556256338719417 0.461755233769433 -1.79112209592511 0.0162298232051138 -1.13459612818515 -0.709314030785893 0.210473224189871 1.76134179473414 0.0978851891814284 -0.837939827692589 1.38051996154656 1.08628306787803 0.12599067463895 -1.84204893835477 1.89410372315818 -0.150728788026936 1.40143613206109 0.0430880671638711 0.902595068354885 -0.669637815753253 -1.01475964289158 0.0625873034587167 -0.970137913484842 -1.03583136506695 -0.828353474511507 1.80816927240266 0.416352660736282 -1.60442976391112 1.1013021592304 -0.91261696618633 -0.0103661683667666 1.55568193028419 0.0818155456204561 -0.773134691793481 -0.204629881055998 -0.100218464094083 0.227173816140447 -0.0270528763674493 1.7775127397073 -0.0250242770219017 -1.85611337959686 0.168646539584841 -0.738995858776691 -0.167665407125701 -0.475465891399429 1.05585690590683 -0.433339673430957 0.416629825513785 -1.62844719745556 -1.20449024594059 1.34558048741925 0.294757541789535 -1.7266049234312 0.159755412339165 0.806384952017087 -1.27032356546236
-0.0183792643367713 0.328450031528267 -0.437446494387412 0.371728617337898 -0.284003908376667 -0.833220313169538 -1.12574613856879 -0.255203454093921 1.03535879655021 -0.556277678864623 -0.125090531887523 -0.589240232793215 1.11775104031161 0.675746239486019 1.2031391319278 -1.21313043364745 -1.59480407287201 0.0922434204311938 3.09499442653379 -0.409978899294441 -2.3223698413438 -0.418298470602835 -0.497796939252179 -0.883592568934007 1.69937181282532 -0.351024562724518 -0.0380818747865381 -0.828838898537412 0.186380714471932 1.73447455191897 -0.576032225571399 0.507713164798323 0.873568100000729 -2.31493061530273 0.665497313362797 0.722223790195182 2.492089044613 -1.06943000958881 -1.60573511231129 -3.88186317298394 1.28173437250352 -0.892755461643338 2.42284567273128 -0.965810749101373 1.38316382556054 -0.324234710074496 -0.750464515609074 -0.0672150296463607 0.743165671728034 0.589779392847412 -0.199309500034779 0.183907314509426 1.58582784215569 1.45124428808359 0.719056449848186 1.61778612370865 -1.05819532302315 0.091703231936264 -0.100398441222332 -0.952872450461748 0.124340027262725 -0.995350138050672 1.0674314921347 1.01866206125238 0.73119667847912 0.176966882223785 -0.541579975241274 0.0893025941556078 0.680553171471362 -0.296341597628308 -0.564803966760321 -0.975050774865669 -1.98396218952989 -0.295254278663501 0.43471804112316
0.139561207219096 -1.10048223485613 -1.4317579072979 -0.280778718238447 0.564325998929728 -0.0435068996523245 -0.397101535768236 -0.602074916029006 -0.293504386756556 -0.0938027936923783 -0.628390657501185 0.896965640893445 0.0503056642270159 -0.34200436616687 -0.0241313333556042 -1.8078239734266 0.344280305508668 -1.65877437200623 -0.34972178542618 -0.548721724800371 0.357377498241519 1.294494236676 0.930875131626808 -0.121001451533709 3.6086962017195 2.19749039691669 -0.132488877409466 0.345731178272537 -0.151007238355355 0.768224658624669 -0.72416600051917 -0.35267495299056 0.870149305894551 -0.463969209557077 -1.26745550136862 0.554756615020737 -0.951848894822378 0.21560077257368 0.892994831223909 -1.31442053298516 0.343336968246461 0.491726053606162 -0.557538032982732 -0.252430777878156 -0.685525939524878 -1.6497094382767 1.29069389105793 0.482731310956652 1.62100488609229 -0.657847771191855 0.654502767708259 0.654415350245967 0.830019034278358 -0.247835961793963 1.37869165103374 2.33224930013374 0.424852466283108 0.00278527461474238 -0.358382284837514 -0.498725878344126 -0.321058113760904 -2.71877897938864 -0.853385721949088 0.317111986668956 0.69044882820285 -0.0865031784807887 -1.16229332267173 1.0670777085226 -1.25416624732891 -0.163209687650627 -0.57566892888252 0.556023139783243 0.824644917228848 -1.25047774464055 0.381003095866744
-0.810997508703922 0.976009024518502 -0.0833749188816407 0.10759469814027 0.743197810500935 1.21632811299606 0.0578063396018779 -0.457124165149407 -0.623101129701951 0.306598237057026 0.0521722841571396 1.18404304440024 0.379451693021239 0.363584138064272 0.606857165436761 0.289515322264012 2.1337494400659 -1.89108807781928 -0.535403417309957 -1.06809689328885 2.01978817956892 0.0880656370641718 -2.07004216464911 -1.45611961137767 0.806043252583597 1.45753705981772 -0.909099441769798 0.551703688705271 -0.432836251692226 0.598480001447327 -0.120384644204182 0.284064329269721 -0.673503210247672 -0.839303540104349 0.505665796409401 -0.0360555894326394 0.335698996033764 -1.19509364007471 0.982882608156509 -1.69511329686077 -0.319885177105088 -0.0516603777823633 0.29454748276985 0.266561810657705 -0.0355166864886257 -0.910198330692849 -0.0480101845112936 -0.489209202022694 0.803931092428506 -0.426467375343866 -1.2321424461451 -0.656232090800547 -1.04676111895532 1.17829354648323 1.27347162254562 1.05545504269047 0.26391717531318 -0.596055709529815 1.79328773499831 0.582197727764838 0.600317310816564 -1.61082152306579 -0.557783830317883 0.332521371279439 -0.585973133695132 -0.0273128147626772 0.021369198657351 -0.902326388213428 -0.102343993978702 -0.119676819869798 -0.150886396569246 0.271307550419444 0.0347294151076286 0.683040198273578 -0.735783009927266
0.867419824189566 0.405601855535429 1.06978045076853 -0.614469426631137 0.283435437761583 -0.667014777664118 -1.07842423801795 0.849084525694124 -0.948322114439251 -0.99409749723806 0.631894555078006 1.8824036671609 1.16226169811919 -0.622446270065309 0.142517460105675 0.350484888449955 -1.91495278791489 -3.93183099443021 1.22050332526125 -1.67427991582523 3.2821611268358 1.10953302752558 1.15591956122989 0.528367854256526 0.0639487018788275 -2.18310251106412 0.643261910498203 0.871879914537755 0.0993370903860301 3.35481840773022 -0.457852558298448 -0.330746796794905 -1.17303538612635 0.955785508837547 -0.0682097889452104 0.0223847838810408 -1.1693222008604 0.118585130031877 0.0540394183076297 0.684685446335956 -0.748886116194331 -0.745018150598081 -2.11750958956364 -0.793092612655177 -1.52781375752578 0.159387487666988 -0.0106623592978276 -1.25155709318967 0.75634411127878 0.581273159546005 0.00381654355960822 -0.882272051033026 -0.362123238003258 0.214182295692896 -0.417488830635898 -1.16541618295703 -0.132127380491869 0.645242687349673 -0.773503644906391 0.710420118794074 -0.686610687387852 1.2757799577705 -1.3871418343152 1.84301567264365 -0.611934577334844 -1.20016925220151 -0.452950495545317 1.4649271778138 0.127859865670906 -1.37320723371563 1.93179581890697 1.19100867348383 -0.446287742257545 2.46172278931449 -0.262991578653615
-0.575872817257807 0.280525978928349 -0.0986346653654932 -1.01033014865519 0.273466761738064 0.456031703980937 0.883608252655182 0.0534814892100583 -0.467716076257034 0.490372111381365 0.172435315244662 0.289733865919743 -0.190511189565243 -0.041076951310782 0.570705673905783 3.50816072076951 -1.72949407055996 -0.182506064010917 -0.0962155156516456 0.879149190747726 -0.347913015287279 -2.28811196631218 -0.853048650498896 0.653600568075366 0.647608101035229 -2.32777815404768 -2.8471265830771 -0.894215076153436 0.934493700345343 -0.986988914892598 -0.309224360468359 -0.442757362331852 1.53186838511504 0.685906462596032 0.170933277554334 -0.56483276310084 -0.887429681308272 -0.903194135081771 0.607481686071784 1.11697739577032 0.568857565908851 -0.078517850410571 0.585362754120185 -0.595877275062666 -1.04400592623201 1.01962879554126 -0.129757338823015 -0.232581871734141 -2.62153913676708 -0.473224404822182 0.0891053906450837 0.166652393003844 1.5642110463919 1.35477500468111 0.0735401972635745 -0.853021396819476 -0.209553541064519 -0.987811153258511 2.01681907117318 -0.030346457814403 -0.197659881099286 0.365041952803088 0.151809165016796 0.48689675303488 -0.250115500678326 0.0872418560371586 0.85786201023882 1.58746897645514 1.18409472354706 -0.864164037939544 0.120718630332175 0.58057407695785 0.400509274136537 -0.388257459686088 -0.466298113596617
0.0958388492332391 -0.728873173753427 -1.25164631042325 0.444211063307736 0.425525837852942 -0.399408071221837 -0.756424072545759 -0.2323144771436 1.18757496698703 0.896392028074697 0.220073461320847 0.245302398048586 0.0633576055676217 0.039134998096977 -0.139937873637502 -0.257887170186294 -0.418075041853623 1.41250523966876 -1.08578658811425 -2.21304787699271 1.04469498152302 0.379510571253195 0.177800690547943 -1.16329425261498 -2.54616291568518 -1.59290454283843 -0.799840726523776 0.954063899050755 0.349395512603683 -0.925740641268052 1.4553824764824 -0.743020661584702 -0.946685351012919 -0.269784686804275 0.396157684285663 1.03473916100866 0.244899249281309 0.502296624568583 -0.839346477504946 -0.939623562720801 0.739114129460969 0.165258855810831 0.782597632086621 0.115533746377509 0.0417881180775481 -0.399379789101683 -0.0355675943049018 -0.63000453812121 0.156491398563281 -0.320051270283443 0.293528040893412 -0.38553491995605 0.00630074214980861 0.146578258339335 1.3178796933901 1.12165165890113 0.840484704286028 0.178476376109426 0.0349520725262908 -0.719334900176605 0.910081088449304 -1.64304462810746 1.31544974504856 -1.12261145121506 -0.929592408922761 0.468735003913106 1.55582951152936 3.61251711615222 0.910968118581387 -1.7189623232352 0.427047158807011 0.00868595331947214 0.0471457800753328 0.688990242133484 -1.30105466011085
-0.989266911115861 0.463253414807013 0.242794802431713 -0.21414578604688 0.447996753645359 -0.691006500190238 -0.205587102268098 0.335511305600018 0.240064806506362 -0.0621712991822786 0.0460489480337477 -0.10253271285318 -0.479307631756992 0.190819978895281 1.24543221440518 0.0690837064579501 -0.314473264858645 -0.104982201568647 0.689901183512607 0.0114997671645511 0.206311895874575 -1.10108361557467 0.732555505797398 1.35679743338226 1.30811670551315 -2.15077141974549 -2.76556737630931 -0.135361055266134 0.682609281606514 1.26508880213215 0.115648674629406 -0.00999952924550545 0.260073892294518 -0.160686151202395 0.247692494311731 -0.435608670797808 0.143491136369501 0.343846303519405 3.43128606153986 -1.0907143618857 -0.552449565346771 0.92682410358011 1.03406090434535 -0.810201752686878 -0.0298193819388171 -1.77384377739285 0.619473047906638 0.0412541002270155 1.01351060162153 0.292643838973344 -0.611873899331606 -0.0726595948860713 -0.18293286691505 -0.0805657330198595 0.515370934495128 -0.221492195311814 -0.826927284325226 0.0213319176807851 -1.2454211586673 -0.324357351631888 -0.84499467400976 0.575692583019375 -1.28561673627003 -0.0980497396986845 0.0950616051493874 -0.0569810159137654 1.05323463914825 1.587226007332 -1.20332862213283 -0.301685632786382 -0.0728940793731612 -0.5910813988152 1.56580718640929 -1.11129526072132 -0.105678455944786
0.209863873055657 0.440327671100493 0.774725946717383 0.855079049615726 -0.717778869347802 -1.0825081761681 0.859260946745679 0.597559032771059 -0.64150739060796 -0.292675977746245 -1.02101281965749 0.395582785915999 -1.33906274427481 -0.0340434451388174 0.954810032802438 1.65561345941381 0.18162031942975 0.298574342459326 -0.195391655062985 1.50875469386459 3.90006117464154 1.27313840774817 1.56357906956157 0.787789458016234 1.50484070554554 0.969297677406103 -0.718128796307155 0.613728692193302 0.0120101308782282 -0.309537777781696 0.484123819708931 0.543203368938078 -2.09986463191013 -0.893658689716964 0.0698709778389471 -0.465642996849791 -0.698573767102552 0.234509940998053 -0.686388801299739 -0.876595572408058 -0.514342750872461 -0.525331382992785 0.264888537585357 0.67039783345483 -0.531751424267605 -0.487667826474334 0.325175219124687 -0.17150920436473 -0.95991855503269 0.00942180266382667 -1.16794974670241 -1.3404534532558 -0.341755226399337 1.58309039003502 -0.409477791547359 -0.975392731409342 -1.49144577922053 0.917116137282368 -0.636601214091897 -0.589170041713198 0.398240276769685 -0.45211848699244 0.911978561601413 -1.38631496796599 -1.85132701642618 -0.00712478028700507 -0.00644986605607193 -0.125401120988844 -0.320393998157666 -0.656912918565694 0.301024345395159 0.362462366334915 0.507260393765686 -0.756978402100766 0.839180127216407
0.966874928149691 -0.269359683671425 -0.0292869067493838 -0.630792323722574 -0.307943180425411 -1.16836960763159 0.447609031489074 0.571550795078003 0.252636723134909 -1.00712089934833 -0.598928915827216 -0.307973776537213 -0.643719052403955 -0.268056135042537 1.077158484586 0.285979800134656 -1.32228579059982 -1.40226274130012 -0.82175756987137 2.30068825381385 0.308652547420895 0.998703111949948 -0.728988102005323 -1.30870317384106 0.895554620207974 -1.22920933317501 -2.04067529663275 0.508907955819712 0.414317633636154 -0.482258742439907 -0.584542315525554 0.273138432034101 -0.114330727830258 0.469528703048683 -0.91319957786149 2.26802343347741 -0.0152237510582028 -1.1342462012258 0.97025618416912 1.34071904807506 -0.85842225332804 0.536730362965517 0.0176938085883265 -0.230497993699203 -0.561557436476895 0.155527235376233 -0.355545331075946 0.547675800575062 2.42951305400235 -0.491017200831045 -0.445954784570284 -0.204447847046283 2.12686428646965 0.98363902631552 -0.754275402744651 -0.593225954853377 -0.352111110358775 -0.28756796973636 0.963962126884075 -0.209654842476705 -0.859982912140141 1.32214309444813 -0.0892565714328127 -0.274810676665716 1.11815033242614 -0.353424172064442 -0.981227847017352 0.660207528453381 0.151248921927575 -1.35569237381482 -0.887303954428681 0.898650998144404 -0.0954508699667713 0.437207124806841 0.871147407625782
0.556684941394832 -0.65946319447298 0.535483635687119 0.00103872514017901 0.784692051639071 -0.0168265759403503 1.17156882964131 -0.458690994605905 -0.621571324111836 -1.15899254213965 0.477420957232578 -0.367146913873049 -0.58109189686684 0.628297583614862 -0.650365864860368 1.02065646494356 0.415995791801983 0.20477334853823 -1.21610596979777 -1.59425822795305 -0.820509814152239 0.0462093847880724 -0.401124795915148 1.77260939140325 -0.309966380457111 1.05365629984872 0.0976098241752077 -0.101392172080449 -0.548009015372505 -0.247642614936187 -0.11118009964517 1.05348943533981 -0.374627020433254 0.787175736008905 0.57824517291831 -0.686843372103659 -0.565651916144556 -0.253818658647138 -0.365943123995248 -0.989120101201247 -0.207891580840233 0.144491809202564 -1.28827525556445 -0.0222361741951439 -0.133527859659828 -0.335562213416294 -0.052367430786198 0.304794352011606 -0.935153187965283 -0.434253443022094 -0.388971711775053 0.477656984380767 0.452296664349407 0.154069420637418 1.23975959243296 1.15793221974408 0.516505561733645 0.423902958376504 0.286735446963117 -0.426022317616725 1.14995949007284 -2.0779177066711 1.19211424727165 -0.322548067272621 -0.0762781636046058 0.608270500113881 -0.013708857858714 0.298041353049526 -0.519346629258145 0.772764967350021 -0.659497647237531 -0.816328431242652 0.28137032877002 0.25900405682217 0.904951997404395