5.2031801743 2.205e-07 2.4734651841 2.8787405514 4.6358402647 4.924843422 2.2190911401 1.576695355 2.4242452703 7.5276193247 1.5828905481 0.0220861393 8.1872684001 4.6420353658 2.522685401 1.128094838 4.6712131139 2.2018463336 4.0782218087 1.5799031771 4.6764715757 9.2782619289 1.5475173526 2.7450836923 6.3281412248 4.6388275946 0.2704511307 1.3723482581 4.6745849682 3.7227392359 3.8622774959 1.5306318352 1.2582971806 9.0340115732 1.5441457125 1.224191025 6.5440818414 4.688098669 3.6886378776 4.8079962751 4.6951967806 0.6073641911 0.3883152287 1.5448240225 3.0465480461 5.5983616898 1.5235338827 4.3395666005 10.0180466773 4.6739065617 1.9003821778 1.8793571776 5.8688776497 1.4935559771 3.3650565719 0.3710579208 3.9343253042 8.5469951215 2.7669841631 3.4448898274 7.0521817586 3.4195306629 0.9470978006 8.5270031209 0.349853708 3.4533736386 7.0413038905 5.847673168 1.012605337 1.8593650492 3.4517458343 1.5020399091 3.3541788791 2.7991994685 3.9998327223