0 0 0 -0.0725726916441454 0.00651285805095903 -0.0468138508288053 -0.0294517143768231 0.00245103137656596 0.00495065657775911 0.0725726916441454 -0.00651285805095903 0.0468138508288053 0.0294517143768231 -0.00245103137656596 -0.00495065657775911 0.0450989259067771 2.69965692373257e-05 -0.0482163868782301 0.0185098763098434 -0.00419629530021327 -0.011681029843716 -0.0450989259067771 -2.69965692373257e-05 0.0482163868782301 -0.0185098763098434 0.00419629530021327 0.011681029843716 0.0149620128916923 -0.000699339698338342 0.023606314361484 -0.0101483960415856 -0.00166504554648496 0.0161197800466988 -0.0149620128916923 0.000699339698338342 -0.023606314361484 0.0101483960415856 0.00166504554648496 -0.0161197800466988 0.0195473158991063 0.000762588803408648 0.020894059038774 0.0254981310895625 -0.00150820833472526 -0.0110189711219435 -0.0195473158991063 -0.000762588803408648 -0.020894059038774 -0.0254981310895625 0.00150820833472526 0.0110189711219435 0.0119170569919052 -0.0217556352627195 0.0136522936184072 0.00295779554767805 -0.0137579659037076 0.00319407980605045 -0.0142372192852159 -0.0203410150346837 -0.0202595111066053 -0.00431045222155967 -0.0107842295246704 -0.00257315871359196 -0.0119170569919052 0.0217556352627195 -0.0136522936184072 -0.00295779554767805 0.0137579659037076 -0.00319407980605045 0.0142372192852159 0.0203410150346837 0.0202595111066053 0.00431045222155967 0.0107842295246704 0.00257315871359196