5.5179828143 6.3683281889 2.4831302231 3.2229057191 4.5768323894 -0.0654827183 1.9910346920 1.6375142292 2.2531041183 7.8781372986 1.6262122330 0.0808612416 8.8869048968 4.9200795110 2.6569178649 1.1604872942 4.8011030606 2.1824017628 4.2057492152 1.9267588745 4.6964656408 9.7718376018 1.7281770114 2.7591866416 6.7843286154 4.6448448012 0.2206314019 1.5122517596 4.9878378764 3.6724051719 3.9507694048 1.5454560975 1.2111664193 9.4527617524 1.5785397719 1.2595901181 7.0068913377 4.9661772214 3.6600914643 5.2690810708 4.8950076373 0.4548630328 0.1864989749 1.8797577891 3.0344317380 5.6378239191 1.6878159208 4.4290718302 10.7334696223 4.6232054671 1.9743174534 1.6861672259 6.0347831961 1.4403754905 3.2629294739 0.8111183443 3.9683049087 8.8684042504 2.8865249072 3.3835479517 7.2078989424 3.2919846731 0.8742645167 9.2943978061 0.4270397511 3.5187285055 7.6774005562 5.7379148925 0.9808948389 2.0831501949 3.6491182050 1.5675024138 3.7386973753 3.2532717184 4.0662400723
5.508971228436 6.364927960962 2.451347653780 3.052539100569 4.634124533321 0.001040413783 2.244587645020 1.711920485445 2.375232693669 8.068404428343 1.546047418601 0.008312966012 8.626200555249 4.830363529751 2.537115293478 1.169853146621 4.797157490922 2.180647629492 4.164434574060 1.929083846934 4.683586834509 9.840711023940 1.714033901574 2.722047678069 6.721705111888 4.658955041478 0.292560103741 1.377335371970 4.914111058814 3.696366618845 4.053295330522 1.624537241956 1.277034978989 9.633228798590 1.597080333683 1.206328688716 6.832844700610 4.963500907570 3.699102099130 5.150745281646 4.702058281699 0.591593919127 0.285357956902 1.772278256815 3.059204276362 5.859818888914 1.809133110797 4.311101388434 10.600770801585 4.815760262154 1.916937731823 1.997331596023 5.941919970538 1.474770743107 3.428184323501 0.664812506290 3.943958721231 9.037719457157 2.985764342230 3.419474432567 7.468959622284 3.490194392895 0.966899362541 9.013232394567 0.569265572706 3.427929494519 7.457944434985 5.923226012680 1.032183286954 1.972844540812 3.525427419709 1.483225805059 3.417180236256 3.097844126075 4.009242645643
5.5160436147 6.3739729450 2.4905254769 3.2129596533 4.5783103243 -0.0660178710 1.9927776473 1.6285572934 2.2578320709 7.8801510294 1.6275738085 0.0766791314 8.8870311504 4.9211791960 2.6527843139 1.1198835885 4.8170292574 2.1896406068 4.2020085632 1.9188196017 4.7033124259 9.7831405858 1.7125858943 2.7540677516 6.7789156098 4.6450182085 0.2122513040 1.5123201225 4.9961723244 3.6878204158 3.9404416840 1.5616437386 1.2478409875 9.4456868436 1.5635649923 1.2497500178 7.0200675824 4.9578425228 3.6504671073 5.2757626568 4.8933806581 0.4464447882 0.1786724663 1.8691922502 3.0416897632 5.6722391137 1.6900678981 4.4395203255 10.7916860308 4.6365684585 1.9770591156 1.6920785194 6.0607329405 1.4454733263 3.2511519419 0.7968434102 3.9428500851 8.8752917264 2.8954132768 3.3972496856 7.2332982300 3.2849924350 0.8776391635 9.2781980863 0.4295415615 3.5096329286 7.6928510295 5.7391769348 0.9797309476 2.0889303742 3.6280787549 1.5621738329 3.7183118105 3.2761299207 4.0430820041
5.4639839492 6.3783272368 2.4212061641 3.2832998695 4.6103898609 -0.1050534603 2.1705591600 1.6212372210 2.2192582888 7.8546902934 1.6083910232 0.1204027588 8.7952225794 4.9161844859 2.6955508057 1.1282962497 4.7551738958 2.1864736306 4.1587728753 1.8921053060 4.6073567132 9.7808875714 1.7584243082 2.7541992200 6.7376304550 4.6488934176 0.3296023426 1.6042221755 4.8251418833 3.6781580492 3.9575647455 1.4379090552 1.2276513212 9.3403987229 1.6958494416 1.2556449088 6.9772281339 5.1028302668 3.7654488378 5.1885491385 4.8690261629 0.5391738005 0.2061602022 1.8893483148 2.8672149909 5.8028294842 1.6389017476 4.4089138979 10.6846496606 4.6867519400 2.0320013263 1.7510678926 6.0884194625 1.4761172813 3.3244968364 0.8456782459 3.7786277387 8.9588439476 2.8996956178 3.5246666062 7.1994584923 3.2627394166 0.9112443009 9.2286132067 0.4545310450 3.4194153706 7.5693964445 5.7105428474 1.1860142878 1.9548972536 3.6087645384 1.4091426077 3.6883861970 3.3301466833 4.0520539760
5.4878846930 6.3855565325 2.4592271713 3.0673446928 4.6261659931 -0.0156219017 2.2475645474 1.7003218195 2.3815932728 8.0591430302 1.5566266171 0.0153671947 8.6410318430 4.8321521422 2.5420328484 1.1317166976 4.8085019273 2.1798072826 4.1842977254 1.9268830424 4.6679762353 9.8342919172 1.7248346748 2.7463210405 6.7330651304 4.6340908953 0.2801126042 1.4241229077 4.8872844743 3.7121788724 4.0744006531 1.5508057918 1.2558770767 9.5582378092 1.6433772614 1.2034376569 6.8852166344 5.0106539834 3.6917295115 5.2237721676 4.7333366680 0.5818886041 0.2463952704 1.7472726302 3.0059073478 5.6637343252 1.8313603671 4.3820175945 10.7282181555 4.7978981605 1.9077619361 1.9301336652 5.9778240247 1.4624619322 3.4627286412 0.6949000179 3.9684233183 9.0574780397 2.9516877482 3.3593334763 7.4961586840 3.4328145881 1.0045656556 9.0337632698 0.5303576715 3.4484668881 7.4485957561 5.8775018670 0.9894848162 1.8662270069 3.5843910499 1.5561943092 3.4622107250 3.1504244636 3.9774276489
5.4606551389 6.4077298428 2.4850500382 3.2059644950 4.6004909014 -0.1156360579 2.2440383726 1.5945199980 2.1940266005 7.8576557770 1.6264185211 0.0889950293 8.7372330153 4.9142338409 2.7364081721 1.1519033743 4.7876192573 2.1680730384 4.1795729070 1.9195686967 4.5717855586 9.8051901634 1.7314893676 2.7639552371 6.7295009933 4.6105251633 0.3737898358 1.5146341045 4.8394929946 3.7071837438 3.9277561642 1.4853980502 1.1849274486 9.3607890863 1.6945800364 1.2513446610 6.9634077522 5.0663305862 3.7960802602 5.1834540097 4.8599684835 0.5901435139 0.2380583936 1.7576398973 2.8745676819 5.8263549526 1.6471760466 4.3835962339 10.6915854905 4.7862891733 2.0383851672 1.8332123320 6.0834931121 1.3969346787 3.4816786047 0.7818859518 3.7950996223 9.0495880898 2.9563765877 3.4270243869 7.1888085500 3.2473731081 1.0344811445 9.1122422672 0.5338355381 3.5381210106 7.4962694075 5.7393577430 1.1746055353 1.9021687282 3.5975540239 1.4929020898 3.7597766143 3.3094109497 3.8464329130
5.4815305373 6.4171785670 2.5127801133 3.1782103573 4.5659970125 -0.0739934188 2.0937954139 1.6112961306 2.3198788657 7.9041676090 1.6319418123 0.0540593412 8.8260737332 4.9055045802 2.6066860373 1.1158418698 4.8766309604 2.2158746539 4.1620038999 1.9710936942 4.7120827491 9.7947510962 1.6597473677 2.7486315045 6.8368668466 4.5965125012 0.2041494839 1.4017848874 4.9632118163 3.7481691403 3.9585222539 1.5415081877 1.2653970253 9.4719071780 1.5842807659 1.2322850945 7.0269911570 4.9987410118 3.6292262677 5.3473572576 4.8605823419 0.4261160912 0.2059315360 1.8038930894 2.9410911419 5.5781868733 1.7196813171 4.5043783337 10.7637880097 4.7141177429 2.0069012136 1.7327279871 6.0903945474 1.4471612406 3.3907320953 0.8157953681 3.8769381602 8.9956732268 2.8496077941 3.4563166260 7.3934550768 3.2846124171 0.8966256326 9.1070032512 0.4296535620 3.4703182113 7.6494439879 5.7257193524 0.9976817760 1.9417830144 3.6796098709 1.5285112660 3.5995302963 3.2781548313 4.0488958418
5.4599738238 6.3992596723 2.4542459415 3.2386312746 4.6081537822 -0.1130904871 2.2217686666 1.6047933861 2.2020839584 7.8511503677 1.6152679387 0.1032924740 8.7574797580 4.9119060621 2.7178836793 1.1659876552 4.7930949054 2.1772691607 4.2373467610 1.9617446474 4.5915703302 9.7883525122 1.7501611564 2.7527040918 6.7405402684 4.6194191858 0.3623652732 1.5701407485 4.8459076668 3.6512292908 3.9527183726 1.4400078304 1.1064349746 9.3329615953 1.6929783289 1.2700149671 6.9495424096 5.0980966444 3.8013020761 5.2125200236 4.8635421974 0.5558290142 0.2368979840 1.7998074361 2.8668096535 5.6695459431 1.6407604262 4.4235958903 10.6428259988 4.7722636361 2.0442262647 1.7598986647 6.0311139870 1.5130415049 3.4061861035 0.7789475224 3.7978624938 9.0188208921 2.9662359386 3.4856017248 7.1850128200 3.2765899844 0.9718909899 9.1751954536 0.4643047985 3.4475506951 7.5286737961 5.7359412569 1.2009840912 1.9330697412 3.5947755298 1.4287405330 3.7446120047 3.2358840945 3.9765177151
5.5177371225 6.3633186103 2.4748665854 3.2331179760 4.5747774200 -0.0669907757 1.9934723503 1.6449210514 2.2492466852 7.8767889503 1.6255875348 0.0861031416 8.8849791792 4.9192436698 2.6609041732 1.1986703653 4.7821131456 2.1795667357 4.1805530304 1.9333204199 4.6845215877 9.7602815042 1.7391748886 2.7661162542 6.7914982117 4.6408545608 0.2307187839 1.5122587834 4.9724239989 3.6668796526 3.9562921226 1.5247860412 1.2088388525 9.4580860149 1.5973832723 1.2638596059 6.9950275018 4.9813690768 3.6627949049 5.2606911731 4.9004964361 0.4657051671 0.2000759145 1.8944440404 3.0216235394 5.6591201364 1.6735692424 4.4092237401 10.6756089636 4.6073804451 1.9728676957 1.6887506050 6.0319347624 1.4230556649 3.2813699948 0.8265391250 3.9863636961 8.8642074910 2.8759388758 3.3738332228 7.1879013447 3.2915062819 0.8735911901 9.3035449925 0.4263633132 3.5260516119 7.6563677111 5.7382336682 0.9838528922 2.0709738200 3.6644238828 1.5695884056 3.7492944985 3.2528711076 4.0817251757
5.4871700882 6.4110400089 2.5126875494 3.1770037554 4.5680754873 -0.0734336430 2.0723598542 1.6064120134 2.3073452509 7.9002559849 1.6351918252 0.0572721425 8.8371727386 4.9110511373 2.6171249913 1.1686628587 4.8715380045 2.2140812177 4.1316912023 1.9695530405 4.7167013001 9.7844406176 1.6683408772 2.7468721658 6.8416225350 4.5935814903 0.2031842059 1.4168151915 4.9670029770 3.7435595472 3.9725516677 1.5508991298 1.2554128529 9.4675800626 1.5735987322 1.2398743137 7.0289461570 4.9972058729 3.6292294052 5.3309243391 4.8834034017 0.4278266626 0.2084194054 1.8239255498 2.9663145546 5.6133164301 1.7004436027 4.4956784155 10.7213830486 4.6838507186 1.9856237908 1.7224380860 6.0959941673 1.4497683185 3.3902365133 0.8338702869 3.8885059395 8.9982201457 2.8375693926 3.4397267690 7.3722417642 3.2949346175 0.8913122483 9.1222007634 0.4219562309 3.4746352373 7.6485789861 5.7131005008 0.9816755811 1.9338394587 3.7022813830 1.5539497365 3.6301457157 3.2493170484 4.0470014669
5.5023956754 6.3541398013 2.4372422821 3.2815470582 4.5802817815 -0.0786475942 2.0348135741 1.6511026914 2.2363584227 7.8664728134 1.6231334878 0.1097047319 8.8624541486 4.9203802113 2.6737270131 1.1421349994 4.7994456507 2.1809958704 4.1466155948 1.9293583304 4.6894737344 9.7874324960 1.7214998795 2.7718174773 6.7633480906 4.6186215031 0.2458533407 1.5098553786 4.8732677552 3.6997857469 3.9639968978 1.4590966564 1.3099084474 9.4451033407 1.6794791087 1.2495003850 6.9826121380 5.0649737435 3.6716656748 5.2572332186 4.9222553421 0.5152819687 0.2000082722 1.9617099238 2.9352247069 5.7315079550 1.6299485045 4.3476298002 10.7704239392 4.5767955722 2.0057094241 1.7051331826 6.0599573564 1.3651300550 3.2894756272 0.8051912038 3.8858219457 8.8322288635 2.8801251946 3.4299598849 7.1780940876 3.2384838829 0.9026695127 9.2840848045 0.4530423696 3.5298183691 7.5926657342 5.7574947962 1.0509647834 2.0544152525 3.5638366385 1.4884756845 3.7231522865 3.3623791427 4.0622169417
5.4570662610 6.4321308907 2.4988466053 3.1544028493 4.5798181371 -0.0604649050 2.2040870422 1.6471904709 2.3674299621 7.9604134962 1.6011089503 0.0453964477 8.7523972450 4.8681451728 2.5599777864 1.1287101469 4.8392325326 2.1986200387 4.1114215132 1.9621837647 4.6933374665 9.7821858447 1.6888764215 2.7355505666 6.8575786560 4.6140069043 0.2466668609 1.4023239466 4.9473638195 3.7115859504 3.8977926846 1.5180316054 1.2365582706 9.4664534111 1.6409209168 1.2292637765 7.0183717541 4.9845078781 3.6626977842 5.2899660312 4.7395306678 0.4714435191 0.2460414820 1.6962201564 2.8894670005 5.7535040021 1.8202254836 4.4599146796 10.5567487832 4.8153710333 2.0141255471 1.7844383445 6.0553102030 1.4848236409 3.3753521569 0.8189388693 3.9065622501 9.0037474694 2.8815707157 3.4434588841 7.4307134769 3.3417700242 0.8903502017 9.0986277450 0.4656594361 3.4621675564 7.6269453987 5.7701415444 1.0216412016 1.9216172771 3.6611336488 1.5324843129 3.5435405876 3.2252650318 4.0722710843
5.4972527194 6.3985262653 2.5095236261 3.1783662449 4.5729039506 -0.0732549027 2.0359683145 1.6022002815 2.2852039901 7.8945084364 1.6365871173 0.0645551444 8.8595789514 4.9191868963 2.6339225524 1.2098254977 4.8580550564 2.2236166869 4.0943052750 1.9444152132 4.7087518066 9.7730496557 1.6770602209 2.7431138800 6.8327934733 4.6015671063 0.2049741900 1.4619633133 4.9788780444 3.7307617144 3.9599325604 1.5680443080 1.3044799454 9.4519255603 1.5557206462 1.2420890574 7.0364746525 4.9824822000 3.6234264658 5.2907660145 4.9068030702 0.4339963689 0.2151125801 1.8506298595 3.0136892843 5.7443368640 1.6747730181 4.4687126364 10.6633765483 4.6426170593 1.9579166227 1.7199491304 6.1347808126 1.4451014526 3.3451424338 0.8338897960 3.8979661077 8.9701109024 2.8510303950 3.4211564386 7.3277953208 3.2980466449 0.8816850412 9.1697706002 0.4185834857 3.4811642613 7.6655649611 5.7123241026 0.9661990418 1.9748939615 3.6801656619 1.5734626055 3.6621883893 3.2655729702 4.0261813334
5.5016662884 6.3731504742 2.4547327825 3.0612412294 4.6317353407 -0.0039313293 2.2437284369 1.7074221525 2.3787339578 8.0624408418 1.5498593642 0.0087632755 8.6335905714 4.8308223270 2.5385963386 1.1005877202 4.7908127383 2.1650342342 4.2235939067 1.9121211090 4.6683975378 9.8490791399 1.7303442419 2.7452337591 6.7047754648 4.6611375523 0.2859122147 1.3924745649 4.9001505307 3.7058925026 4.0691275364 1.5918722447 1.2645632270 9.6027687507 1.6169454226 1.1903951986 6.8537082177 4.9853610465 3.6945398841 5.2096720511 4.7157288840 0.5836924938 0.2477629722 1.7621614861 3.0336996525 5.6836573607 1.8224819086 4.3590275848 10.7620732551 4.8074195433 1.9291070239 1.9714000897 5.9545798639 1.4651062431 3.4540718912 0.6901598817 3.9629754039 9.0546483827 2.9531711563 3.3875228804 7.4928150320 3.4506609581 0.9981658963 9.0168334547 0.5506004919 3.4421418855 7.4482487934 5.8951635891 1.0122134218 1.9145327173 3.5747999802 1.5228549584 3.4272803629 3.1322963099 3.9845982469
5.4793777862 6.3619860692 2.4145090916 3.2941606980 4.6048645231 -0.0883794198 2.1093928690 1.6355575906 2.2235928716 7.8594116952 1.6135944183 0.1224277215 8.8202343893 4.9193944755 2.6871236736 1.2064140245 4.7823809107 2.1780212914 4.1723656291 1.9125867981 4.6687126059 9.7735776594 1.7518739607 2.7548769392 6.7508868370 4.6276310854 0.2885126967 1.5481620376 4.8160126598 3.6666439635 3.9938277308 1.4520837263 1.2197939060 9.3894495996 1.7090738360 1.2553042532 6.9877900655 5.1016218809 3.7367785863 5.2160599826 4.9014950393 0.5452891927 0.2173939587 1.9603032768 2.8825586534 5.6528835658 1.6612086955 4.3812681652 10.6550712598 4.5989956616 2.0119726473 1.7208059067 6.0541674695 1.4283795699 3.3200303561 0.8756856430 3.7976571058 8.9098115697 2.8547232963 3.4896213002 7.1880060830 3.2848478311 0.8967277280 9.2433590781 0.4436146484 3.4790112766 7.5631528147 5.7017559525 1.1265284609 1.9535148792 3.6243013239 1.4629385284 3.7380729216 3.2313233220 4.0854731361
5.4619660114 6.3840331939 2.4274613595 3.2758567475 4.6109650633 -0.1082554374 2.1863367400 1.6170724365 2.2160567017 7.8528979514 1.6085212966 0.1170826573 8.7868491216 4.9149528122 2.6996087595 1.0906208345 4.7694282565 2.1882370284 4.1814675485 1.9157523845 4.6071830072 9.7892599998 1.7546621952 2.7481454209 6.7341729446 4.6427503098 0.3373482145 1.6033438614 4.8335219510 3.6638139608 3.9566852643 1.4366707276 1.1828134263 9.3348490088 1.6917104451 1.2687009542 6.9679336507 5.1016364580 3.7815153879 5.1963231820 4.8632976462 0.5381856675 0.1996626467 1.8626328871 2.8644724114 5.7811359764 1.6356319675 4.4192081920 10.7404055055 4.7180135214 2.0422568080 1.7473586262 6.0648697463 1.5010675729 3.3281282549 0.8146178326 3.7744536059 8.9693389078 2.9267239642 3.5292349159 7.1963660746 3.2675928759 0.9202975621 9.2202147863 0.4570279361 3.4114448458 7.5680072788 5.7222299354 1.2016353142 1.9619886588 3.5911380038 1.3937381678 3.6937994070 3.3129366131 4.0430848994
5.4592385903 6.4060968775 2.4749995691 3.2145840166 4.6034837334 -0.1156357547 2.2393817535 1.5969944388 2.1955521868 7.8543941895 1.6225798626 0.0936614994 8.7423623801 4.9125280510 2.7305063804 1.1779877680 4.7758642652 2.1649906190 4.1935975637 1.9281558081 4.5731206354 9.7956733104 1.7416731147 2.7659070374 6.7381191199 4.6166763650 0.3732398368 1.5393705183 4.8399599031 3.6999213059 3.9267681142 1.4611965688 1.1725665043 9.3454808034 1.6968921235 1.2498523683 6.9570545772 5.0830259245 3.7930208035 5.1939353386 4.8637453908 0.5793788494 0.2460825287 1.7702567638 2.8716385041 5.7854431659 1.6376052469 4.3953675246 10.6385483244 4.7838873026 2.0400721231 1.8133144367 6.0844518637 1.4342152031 3.4662817733 0.7867698016 3.8043928446 9.0463262333 2.9562668237 3.4409317143 7.1884998643 3.2498533000 1.0187936812 9.1338516782 0.5055462890 3.5069627916 7.5000731077 5.7360927045 1.1800173959 1.9031155072 3.6092535276 1.4796860722 3.7514138311 3.2984840000 3.8791088038
5.4858612151 6.3582090800 2.4169826684 3.2952351477 4.6004867323 -0.0837885574 2.0881812121 1.6399854370 2.2255139001 7.8601030748 1.6162378868 0.1205310584 8.8304840057 4.9201320821 2.6839671872 1.1872838145 4.8073955805 2.1771577771 4.1894178811 1.9258261012 4.6943209410 9.7837941101 1.7406752880 2.7528102696 6.7506539094 4.6180842122 0.2708274790 1.5272470812 4.8220167870 3.6668414388 3.9989506830 1.4557282092 1.2134149260 9.4089234535 1.7086263771 1.2610715738 6.9867613110 5.0974767038 3.7267570230 5.2348476214 4.9111522008 0.5423368899 0.2068535922 1.9717900923 2.8902199051 5.6067733044 1.6633738486 4.3752422424 10.7093697024 4.5841288440 2.0125297263 1.7062221476 6.0319330232 1.4176664600 3.3093523380 0.8547995086 3.8054453832 8.8829221990 2.8606184816 3.4796747725 7.1841320771 3.2802557070 0.8983718755 9.2503697713 0.4456108568 3.4989936378 7.5671523673 5.7160126645 1.1097568694 1.9783438355 3.5963084069 1.4640447441 3.7466484052 3.2309384586 4.0852670503
5.4956262372 6.3789379023 2.4568855448 3.0646786846 4.6293803389 -0.0088558177 2.2449166625 1.7042563263 2.3803392002 8.0602928961 1.5529146183 0.0111063253 8.6372882833 4.8312929667 2.5400678470 1.0973776126 4.7955025487 2.1667895983 4.2278453405 1.9144556972 4.6636512983 9.8446861372 1.7316986690 2.7494370280 6.7125229191 4.6513960322 0.2829415297 1.4064492666 4.8929214973 3.7092864088 4.0748803349 1.5715261732 1.2581435512 9.5820833188 1.6298542223 1.1933715403 6.8681557617 4.9983724520 3.6931153510 5.2244430137 4.7245914236 0.5819688792 0.2410973996 1.7553953972 3.0197752804 5.6285758895 1.8285266363 4.3788395859 10.7848372254 4.8023389250 1.9242867400 1.9519639364 5.9640369733 1.4626563804 3.4627960581 0.6967152067 3.9689479061 9.0594504712 2.9461450007 3.3711755305 7.4976749350 3.4388571589 1.0056113132 9.0233919753 0.5401783432 3.4467174005 7.4459246879 5.8836125878 1.0003091160 1.8856448874 3.5886072659 1.5424786854 3.4423203303 3.1431592844 3.9783945739
5.4592902338 6.4031924612 2.4645907157 3.2255452770 4.6059460366 -0.1146199736 2.2314975930 1.6006141254 2.1982285881 7.8523190270 1.6188116124 0.0984446769 8.7491103619 4.9117994032 2.7243730068 1.1832250445 4.7807317363 2.1689983576 4.2182054171 1.9469089142 4.5808253925 9.7895702765 1.7478073445 2.7611887946 6.7415529917 4.6184826236 0.3694343529 1.5576520354 4.8430565150 3.6776304061 3.9378271457 1.4463264609 1.1395872316 9.3363567295 1.6957426893 1.2573104996 6.9517821826 5.0932215058 3.7960849877 5.2048829645 4.8647069536 0.5673396297 0.2467623052 1.7840683952 2.8691738880 5.7215448428 1.6367678362 4.4099594752 10.6211587072 4.7796676421 2.0419775834 1.7867125682 6.0615760149 1.4764706944 3.4392184974 0.7829129117 3.8041981689 9.0353379614 2.9618735033 3.4615522528 7.1865365908 3.2624249148 0.9965856065 9.1550725586 0.4806571142 3.4756510154 7.5117701064 5.7353001829 1.1898715666 1.9150641962 3.6063867389 1.4565233982 3.7481447057 3.2661387825 3.9266189057
5.4634943621 6.4301111101 2.5067068333 3.1684968524 4.5669603868 -0.0719116233 2.1653998206 1.6310035121 2.3528006427 7.9327253235 1.6149774407 0.0484465783 8.7869995360 4.8839948908 2.5752376303 1.1093831866 4.8640015744 2.2256390065 4.1112426340 1.9737563621 4.6954010249 9.7890930098 1.6585553020 2.7411692091 6.8562928271 4.6044003410 0.2286177358 1.3964525189 4.9571148631 3.7343597097 3.8980795264 1.5226141979 1.2926081254 9.4744091183 1.6174299930 1.2262335166 7.0230394647 4.9883060113 3.6368977313 5.3122550316 4.7825476836 0.4452105745 0.2415694017 1.7345437806 2.8932969046 5.7607671322 1.7702201318 4.4784519610 10.5944947754 4.7840702358 2.0252628327 1.7756399325 6.0905172746 1.4576878933 3.3680678719 0.7917308689 3.8721545333 8.9860974507 2.8877766489 3.4739960742 7.4204810295 3.3034187825 0.8873007153 9.0955051557 0.4544642519 3.4578024121 7.6487258827 5.7620563871 1.0288638566 1.9617441552 3.6347740294 1.4951381560 3.5382068332 3.3078696739 4.0671259563
5.4922846876 6.4047545164 2.5115907297 3.1763959376 4.5703625993 -0.0733202049 2.0531359523 1.6031096409 2.2955727099 7.8975468906 1.6367742454 0.0609478768 8.8483877746 4.9156708830 2.6263516549 1.2046852142 4.8633764119 2.2172413807 4.1020722040 1.9609760975 4.7142421841 9.7754895507 1.6744662637 2.7444725619 6.8420173537 4.5944479854 0.2043486616 1.4381182557 4.9722867296 3.7372390411 3.9717997360 1.5599905336 1.2722888180 9.4606057533 1.5637865359 1.2437665634 7.0324500082 4.9915937465 3.6266771532 5.3092826702 4.8994129556 0.4310072913 0.2138189929 1.8397685535 2.9916402858 5.6824348604 1.6837853973 4.4817871354 10.6797450810 4.6588631816 1.9678737259 1.7193960984 6.1141864494 1.4486958028 3.3748583682 0.8414148609 3.8960438035 8.9903448025 2.8375967142 3.4271214505 7.3493640260 3.3013591246 0.8851061435 9.1434843419 0.4179506985 3.4780115844 7.6536396799 5.7081131364 0.9702963784 1.9435057878 3.7048053935 1.5710695550 3.6513398696 3.2442355819 4.0397404764
5.4561484998 6.4293366668 2.4894498640 3.1387796146 4.5956359437 -0.0479029915 2.2295900623 1.6619799060 2.3771276755 7.9882664725 1.5878530996 0.0415650890 8.7170134072 4.8552505515 2.5512890199 1.0835452021 4.8303903753 2.1785895739 4.1883123280 1.9383050170 4.6897203170 9.8009069255 1.7049654969 2.7364293454 6.8146941499 4.6246937232 0.2529020980 1.4161471568 4.9263676150 3.7061014170 3.9149342957 1.5100015558 1.2337103081 9.4514827519 1.6634150067 1.2157653516 7.0113036569 4.9928046900 3.6800488829 5.3005563467 4.7177151038 0.4998068292 0.2202012996 1.6806031767 2.9013155762 5.6296941540 1.8615163334 4.4511659763 10.6843143043 4.8265107328 1.9934939064 1.8010457592 6.0432260797 1.4896480567 3.3784096831 0.7978982815 3.9203781001 9.0176945571 2.8931783817 3.4089305034 7.4616490207 3.3480594898 0.9266283538 9.0985845419 0.4821774300 3.4684178661 7.5952388295 5.7954549294 1.0091108851 1.8830436694 3.6415702440 1.5633219983 3.5303640991 3.2014300827 4.0324867159
5.4594564856 6.4318003854 2.5030280424 3.1615238222 4.5724345046 -0.0670127438 2.1864339100 1.6389789266 2.3608219551 7.9463651843 1.6081065978 0.0470351284 8.7705887226 4.8759086384 2.5666959609 1.1251675817 4.8520088247 2.2151742133 4.1011195814 1.9700431865 4.6933543239 9.7829096754 1.6724837110 2.7371307279 6.8627691775 4.6077061587 0.2392860312 1.3992542625 4.9535706856 3.7220725912 3.8937549050 1.5202124353 1.2666812337 9.4717511783 1.6289547916 1.2295996399 7.0209221004 4.9851130325 3.6486799420 5.2957558531 4.7591338163 0.4578499917 0.2491485923 1.7133473200 2.8889896915 5.7788394721 1.7946107216 4.4680072071 10.5503130789 4.8016179420 2.0211960969 1.7814975110 6.0746703135 1.4715745775 3.3700924971 0.8057187262 3.8885398128 8.9931655520 2.8865319468 3.4616683971 7.4231717629 3.3257225391 0.8844977309 9.0970756513 0.4599563748 3.4586806463 7.6397394059 5.7660135132 1.0271700607 1.9462606756 3.6457816175 1.5098681828 3.5396601510 3.2683750685 4.0736313965
5.5081863350 6.3658650502 2.4517581987 3.0538261652 4.6339131296 0.0005938804 2.2443331916 1.7113748777 2.3757203646 8.0675291611 1.5464413147 0.0081694345 8.6271924576 4.8304183312 2.5372606465 1.1599300562 4.7954939156 2.1779411513 4.1728272268 1.9255147659 4.6819193233 9.8427615896 1.7168597617 2.7261166570 6.7177513009 4.6606713522 0.2913772948 1.3787558949 4.9122828065 3.6980211065 4.0555561564 1.6205120358 1.2754575819 9.6295674434 1.5994566466 1.2025644382 6.8352787572 4.9662516484 3.6983699517 5.1598706891 4.7036847136 0.5903459710 0.2791657805 1.7710313640 3.0558229035 5.8372033731 1.8108595374 4.3171028443 10.6231845229 4.8148313339 1.9189114387 1.9944970149 5.9435243834 1.4731966128 3.4319386420 0.6688063686 3.9467978992 9.0402270713 2.9806410273 3.4152865860 7.4732677321 3.4832752798 0.9722940255 9.0132357830 0.5667591280 3.4301591063 7.4564621766 5.9192684164 1.0296858993 1.9651317777 3.5329844902 1.4885279429 3.4172147459 3.1038109857 4.0049503395
5.4579102460 6.4211719814 2.4788545638 3.1143049446 4.6072944673 -0.0413272783 2.2458895421 1.6737305204 2.3822641313 8.0190633875 1.5771792778 0.0378951728 8.6875652140 4.8458960524 2.5475113855 1.0798220097 4.8473281966 2.1945747314 4.1662452168 1.9385355865 4.6895105619 9.8166546427 1.6922003903 2.7311150435 6.7847947711 4.6104166303 0.2610226066 1.4456667468 4.9027443711 3.7193258469 3.9515266206 1.5023746662 1.2798117333 9.4507117882 1.6760801466 1.2114380238 6.9909822831 5.0099064880 3.6793679872 5.2816151575 4.7223828985 0.5332398160 0.2222549162 1.6902748268 2.9260073856 5.6889280861 1.8662038772 4.4197045217 10.7154644365 4.8163950965 1.9513204512 1.8382658800 6.0575819369 1.4731872929 3.3833158348 0.7271659698 3.9172527219 9.0163957786 2.9462570019 3.3860184554 7.4825314302 3.3647983873 0.9603058115 9.0913349952 0.5007551433 3.4624047386 7.5518133596 5.8400928994 0.9960746606 1.8759990182 3.5597270198 1.5618638391 3.5064786721 3.2182348368 3.9873738298
5.4650008029 6.4081803686 2.4690408114 3.0865375369 4.6150517441 -0.0356713868 2.2530408795 1.6849095545 2.3833631450 8.0455125837 1.5688242798 0.0316945918 8.6625822490 4.8385529208 2.5463631850 1.1564931649 4.8552939590 2.2150201338 4.1016436419 1.9553502064 4.6856226071 9.8118228087 1.6880832658 2.7264398614 6.7853038279 4.5922153065 0.2720986761 1.4617025638 4.8875063596 3.7221817380 4.0129965489 1.5072525446 1.2886470405 9.4820612530 1.6730013003 1.2239174451 6.9507742436 5.0233890032 3.6812730534 5.2300917022 4.7378397953 0.5657252473 0.2562616468 1.7141152167 2.9596292353 5.7827076704 1.8483457658 4.3875490297 10.6214213357 4.7995451501 1.9002680265 1.8746579984 6.0414228247 1.4640177585 3.4132461132 0.6796837490 3.9321147187 9.0259432229 2.9819266604 3.3644539255 7.4824833058 3.4081933834 0.9763349203 9.0740109278 0.5133321405 3.4507705397 7.4994823253 5.8708782659 0.9833312857 1.8688100284 3.5223443601 1.5588770657 3.4982897334 3.1947980561 3.9773347090
5.5057948433 6.3686543469 2.4529392932 3.0571696802 4.6331868511 -0.0009194860 2.2438166739 1.7098229172 2.3770281647 8.0652321670 1.5476833950 0.0080554087 8.6299157434 4.8305664930 2.5377163148 1.1326281020 4.7920887221 2.1712844626 4.1957836502 1.9177628641 4.6765237108 9.8470697241 1.7237128996 2.7357353150 6.7093039691 4.6631090447 0.2887639816 1.3834422162 4.9072149255 3.7018347181 4.0615664004 1.6090461583 1.2710025369 9.6190501433 1.6063493452 1.1949319471 6.8424273646 4.9739976502 3.6965367163 5.1833720684 4.7084196629 0.5871521476 0.2637291612 1.7675008267 3.0465552673 5.7725028539 1.8156922158 4.3343780354 10.6854665690 4.8119904656 1.9241457127 1.9858516288 5.9479147622 1.4693067575 3.4418807816 0.6789159895 3.9541909692 9.0468161368 2.9675786155 3.4036871994 7.4831760678 3.4672407949 0.9850561098 9.0139157039 0.5599890302 3.4357635239 7.4526351565 5.9086920200 1.0226239881 1.9438385429 3.5524206435 1.5030507931 3.4193935758 3.1177215443 3.9948766942
5.4794396146 6.3928845046 2.4618987631 3.0707473541 4.6224620010 -0.0232617939 2.2506354321 1.6956734569 2.3825121916 8.0575392852 1.5606944283 0.0209485127 8.6459554458 4.8335807397 2.5439895231 1.1627209062 4.8279030004 2.1970923028 4.1326896365 1.9434971801 4.6746643725 9.8224902015 1.7115041246 2.7382160748 6.7577814407 4.6135670565 0.2780166869 1.4421390487 4.8843059725 3.7151965756 4.0636317136 1.5321228294 1.2626082458 9.5324035131 1.6558317322 1.2158134667 6.9051326195 5.0198013479 3.6890504673 5.2174979944 4.7395913072 0.5807522968 0.2567068124 1.7376848671 2.9916535620 5.7279022806 1.8343326849 4.3798768533 10.6617760640 4.7950801547 1.8938250393 1.9094577900 5.9970649565 1.4630437623 3.4519419867 0.6858559262 3.9599774156 9.0486870874 2.9660851660 3.3546965726 7.4902248237 3.4298863245 0.9962844706 9.0468877548 0.5227840393 3.4483360586 7.4586265434 5.8761555249 0.9825348574 1.8602460470 3.5619649857 1.5610170499 3.4809691053 3.1585985910 3.9791371462
5.5117966880 6.3565307019 2.4564250448 3.2571929226 4.5731859195 -0.0738707385 2.0089344546 1.6525383167 2.2431958462 7.8727823297 1.6250367593 0.0983703355 8.8768444859 4.9192462654 2.6677758428 1.2037663197 4.7722582186 2.1840773337 4.1327897585 1.9274857766 4.6667717993 9.7612322286 1.7357423349 2.7778305531 6.7878439095 4.6298790210 0.2440063323 1.5132995831 4.9258774225 3.6867835618 3.9540512893 1.4824336145 1.2858128773 9.4572905415 1.6402648389 1.2537625935 6.9825659819 5.0239942945 3.6569413705 5.2516427443 4.9146881935 0.4906869938 0.2148605491 1.9305067191 2.9814938662 5.7451545350 1.6376303447 4.3660826480 10.6578402749 4.5817962854 1.9824144584 1.7037111985 6.0633235657 1.3749128636 3.3003792852 0.8279231809 3.9674326008 8.8462164030 2.8726019572 3.3860581891 7.1729253405 3.2599956311 0.8868066271 9.3028708118 0.4382563062 3.5325947793 7.6176211263 5.7506116421 1.0074580111 2.0650508397 3.6250314054 1.5378534481 3.7348381886 3.3336296629 4.0748184460