-28925.9947791966
-28925.3806969463
-28925.9766357436
-28926.0391388997
-28926.2748157583
-28925.9858035262
-28926.0474738784
-28926.019227388
-28925.93106391
-28926.2044278356
-28926.0044631789
-28925.9793831396
-28925.9665354273
-28926.0399409549
-28926.1210233541
-28926.0507878151
-28926.0435278216
-28925.9960846621
-28925.6354876153
-28926.2287017381
-28926.0485228767
-28926.0134414344
-28926.1580004765
-28925.9170006659
-28925.6689910703
-28926.3276776539
-28925.7640711342
-28926.1888247
-28926.1584000755
-28925.9834600831
-28926.0995043306
-28926.0120918865
-28925.8814868349
-28926.1571537947
-28925.9824716301
-28926.0648898354
-28925.9672445556
-28925.9973178814
-28926.0579981478
-28925.9513664492
-28925.7684823694
-28926.2137903156
-28926.2569241465
-28926.0664442849
-28925.9764489376
-28926.1639639843
-28926.0369526022
-28926.0740079573
-28926.0966354359
-28925.9412862693