-0.222439903447136 0.064666296400174 -0.0884086220485775 0.0658302341995775 -0.142703350768137 -0.505295557745575 1.03388581231058 -0.383350511839475 0.215283755717779 0.164552317027363 0.182233270106529 0.262091178792004 -0.445016075291375 0.0652499365160666 -0.0364137439178546 -0.332025405736022 -0.420233738951876 0.60404797957498 -3.96911094255531 -0.188975470440914 -0.699164863413758 -0.0347183593697505 -0.630030249139532 0.248367151432481 0.240942066451483 -0.523534697032495 0.234179040192258 0.00534120694605909 -0.501591628446214 0.700706496072301 -0.340443964464953 -0.317587897618083 2.43355276920098 -0.124036637246534 0.274106451873896 -0.394688813808969 0.0929867259708615 0.485843115504074 -0.49036054142312 -0.121037189849176 0.273617428305426 0.17173726109724 0.407429394717704 0.291960697216548 -0.393240769257116 3.94726351895718 -0.849848142938265 -0.665979909176687 0.0252055397010666 -0.174439746232988 0.0915340534357101 0.601864342788955 1.63677345362872 -0.865951982153605 0.472085920930916 0.0811853685614019 -0.524023720600966 0.190642572868864 -0.120282571461447 0.282487215405895 0.382720334780421 -0.529308877527085 0.191393848824212 -0.499685927768242 0.129331307249432 -0.125583154998558 -0.395522107912761 0.112004137782367 0.12711990256362 -0.453183180261124 -0.406249001866575 -0.22974388953184 -0.693530293748653 1.59116467822863 -0.543644570012471
-0.159817118783136 0.190806866275937 0.0835937196475546 0.636594529227133 -0.10456234063946 -0.220859704261111 -0.125855177572397 -0.269862848299972 0.241206632830009 -0.432915698738839 0.194824727109001 -0.0709919782377542 0.490604538986989 0.0271053268448247 0.0718931494299144 -2.72219443106244 -0.456367489880212 -0.742466332029695 2.30235047114831 -0.979103602683649 -0.457447095539522 0.562530341410171 0.77521625583677 1.11624000376487 -1.08464604734152 0.470834308559037 -0.324479221858731 0.20129361931863 -0.259070648359622 0.234447463223532 0.320368030029161 -0.570387628609149 -0.223523365759194 -0.518828552238972 0.336732836080461 -0.53340927072896 0.344915367661203 0.389790864818769 -0.103748072689226 1.29310635590702 0.230471768460515 -0.176839098462728 -0.877455863081087 -0.176689717446281 -0.479153879867431 -3.20470771258373 0.244641367767546 0.850429983282875 3.17611268933737 -0.131632700499368 0.279682143307045 -0.401671412164658 0.22735173638723 -0.223060567429411 0.532001849586054 0.565946050194151 0.402322672258735 0.355338871598826 -0.725994053921812 -0.593434471211962 0.610476248375662 -0.980465515324127 0.764445138931444 0.000480281822241185 -0.355173035530654 0.315944706437171 -0.21004179330244 -0.560806931852097 -0.35388979860624 -1.09292885189371 1.0708667412926 0.751333805138516 0.00489023568470414 0.84552766341956 -0.60823681867988
-0.183989846878238 0.0338788946215613 -0.10218458566511 -0.105187118384667 -0.307446700661627 -0.385737265670238 1.04181200503866 -0.130047101999496 0.162222898767457 0.223853752344622 0.195921302040403 0.223773791077643 -0.695658394735104 -0.0451973991069475 0.0221505565041341 4.93025488472119 -0.235240133918377 0.751899447541583 -3.36178095149162 0.563271847178556 -0.635844281712519 -0.95327199968646 0.00857822415270605 0.165361699884116 1.19097267805818 -0.799879035941075 0.424708741690692 -0.203080792202141 -0.498716108157164 0.125717880734562 0.210692024955785 -0.422190604556308 0.648939160453721 0.123459167775039 0.366217717670919 0.0185253029208361 -0.147496913023953 0.521857310197216 -0.207672008743769 -0.323032719967977 0.313784723788002 0.213348487368738 0.810770737522328 0.321047058023026 -0.372965574429334 1.82812385083197 -0.555827736044001 -0.370548738707136 -4.19295235361114 -0.668725074602848 -0.45422087696057 0.361142105544119 0.783156075404559 -0.473177096548471 1.04743731873717 0.643136440728795 0.132601491669713 0.541639881913962 -0.528790800507911 -0.129893350109935 0.0948358624085267 0.0495988683333644 -0.0256480263263755 -0.441260466845188 -0.12011956360529 -0.0350765138549657 -0.687024120562458 -0.160820619828215 -0.0830702433145337 -1.02953910755319 0.635218732636762 0.178628328227705 -0.0807194849094207 0.0373331699330229 0.208161289422423
0.170442711324764 -0.012405309229826 0.187422267824126 -0.597230188846731 -0.104068689087692 0.422519191370453 -0.697748700524623 0.119371115861958 -0.300333233222684 0.0677611316755043 0.275759156131587 -0.299691743315568 -0.119855511447131 -0.016262733308565 0.244312523843217 0.866831298980192 1.14306405206926 -0.341950373028395 1.62504665817239 2.05695448499304 1.30067387992951 -0.0592142749651502 -0.146787288918287 -0.269323174025409 0.303863613148376 -0.988249011900523 -0.307288320788768 -0.84722510484913 0.119584260203841 -0.786501593108522 0.566229642726234 0.157535523017307 -1.81253011822012 0.422283935552814 0.082135904908739 0.374443957982807 -0.182076432894769 -0.0221680399965926 0.21308777764296 0.577637107335012 0.252553933655915 0.130638455420885 0.252644436440406 0.0321842814040069 0.102222637972225 -2.99289160190694 0.219624804051141 -0.0656949942432077 0.732933200656538 -0.116388637736691 0.0300086150336616 -0.4980003134071 -1.24240268511639 0.228461681048159 0.445558834888137 -0.260394508692984 0.301757623637682 -0.0174325846421825 0.127696343594383 -0.478879800412127 -0.301756852307132 0.661851233854659 0.136066822719053 -0.204842511177514 -0.16420316139856 0.583882313685247 -0.309753236115228 0.0816517664337497 -0.329471273175987 -0.256520372452336 0.22597516846631 0.613102371786995 1.05331485752541 -2.48261196325979 0.123065017864174
-0.0716254977291901 0.0722168511505791 0.0335932452080121 0.182177734306955 -0.1210919543182 -0.216096995227281 0.104609906023355 -0.176539822209468 -0.0828851239826206 -0.112246592685136 0.0879941604332387 0.326553329706707 0.291830342353659 0.140820790006654 -0.00205919545734992 -0.457427040945232 0.878086297250325 0.585327530025085 -1.10561209723159 0.574280019672805 0.324147549722387 -0.193058637260513 -0.886982823809848 -0.684311351019381 0.572538869512089 -0.441492123120263 0.100542937145297 0.0242668304221573 0.188361491323402 0.00887338664303414 -0.729014327244011 0.144355283695278 0.637500842622958 -0.140909493019863 -0.0757102072098891 0.163646260741722 0.202290435498946 -0.222061951477814 -0.0916260988813003 -0.397006662110631 -0.176464231815604 -0.0748218915268895 0.355228571330228 -0.103797952064769 -0.0273385257809985 2.05538174200233 0.00981929500707339 -0.376843824432914 -0.695980553794669 0.114975560169755 0.183358384268267 0.0817911201530509 0.386418093435385 0.0550007532826617 -0.759479055742692 -0.512181996892742 -0.561240676731177 -0.483105663383409 0.627370958514563 0.510499210743615 -0.312996423966272 0.220654787445091 -0.512651480087288 0.195068981783053 0.159207253428556 -0.133224212533454 0.521450561887374 0.337565615963887 0.274504715547693 0.952032214383009 -1.29020358193854 -0.630078328743792 -0.0802055216531786 0.0644007015809153 0.18962981585719
0.202100945293918 -0.141301071828896 -0.0760393082444012 0.339907375512588 -0.260567543846286 0.297736420372236 -1.00553992883175 0.368291825518895 0.178583591055826 0.412032952548126 -0.0135417362396258 0.0567732708857296 0.287960834096309 0.234576789645688 0.020840837230849 -0.907770953453139 1.60285624958986 0.479245925313021 2.31991726730613 2.28380665629429 0.866264371026208 -0.186542950997539 -0.204826313235972 -0.7512605287363 -0.526355452852521 -0.552525669961001 -0.185516824256337 -0.141988841568989 0.35442201668549 -1.02316174656878 1.05918879677108 0.516607891586564 -1.99749775512512 0.291049241617059 -0.339009546752809 0.476901594662489 -0.0714614614323004 -0.43556161963428 0.452406450397639 0.193594711992512 -0.196160928731157 -0.203860607387825 0.0668476191945499 0.00652699911103572 0.0901528575314919 -2.55140873475327 0.576536418640679 0.287048350056087 0.869246592041291 -0.000176634695867074 -0.0941838309838995 -0.581499416507232 -1.81030688646588 0.771442906787941 -0.912951209424506 -0.788073821878867 -0.608464361192023 -0.474642881702966 0.609179898831904 0.461585541048513 -0.15303558059072 0.842297073967494 -0.573328197774552 0.0372282689782722 -0.19144578508122 -0.234278798943345 0.497842961974974 0.0378067668905006 0.312165186743945 0.551495429456869 -0.436918647181276 -0.458064931309782 0.384784158221069 -2.06249289544962 1.45450958741039
-0.0623386779115501 -0.0692927370369019 -0.112613231806397 -0.418418283948212 0.112625573095191 -0.0290652777714545 0.522073025640932 0.241493824904657 -0.0649768855014948 0.686004164465653 -0.353528301688643 0.194695914907211 -0.141468450558167 -0.214018259396007 -0.107181264965664 2.69859865821847 -0.723624012252958 0.462306735112424 -4.48515139196752 0.0377355473697507 -0.263614299517356 -0.753379630866338 0.224377228677643 -0.274554594923236 0.606666903901183 0.0839086796219901 0.536306645383583 0.564639416243064 0.0976224225741851 -0.257590465034867 -0.647761338704424 0.0677169087239918 0.830099766875887 -0.148598373048836 0.0219741789184503 0.0721677431055855 0.0622126939217759 -0.245260231978539 -0.0629871097936123 -1.04649500991569 -0.225396156333715 0.259139810998906 0.626310893229178 -0.181046449500819 0.248582866876196 5.52983968862578 -0.315822836210328 -0.864546103671798 -3.61933542110084 -0.159590604711726 -0.420509103958097 0.384713967141052 0.641385006160751 0.0335256252298271 -0.654732881322234 -0.0367284467821068 0.104359994925272 -0.281162069521617 0.346061821968148 -0.163480167563366 -0.401470352001385 0.356874847833339 -0.316963119872876 0.45817677423948 0.11139941463145 -0.060823527601878 0.131176329924166 0.194709798857105 -0.0264828630912669 0.397788791287964 -0.203735394728601 0.202067006749734 -0.00788942597187942 0.190158434393875 0.0821356477985558
-0.00586905415219461 -0.0749792429590156 0.0451225800436326 0.200490921326641 -0.108614140016708 -0.00134725736003416 -0.219260993141895 0.0173796199444407 0.206804004765243 0.241757619952634 0.111772738617475 0.00808302993983853 0.334332712520172 0.149255289566945 -0.0436945900860697 -2.58267487569303 -1.19451462794212 -0.14398170259907 -3.23946155315876 -2.07402968648056 0.0216617900458469 0.465805747595765 -0.229436899973085 0.196877751921954 -0.315808695150252 0.48169232870629 -0.235824802475002 -0.101014477221309 -0.213236901549223 0.940307218697963 -0.417819731441693 0.325351596710371 1.82404196956329 0.222531691782543 0.0212684114655316 -0.211482124548797 0.312504572185786 -0.219683682283097 -0.278581197502529 -0.47993806592623 -0.0428600104313615 0.152292532161235 -0.506654642174037 0.162320086416711 0.0205382185452078 4.03231659600465 -0.288840665143262 -0.532767780821844 2.127480836689 -0.302372374085743 0.00901351169288503 0.72967690018615 1.30585027924813 -1.39216191064243 -0.0389334237133383 0.394448930008032 -0.247317627664607 -0.143101100221567 -0.548660275466583 -0.121233107808784 0.199176316959875 -0.587212918998583 0.168213823146494 -0.145342843908998 0.68038656407264 0.463630338335603 0.0406084965569686 -0.0910254894933156 -0.239766558693835 -0.0979260697005592 0.135807912764558 0.307155137713864 -0.612877143266501 2.18993315730153 -0.915583503480237
-0.203579585957574 0.104285175861957 -0.0705867725890111 0.291436963773344 0.127609183242274 -0.406701258678846 0.919438613567327 -0.571049687330922 0.180597278010747 -0.0577590313281668 0.0928656270745683 0.190222969049861 -0.342637885658306 0.135827710248665 -0.0908637671880748 -3.11655337250635 0.924747681740485 0.575077061240764 -0.719065705814781 -1.08231482931033 -0.147172697082922 0.967277562696602 -1.17045194300543 0.040633179134557 -0.697551497014099 -0.185184380789443 -0.204213362559193 0.0474039186992783 -0.417456691862997 0.859342964894124 -0.434356544205563 -0.117392395891954 2.53917620356656 -0.268452598945051 0.159565922134137 -0.525766927643147 0.254620071088212 0.353080929969853 -0.401384734310376 0.128136002007676 0.125441744397791 0.099506268886584 -0.163658344920333 0.201261480545729 -0.375992275506113 1.86444580641442 -0.372941406072112 -0.23482104431974 2.10707348722704 0.0929684711478534 0.288710310280374 0.364802326112333 1.26086011094885 -0.56729047934217 -0.250118328890342 -0.565610778515242 -1.17831694350991 -0.197081383187058 0.366781560302704 0.700832737172258 0.595283607649628 -0.822725075490799 0.364609236364741 -0.472068951658824 0.317859920191922 -0.187535910525106 -0.00667586590711583 0.298955893971214 0.38044490965899 0.372453668054558 -1.62393799906238 -0.812331910554795 -0.982813188407041 2.36695326133324 -1.01617554867053
-0.0534444653436757 -0.014959184679677 -0.1022414070156 0.148082095800945 0.0515968715671098 -0.110381515416112 0.546953578070418 0.39117308916372 0.18821725251062 0.297391378506365 -0.412403705432319 0.114485508160552 0.0286950391076283 -0.229204986587827 -0.299805128906365 -2.30417852455096 -0.420908396072626 0.679458653421426 0.0951510794931454 -0.96513017844641 -0.970805628630645 0.186463246840743 -0.338539292227713 -0.087821639500303 -0.598157071057212 0.52088363393339 0.292124219293071 0.444437320268963 0.105753017897918 -0.121221537850539 -1.04728742350036 -0.021222902963103 1.90309383782439 -0.187558793331412 0.0616295680262496 -0.261937684012626 0.109739254178447 -0.288862519508836 -0.181054419916499 -0.369050300559372 -0.482608669399259 0.104156363660168 0.20630109724688 -0.296831392527328 0.0072494787258632 2.40817882232991 0.182763431304313 -0.367818228561418 0.0543430654340038 0.374062149360736 0.249920354049268 0.513528997142593 0.892215016038225 -0.260706383345221 -1.05445899784071 -0.746095699375925 -0.285527543322385 -0.73843792967912 0.854880303444103 0.282312380481311 -0.117927956403585 -0.276159219576666 -0.0632509048415884 0.431209772673223 0.261571302001548 -0.0666488730229265 0.419847302346508 0.540705800618351 0.327831424427457 1.24769504112764 -1.42749013536676 -0.589392956242043 -0.66751511408065 1.6831818416986 -0.380235364859671
-0.0216016262629752 0.0974748413290211 0.0955958801101032 -0.787374739290712 0.492395311413065 0.201908112656509 0.469040193700579 -0.341678864674923 -0.0798535378123606 0.0848461033499833 -0.155433904379727 -0.214137558521017 -0.414684272757415 -0.0685363188778904 0.0585306189879879 2.75044698354476 -0.336660331008795 -0.080054855085816 1.00345502235608 -0.0518238998588865 -0.141323183304652 -0.801935917406776 0.898787523651689 -0.41105207719917 0.491689543960146 0.210188603217054 0.331018305148378 0.109762394094936 0.240717609261538 -0.740136399549423 0.39580132957173 0.39798856590032 -2.00358920958579 -0.125167407832303 -0.274926119137978 0.346343100508583 0.0334502919461458 -0.29312772033815 0.493480316386222 -0.246834003409984 -0.216543595615521 -0.0685622870063949 0.230846120887273 -0.322645254921875 0.228335697058385 -1.99752732279619 0.640546826963478 0.677009678926326 -2.05297544779764 0.145879432861363 -0.266868285996095 -0.173784629486162 -0.605094932241022 0.885535807698727 0.444051397883961 1.01064485151944 0.399100567442715 0.764266704464294 -0.373047849687962 -0.152036193308572 -0.0552231535911406 0.975823648076406 -0.330867895691198 -0.102314940527999 -0.37869707463351 -0.210088844465968 0.0965993811551821 -0.609944287406595 -0.0601648113124873 -0.719588925037619 1.34437104111741 0.532205995071525 0.624756919281841 -2.42665810252796 0.509670287512938
0.147099934901073 -0.11936648787866 -0.0364898485320855 -0.0304266761915654 0.175727096920333 0.0633992574173021 -0.851687766299152 -0.0987228541583352 -0.302908963038108 -0.0534976871516007 0.0343355223069469 -0.0640626016899907 -0.0577680301845792 0.198020092465967 0.420813522415021 -2.45518833400814 0.557904672103993 0.296925494854383 3.20497510717427 -0.601627544310216 -0.0607073137990659 1.00248417430427 -0.544994655584521 0.295927650233335 -1.75345082610116 0.14143348357325 -0.504028775872886 0.130290071122632 -0.220784628087613 0.328117588061373 0.267447555238873 -0.0845532548513041 1.15358448654595 -0.153799969165411 -0.00763257289885001 -0.371679766403088 -0.0295597006537724 0.227761570019271 -0.16963487112911 0.681439944493263 0.381919693669897 0.024488973620453 -0.621459995402505 0.418337551350683 0.271839254278328 -2.39851559320405 -0.141424484716838 0.219765443321358 3.18189869690039 -0.370947002380932 -0.167851040677981 0.158966341186886 0.497732918816559 -0.454592915395679 -0.13049164550627 -0.989400094190765 -0.45943892812887 -0.0737654257840688 0.331888366008369 -0.0557720838322996 0.461781973228487 -0.742088894280739 0.689735861664801 -0.0577214932414177 0.118639637390718 0.0373007740499381 -0.15375908864628 0.350843300045354 -0.0685437750732036 0.0354161564069896 -0.890811194437884 -0.145603810744959 -0.45070746630697 1.37780976310532 -0.9405838692551
0.0122502717893488 0.00189927292339167 -0.104970888720585 0.858873995919945 -0.00317865319505769 0.171974059575979 0.529151011874592 0.817611925277249 0.405208734065297 -0.182736434735076 -0.369677135186045 -0.100443178394211 -0.21078124218936 -0.318937983190132 -0.398619257179741 -3.75772189189283 0.0909923222796811 -0.651711322449119 3.07526173419258 0.00557389166186652 0.320972753180077 0.904401524502137 -0.0489388664930576 0.29993599798962 -1.13305629529789 0.740930098685 -0.146746922619522 -0.129021232368477 0.0607870179558619 0.0429371434863253 -0.21645232150048 -0.155595112464602 -0.675136117021255 0.0529197034597387 0.206259959617566 -0.192813097035545 -0.112957245231536 -0.113057518202989 0.195626910880624 0.551398756027981 -0.540791932529727 -0.0552167258365603 -0.570478388503823 -0.328106275213311 -0.394463842398658 -1.97918868186837 0.545907653845109 0.185959825102013 2.47495213668152 0.663833296257045 0.623986874283119 -0.10939138410056 -0.913998162090548 0.0512122347330237 -0.523210738201648 -0.726599548403278 -0.113631131021736 -0.561970355431134 0.464700688028317 0.277587209534229 0.0640831705046477 -0.485792979018348 0.220052635396007 0.215286841039978 0.253455619068442 0.0696722316673238 0.243311593899971 0.411739589829081 0.435971453266321 0.754162017153854 -0.709885843833358 -0.606675645647413 -0.249086545725109 0.450868417281661 0.139330065164388
-0.19460618345327 0.131465064659913 0.0365770088841946 -0.156814586063579 -0.223437748068184 -0.473006375386817 0.315675254965164 -0.18920327006324 -0.0248666684795923 0.159110837109851 0.217451451672445 0.404388552580849 0.00565925224269311 0.0531225633942935 0.14627692520461 3.95449448574985 0.818296095474778 1.09808416817731 -3.23143765856106 1.09407222087846 0.463607455529297 -0.878185541781045 -0.723806303372856 -0.72631081366753 1.68382744536865 -1.06577313145298 -0.0163113271331922 0.35017558489955 -0.0116650890123568 -0.0470370224678338 -0.128124174939249 -0.224753637985867 0.00139122320136352 -0.312034831881057 0.163860947744704 0.532317323780856 0.224366172939765 0.116764789934732 0.04054858988428 -0.816853707346955 0.110055756813981 0.123001768759103 0.65896697181938 -0.101088010733708 -0.0757235769394161 2.39224750404751 -0.05278214951172 -0.342749728588003 -3.81486257323037 -0.0361129250034958 -0.693045383943114 -0.353169632983061 0.197819289412878 0.124037151466901 -0.245639726608961 -0.332194327126392 -0.199231081428899 -0.214692659406573 0.522979853257123 -0.0129681234208784 -0.338605883765165 0.338391710982549 -0.401331769612634 0.257955818605212 -0.0732334648150019 -0.127735167232048 0.146114945789186 0.140104738146407 -0.105834264715813 0.0296157506737127 -0.607346703225598 -0.0127842896398814 0.506816878699644 -0.262987722000866 0.288705682297076
0.0125626606619521 0.114848033518881 0.248832520864095 -0.321314195503384 -0.379498744184767 -0.297693225861456 0.13185612924858 -0.0800497128821518 0.189069315657786 -0.066251637789863 0.0651231811957428 -0.283908520498695 0.31036567257164 -0.0548130628489165 -0.105581268295532 -3.29248024403904 0.123120810773931 -0.0135247669675338 -0.230302075739595 -0.798716383692587 -0.509999131437267 0.747000727220833 -0.499156537901007 0.163863261736353 -0.366084791706198 0.311024388861031 -0.0568799716117628 0.233656849410153 0.357737966718383 0.586114287185716 -0.577921214087462 -0.133964689861107 0.943358345242148 -0.0576667287723934 -0.243002033239383 -0.0604985403302973 -0.108187337112575 -0.158400955894001 -0.218244122367289 0.123505961828383 -0.13882767186639 -0.249611307609046 -0.47643031169666 -0.543315726088142 0.115271236880449 1.84710115345489 -0.401172361299042 0.0407583917937815 1.99852542452742 0.671181248183079 0.267903668703892 0.0908177444652798 0.285022578922555 -0.0216633327069462 -0.286206571316249 -0.898649712593487 0.241854807601888 -0.299524364586297 0.671720922457642 0.0690487394730332 0.120314967344531 -0.829675535073586 0.270523878581012 0.144660730592935 0.256078657157577 -0.159942074332177 0.285823734253445 0.601369148576087 0.123085329568648 0.865822141511082 -0.979169165780369 -0.54872326746147 -0.8296446818516 2.68118561395021 -0.733414253809328
0.116099131670394 -0.0275118180444838 0.159544839099114 -0.735072100270683 -0.15862258487193 0.326801441033507 -0.62324665406565 0.0532680877579918 -0.286383206012116 0.129751939509168 0.292484173549569 -0.216665722952547 -0.265831103517015 -0.00341365190251403 0.308233972042624 5.37329969623787 0.325516147227627 -0.30609198710628 0.680442614092581 0.532647967476467 0.145486568501414 -0.730638749381548 0.150376547075935 0.28047481400189 0.492684817479362 -0.52395764328388 -0.015997909819856 -0.632957962795774 -0.047269450073458 -0.262376828205553 0.361922177839986 0.128297467202734 -0.557047209642979 0.274983968929201 0.161168747016285 -0.18199004387321 -0.0141495447127404 0.0165044168807849 -0.137192193990975 0.189036662664518 0.256324454492728 0.229746974854039 0.805303032366128 0.190485478546921 0.13872765600512 -2.25011210967409 0.311520868624815 -0.179271360795919 -3.55123310421221 -0.435750338508758 -0.360801177441179 -0.13805377021492 -0.409101382239136 -0.238589508275088 0.907583263019393 0.573291173908169 0.579291354253802 0.226792007518376 -0.324302587162864 -0.722997948956835 -0.170338838810746 0.340921160964995 0.222384624757745 -0.242464158736102 -0.185154556008191 0.714265201584019 -0.462141927484985 -0.207469148809215 -0.552827003095727 -0.626823313824321 0.681511421124196 1.00335732048646 0.885163255043252 -1.69176520805497 -0.0900824093412917
0.149474090332859 -0.129444178619862 -0.0364865060997037 0.579123204193981 -0.13120229805267 0.251132628563116 -0.798186479604986 0.283224864521532 0.284601946662819 0.293408741768401 0.0174122729377087 0.0288621607267165 0.400291758921539 0.241651947667333 -0.0572712933106124 -2.85948741224523 2.2800142810919 0.972519010891574 1.45164049487592 1.39441496717792 0.873694855321053 0.468255236311231 -0.555450555405228 -0.914894191079044 -0.711096575686106 -0.595972662940638 -0.446537396245444 -0.457342194584771 0.18631977935851 -1.06479611275677 0.853559528432939 0.66114623773229 -1.46084915319786 0.438163317578209 -0.245255603995241 0.634155324918995 0.0765753829763996 -0.460520590669646 0.43387214862039 0.033038144322456 -0.199472765001119 -0.0903048096497706 -0.520362214481835 0.0846514709412914 0.0329149885446971 -1.62864157275407 0.618777821971231 0.199849431419525 2.52569925909311 -0.128793946966517 0.0154813754617818 -0.47498972334012 -1.68872847968105 0.352486234116082 -0.826590727095401 -0.61929872720242 -0.6722361712648 -0.547431803011193 0.405021300741735 0.475644325866579 -0.117230930696896 0.714997194275625 -0.461998202892569 -0.0275282730962094 0.240901957262902 -0.0108798745128255 0.559255786116775 0.175182794662472 0.314746315873217 0.779506910574222 -1.03205055982281 -0.704740297736724 0.360895793988601 -1.51752652198526 1.0510330046494
-0.0495680151113789 0.129576333254033 0.239497107221828 -0.535452782465134 -0.424679945350172 -0.426963597997467 0.379062685314039 -0.0525170689128277 0.277261708042282 0.149220322582028 0.00194915229893492 -0.215043100586292 0.246202797910197 -0.076959248479936 -0.0927542983652373 -2.0470719408809 -2.05402779977753 -0.0433516051016641 -2.71527585314237 -1.11939320305179 -1.75521897283111 -0.112932305543764 0.0474345148110806 0.678379047762116 0.00453156697912253 0.740276524599273 0.50898303199321 0.540803502487972 0.392468153156562 0.726404401774219 -0.856998634243592 -0.214921487469632 2.14183735509922 -0.261952082182886 -0.315917709867934 -0.431880316031042 -0.0245789621845774 -0.198939775591319 -0.434271183624736 -0.263610957084974 -0.204441419291703 -0.260311976324173 0.00568650592211365 -0.586831367486696 0.211443815131499 4.4208810452495 -0.792491231936643 -0.364360353707391 0.705021062056792 0.720557973318148 0.1396223994427 0.555358509959638 1.34603582955372 -0.457313141134068 -0.0601028477583331 -0.281406067085486 0.556505735597133 0.108789232051476 0.233894676329625 -0.147693602314111 0.139113321279939 -0.78070478691781 0.150290929384925 0.177633054708489 0.159972413333797 -0.320954241246886 0.209827106299458 0.250650289859409 -0.0359337192057966 0.292826130093241 0.184332831862643 0.0475769538525804 -1.00741220518591 2.89608190462189 -0.691752633941921
-0.173225929058041 0.084623188821138 0.0192279850515562 -0.190782440808532 -0.212519821248243 -0.455435465466067 0.360980640349061 -0.190098527721186 -0.0868459063550111 0.246829889647052 0.162415988515049 0.474286012768667 0.0113383019694936 0.0960867034498561 0.122043261996087 5.15042167703854 1.13977895525835 1.5447922855844 -6.5563397538134 1.38436941520962 1.24424462246892 -0.82315496371713 -1.12727697259964 -1.003943274594 1.75498834499677 -1.03746092940815 0.0194444718258213 0.262077037731927 0.112797065587394 -0.0355282564468703 -0.441583397235303 -0.0265206582881991 0.29426260468685 -0.223897718185952 0.0435200122716683 0.502324649578553 0.185159441101672 -0.0517130853699219 0.00274156588359623 -1.09408250528579 -0.0083105724519817 0.116433889128937 0.847633652930255 -0.0961232130958723 0.00399883467950597 6.39367539686136 -0.227505488276791 -1.17855117088681 -5.62444492319997 0.0453349530549663 -0.829288327137668 -0.169627929154163 0.306784899050038 0.15980066373141 -0.622901097979412 -0.593067317870335 -0.460331614684985 -0.479988202411956 0.890531458558549 0.319208977323238 -0.451763160719241 0.408194297512762 -0.601609289487208 0.270142584179307 0.0426157557573095 -0.200229697380497 0.35391782361621 0.385454701578888 0.0765206185073753 0.670964504298631 -1.27700071692039 -0.418600832178293 0.343662469738408 -0.254910862705425 0.371033905622858
0.064337452475845 -0.104696809265281 0.00652391378883717 0.525457624092743 -0.0629534283596114 0.127041741067923 -0.456219394414682 0.138385442351264 0.2915647475344 0.224182596268951 0.0555388848961257 0.0159806834375808 0.400983642424564 0.206575433812367 -0.0880291274181556 -3.08272949946399 1.02814479902963 0.584741833027727 -0.74981196996408 -0.537325058819288 0.417005206381275 0.670086215912776 -0.518539817503224 -0.516625117968839 -0.609915748176258 -0.119291668815345 -0.447649912008205 -0.410431670327078 -0.0173914470128684 -0.291216877456514 0.271518637879861 0.605889145596965 -0.0122561853235627 0.405906788212719 -0.114420716394382 0.371713190726906 0.214867237220975 -0.376963894888474 0.152537558165837 -0.234560077483779 -0.150653968963621 0.0374527261682168 -0.747070146970301 0.136560731381004 0.00711218188802766 0.843097715078018 0.342215196517104 -0.067701482112999 2.76725916131485 -0.225617271091278 0.0243179953486166 -0.0150232051152969 -0.537495779980941 -0.402770815308075 -0.42292388279883 -0.0076873373678743 -0.435101906626696 -0.39172613316781 -0.0881571682893955 0.242946754549992 0.031139642729614 0.112899395440313 -0.176176525520589 -0.0777943423550106 0.604853248668802 0.227537884159876 0.368904261975308 0.10157317764943 0.0891568126817262 0.429140292808545 -0.619559436928197 -0.327349599944117 -0.0186749410474659 0.148118091226595 0.169244577870993
0.147233375086161 -0.143104442653949 -0.0711459872374986 -0.282950013735678 0.697920193016825 0.604426188654485 -0.625769419183332 0.167888064544364 -0.379752254825415 0.366633207726991 -0.092513386123567 0.00343859159028566 -0.480207260288053 -0.0550722299135948 0.340961270153576 -0.601124893902035 -0.481311548524952 -1.30250938952747 1.83082170798442 -0.4034979229062 0.318027298921193 0.166963753435714 0.962563704597581 0.0582570537530496 -0.707259720422024 0.195270556166692 -0.0440977388533471 0.0316973147170022 -0.109242260194297 -0.156125530772569 0.736565653324966 0.117650020295533 -1.31754005083808 -0.146797830435798 0.02765477130635 0.0611199756431222 -0.0325511776354513 0.0902256197133411 0.353382263104578 0.369343663278418 0.153909755213643 0.15380305448761 -0.518965077746258 0.142721091370779 0.401742631685407 -2.95935980603271 0.281316078521362 0.0873863519601241 2.72271327941216 -0.156703514464431 -0.205510483433501 -0.395445489078164 -0.703067281774559 0.306935308507217 0.453678631584175 0.709109885300422 0.600920491306381 0.414693785834194 -0.575997258586482 -0.645653549422447 -0.0307709467268871 0.311546065422769 0.232997618900396 0.0884523307797236 -0.0991275455867118 0.240334515088552 -0.353688738442968 -0.283601530939939 -0.438198798783492 -0.92634227909677 0.956618288720972 0.938585094690805 0.732435435341838 -1.71115465830158 -0.141783410532603