10.139268 0.000000 0.000000 0.000000 6.163942 0.000000 0.000000 0.000000 4.932215