5.294624 6.313611 2.488997 2.811064 4.542601 4.994097 2.140854 1.418301 2.278887 7.361474 1.535101 -0.034235 7.925174 4.511681 2.525617 1.044504 4.513661 2.261827 3.954154 1.702241 4.615817 9.058364 1.498711 2.779807 6.105444 4.656641 0.295896 1.266114 4.686231 3.766067 3.804784 1.612111 1.191657 8.877964 1.525001 1.249167 6.309804 4.620561 3.693087 4.636594 4.767681 0.672803 0.358590 1.476351 3.289637 5.458354 1.430081 4.295727 9.727004 4.524091 1.923867 1.878864 5.785311 1.490427 3.149404 0.574951 3.901797 8.221454 2.742161 3.398087 6.914044 3.386211 1.056287 8.225104 0.290516 3.437217 6.858674 5.878431 0.954928 1.867194 3.355321 1.625867 3.508394 2.962401 4.024017