-0.583934764162622 0.19225568215834 -0.0655121889029435 -0.747498492535533 0.630879741184866 -0.401603535076289 -0.0534403515807443 -0.298125428079437 0.670574982371063 -0.277186888978967 0.169507858698603 0.787656789161696 -0.517932780360659 0.0941781745598688 -0.0549860980022186 2.49964602711799 2.33304171371841 0.294008836936019 2.27683254257464 -3.35387327069673 0.915907719421268 -1.16834183973181 -0.0213697128777174 -0.279008257516845 2.51242568877457 -1.38819855716821 0.109331734538055 0.287013640181354 -0.416095293442886 0.264497730106874 -0.364555500336449 -0.262225647417824 1.51751829445939 0.280379940344285 -0.129334135461447 0.119742382966517 -0.312561136426093 -0.166194479767542 0.591676094668971 -0.399377475110035 0.0394353027909693 0.604022525666842 0.57617877837583 0.211746948037506 -0.753416654732721 0.67348701230613 0.377951455102194 -0.0532966269883284 -0.958511133889784 0.06699648599063 -0.818264470922243 -1.32118227369347 -1.62467204863545 0.660456925331097 -0.421389449225417 -0.673288009024323 -0.719168292777883 0.740676845154535 -1.13703404694237 0.380020163636322 -1.53097904099131 1.95889240400556 -1.4242058098864 0.466298627816983 0.685334392438384 -0.284571350551017 0.21309574805864 -0.597474186410599 0.164482125947346 -0.216281343228644 -0.358074009727842 -0.518047451502372 -1.65286186623307 3.66573840985687 -1.7078155683522