4.34238497296541 -1.30059913235472 -1.53339868119337 -1.30059913235472 1.98937796280294 2.6897005725324 -1.53339868119337 2.6897005725324 4.15960846767887